Title
82305
    1SAPS     N    1   3.648   6.117  10.969  0.2407 -0.1149 -0.5762
    1SAPS   HN1    2   3.582   6.129  11.049 -1.5742  0.6083 -2.0942
    1SAPS   HN2    3   3.615   6.169  10.885 -1.7812 -0.1647  0.1255
    1SAPS   HN3    4   3.642   6.014  10.950 -2.2179 -0.1926  0.2426
    1SAPS   C12    5   3.793   6.153  11.015  0.5388 -0.2779  0.0924
    1SAPS  H12A    6   3.796   6.247  11.068  0.4963 -0.7179  0.8866
    1SAPS   C13    7   3.858   6.043  11.107  0.4061  0.3484  0.3024
    1SAPS  O13A    8   3.798   5.936  11.141 -0.6440 -0.7623  0.0842
    1SAPS  O13B    9   3.961   6.079  11.169  0.0037 -0.4384  0.5212
    1SAPS   C11   10   3.882   6.165  10.889 -0.5095  0.9171  0.5424
    1SAPS  H11A   11   3.880   6.074  10.827  0.8285  0.1928  1.5065
    1SAPS  H11B   12   3.989   6.179  10.914 -0.0935 -0.4656 -0.4045
    1SAPS     P   13   3.854   6.426  10.829  0.2010  0.0911 -0.2029
    1SAPS   O13   14   3.719   6.482  10.836  0.1208 -0.8209  0.5509
    1SAPS   O14   15   3.948   6.467  10.939 -0.1918  0.5176  0.3158
    1SAPS   O12   16   3.840   6.269  10.801 -0.0444  0.1201  0.2094
    1SAPS   O11   17   3.912   6.471  10.688 -0.2397 -0.0252 -0.4001
    1SAPS    C1   18   3.968   6.380  10.593 -0.5366 -0.5267 -0.1018
    1SAPS    HA   19   3.908   6.287  10.586 -2.2943  0.6444 -1.7056
    1SAPS    HB   20   3.963   6.433  10.495 -1.3117  0.7414  0.5923
    1SAPS    C2   21   4.120   6.345  10.611 -0.3137 -0.0618 -0.0703
    1SAPS    HS   22   4.129   6.319  10.719 -3.8183  3.0884  1.2048
    1SAPS   O21   23   4.196   6.460  10.573  0.0413  0.1900 -0.2914
    1SAPS   C21   24   4.328   6.462  10.582 -0.1246  0.5973  0.2798
    1SAPS   O22   25   4.401   6.371  10.621 -0.1291 -0.7120 -0.2780
    1SAPS   C22   26   4.385   6.590  10.517 -0.2605  0.2802 -0.4785
    1SAPS   H2R   27   4.377   6.675  10.589 -3.6928 -0.4720  0.2109
    1SAPS   H2S   28   4.489   6.561  10.493  0.5175  0.9745  1.7872
    1SAPS    C3   29   4.162   6.224  10.525  0.6321 -0.5937 -0.4074
    1SAPS    HX   30   4.093   6.145  10.561 -0.1974 -0.9218 -2.5974
    1SAPS    HY   31   4.267   6.195  10.548  0.7485 -0.4737 -0.7800
    1SAPS   O31   32   4.139   6.249  10.381 -0.4216  0.1056 -0.2996
    1SAPS   C31   33   4.097   6.151  10.306 -0.0599  0.3796 -0.6318
    1SAPS   O32   34   4.093   6.031  10.346 -0.0003 -0.6692  0.3422
    1SAPS   C32   35   4.070   6.199  10.165  0.3526  0.2626 -1.5206
    1SAPS   H2X   36   4.143   6.280  10.141 -1.1844  2.2869  0.3445
    1SAPS   H2Y   37   3.965   6.235  10.160  0.3644  0.1692 -3.0607
    1SAPS   C23   38   4.315   6.641  10.387  0.2602  0.5498  0.3285
    1SAPS   H3R   39   4.208   6.669  10.396  0.2010 -0.1002  1.8247
    1SAPS   H3S   40   4.315   6.560  10.312  1.2312  2.1089 -1.4380
    1SAPS   C24   41   4.394   6.754  10.325 -0.0511 -0.6501 -0.8475
    1SAPS   H4R   42   4.342   6.763  10.227  0.0881  0.4600 -0.8427
    1SAPS   H4S   43   4.499   6.724  10.308  0.3945  1.2223 -1.7654
    1SAPS   C25   44   4.408   6.880  10.415 -0.4186 -0.3826  0.7535
    1SAPS   H5R   45   4.464   6.860  10.507 -0.8557  0.8994  1.3110
    1SAPS   C26   46   4.359   7.000  10.386 -1.0674 -0.2755 -0.6407
    1SAPS   H6R   47   4.380   7.081  10.457  3.1177 -1.3482 -0.3701
    1SAPS   C27   48   4.266   7.030  10.272  0.8127  0.9727  0.7457
    1SAPS   H7R   49   4.198   6.942  10.269  1.5642  0.2693  2.6804
    1SAPS   H7S   50   4.320   7.022  10.175  1.0545  1.9404  0.7925
    1SAPS   C28   51   4.183   7.154  10.282 -0.1774  0.4149 -0.0016
    1SAPS   H8R   52   4.109   7.158  10.364 -0.3604  1.9052 -0.2012
    1SAPS   C29   53   4.171   7.252  10.191  0.1612 -0.2624 -0.4381
    1SAPS   H9R   54   4.118   7.345  10.218 -0.7347 -0.7592 -0.4520
    1SAPS  C210   55   4.259   7.257  10.064  0.3766 -0.2898 -0.1249
    1SAPS  H10R   56   4.208   7.328   9.995  0.3916 -1.5632 -1.4911
    1SAPS  H10S   57   4.269   7.160  10.012  0.3298  0.1392 -0.9548
    1SAPS  C211   58   4.397   7.310  10.100  0.0519  0.2721  0.9344
    1SAPS  H11R   59   4.431   7.307  10.204  2.4830  3.2299  0.4043
    1SAPS  C212   60   4.487   7.364  10.010 -0.0495  0.1112  0.6130
    1SAPS  H12R   61   4.581   7.410  10.044 -0.2046  1.5896 -0.7826
    1SAPS  C213   62   4.467   7.380   9.864 -0.5109 -0.6820 -0.3930
    1SAPS  H13R   63   4.360   7.361   9.838  0.0695 -2.2870 -1.8049
    1SAPS  H13S   64   4.524   7.293   9.823  0.1870  0.6804 -2.4764
    1SAPS  C214   65   4.514   7.515   9.811 -0.0327 -0.2108 -0.0970
    1SAPS  H14R   66   4.442   7.596   9.827  0.4869  0.6558 -1.8841
    1SAPS  C215   67   4.616   7.542   9.730 -0.0797  0.1114  0.0564
    1SAPS  H15R   68   4.637   7.643   9.694 -1.1547 -0.1354 -1.3479
    1SAPS  C216   69   4.705   7.432   9.670 -0.4585 -0.1812 -0.0666
    1SAPS  H16R   70   4.707   7.342   9.735 -1.1316 -0.4085 -0.3626
    1SAPS  H16S   71   4.809   7.472   9.664 -0.4678 -0.3810 -2.9379
    1SAPS  C217   72   4.650   7.394   9.536 -0.0510  0.1019 -0.0176
    1SAPS  H17R   73   4.545   7.359   9.542  0.3735 -1.5879 -1.5786
    1SAPS  H17S   74   4.698   7.311   9.480 -2.6198 -0.5947 -1.3532
    1SAPS  C218   75   4.647   7.502   9.427  0.5445  0.7836  0.8440
    1SAPS  H18R   76   4.748   7.544   9.409  1.7282 -2.0070  0.4867
    1SAPS  H18S   77   4.582   7.590   9.449  1.8673  1.5840  1.6717
    1SAPS  C219   78   4.600   7.443   9.293  0.1913 -0.7961  0.6127
    1SAPS  H19R   79   4.499   7.396   9.295  0.8112 -2.4700 -1.8056
    1SAPS  H19S   80   4.666   7.358   9.262  1.8516  0.1535  1.3968
    1SAPS  C220   81   4.610   7.543   9.178  0.2719 -0.5947 -0.1010
    1SAPS  H20R   82   4.715   7.567   9.153  0.0551  3.6278  2.0768
    1SAPS  H20S   83   4.563   7.641   9.203 -2.2374 -1.9868  0.9878
    1SAPS  H20T   84   4.574   7.500   9.082 -1.0792 -0.0860  0.1469
    1SAPS   C33   85   4.100   6.090  10.064  0.5090  0.2127  0.1429
    1SAPS   H3X   86   4.014   6.020  10.069 -0.8350  1.4910 -2.7404
    1SAPS   H3Y   87   4.196   6.039  10.084  2.5000  3.1700 -1.1151
    1SAPS   C34   88   4.101   6.148   9.926 -0.1201 -0.1333  0.1539
    1SAPS   H4X   89   4.197   6.201   9.909  1.8702 -2.5157  2.9568
    1SAPS   H4Y   90   4.029   6.232   9.934  2.5572  2.2748  0.5965
    1SAPS   C35   91   4.075   6.048   9.818  0.0809 -0.1290 -0.4703
    1SAPS   H5X   92   3.990   5.989   9.859  0.1112  2.0865  3.2528
    1SAPS   H5Y   93   4.163   5.981   9.816  0.7286  0.5609  2.0155
    1SAPS   C36   94   4.064   6.098   9.678 -0.5287  0.2707  0.3240
    1SAPS   H6X   95   4.154   6.160   9.661 -0.3990  0.1257  0.4700
    1SAPS   H6Y   96   3.981   6.171   9.684  1.0800  2.2837 -0.8533
    1SAPS   C37   97   4.051   5.986   9.572 -0.5054  0.3328  0.7760
    1SAPS   H7X   98   3.944   5.980   9.541  0.0326  1.8381 -1.6373
    1SAPS   H7Y   99   4.078   5.884   9.606 -0.4804  0.2964  0.6496
    1SAPS   C38  100   4.132   6.009   9.436 -0.3718  0.1454 -0.5611
    1SAPS   H8X  101   4.151   5.912   9.386 -0.3536 -0.2611  0.2181
    1SAPS   H8Y  102   4.230   6.050   9.466  0.0729 -0.7328 -0.7738
    1SAPS   C39  103   4.063   6.108   9.335 -1.0937 -0.3475 -0.2452
    1SAPS   H9X  104   4.069   6.214   9.369 -0.7219 -0.6685  0.7338
    1SAPS   H9Y  105   3.956   6.085   9.319 -2.0621  3.6006 -0.3474
    1SAPS  C310  106   4.138   6.103   9.204 -0.0294 -0.3344  0.4403
    1SAPS  H10X  107   4.224   6.173   9.213 -2.0833  2.2668  1.1338
    1SAPS  H10Y  108   4.064   6.150   9.135 -0.8112 -1.0400  0.7873
    1SAPS  C311  109   4.174   5.965   9.139 -0.0609 -0.1040 -0.0086
    1SAPS  H11X  110   4.081   5.906   9.127 -0.3300  0.4383 -0.6662
    1SAPS  H11Y  111   4.239   5.910   9.210 -1.1692 -0.1683  0.9764
    1SAPS  C312  112   4.248   5.977   9.004  0.5446 -1.0618 -0.0889
    1SAPS  H12X  113   4.350   6.018   9.021  0.0394 -0.5463  1.9707
    1SAPS  H12Y  114   4.195   6.057   8.947  2.2757  1.4348  1.6172
    1SAPS  C313  115   4.245   5.849   8.920 -0.1505  0.6821  0.1895
    1SAPS  H13X  116   4.155   5.841   8.857 -0.4405 -0.1204  0.6743
    1SAPS  H13Y  117   4.255   5.759   8.986  0.5302 -0.6302 -1.6102
    1SAPS  C314  118   4.365   5.843   8.825  0.7668  0.1459 -0.2032
    1SAPS  H14X  119   4.368   5.745   8.772  0.1535 -0.2942  0.5706
    1SAPS  H14Y  120   4.466   5.859   8.869  1.4949  1.7365 -2.2625
    1SAPS  C315  121   4.348   5.931   8.698  0.2376 -0.6688  0.3032
    1SAPS  H15X  122   4.299   6.025   8.730 -2.2775 -1.9090  0.3002
    1SAPS  H15Y  123   4.272   5.889   8.629 -1.1787  0.3332  1.1925
    1SAPS  C316  124   4.475   5.983   8.625 -0.3909  0.3587  0.6185
    1SAPS  H16X  125   4.525   5.890   8.590  0.3910  1.2745 -0.8182
    1SAPS  H16Y  126   4.532   6.036   8.704  1.4550 -0.6167  0.0030
    1SAPS  C317  127   4.457   6.072   8.495 -0.0288 -0.2305 -0.6457
    1SAPS  H17X  128   4.414   6.169   8.528 -0.8002 -1.5146  2.5307
    1SAPS  H17Y  129   4.385   6.021   8.427  0.1498 -0.1995 -0.8593
    1SAPS  C318  130   4.592   6.096   8.421 -0.0010  0.5873  0.0824
    1SAPS  H18X  131   4.580   6.191   8.365 -0.6347 -0.3568 -1.4612
    1SAPS  H18Y  132   4.626   6.012   8.358 -0.5634  0.3487  0.0873
    1SAPS  H18Z  133   4.671   6.133   8.490 -0.4082  2.5333 -0.4257
    2SAPS     N  134   2.711   1.097  10.849  0.4388  0.2789  0.1742
    2SAPS   HN1  135   2.762   1.014  10.810 -1.2582 -0.6693 -0.1330
    2SAPS   HN2  136   2.700   1.166  10.772  1.3811 -1.3366 -1.5066
    2SAPS   HN3  137   2.761   1.146  10.925 -0.7357  0.8319  0.6195
    2SAPS   C12  138   2.585   1.044  10.901 -0.5884  0.2781  0.3705
    2SAPS  H12A  139   2.607   0.981  10.986 -0.0855 -1.7981 -1.2113
    2SAPS   C13  140   2.491   1.145  10.963  0.3152 -0.5370  0.1852
    2SAPS  O13A  141   2.538   1.252  11.012  0.3791  0.0204  0.3025
    2SAPS  O13B  142   2.375   1.107  10.998 -0.1799  0.1906  0.0766
    2SAPS   C11  143   2.521   0.970  10.791  0.7079  0.5899  0.4160
    2SAPS  H11A  144   2.491   1.048  10.717  1.3127  0.2962 -0.1528
    2SAPS  H11B  145   2.430   0.922  10.833  2.1147 -1.3524  1.4086
    2SAPS     P  146   2.567   0.738  10.653  0.0576  0.0742  0.3126
    2SAPS   O13  147   2.601   0.621  10.734 -0.4137 -0.5441 -0.2445
    2SAPS   O14  148   2.424   0.757  10.621 -0.4479  0.1334  0.1616
    2SAPS   O12  149   2.610   0.865  10.740 -0.0859  0.3209 -0.2495
    2SAPS   O11  150   2.648   0.741  10.516  0.3279  0.1519  0.2331
    2SAPS    C1  151   2.792   0.755  10.512 -0.1965 -0.6719 -0.9332
    2SAPS    HA  152   2.823   0.856  10.479 -0.2386 -0.6848 -1.0107
    2SAPS    HB  153   2.835   0.754  10.615 -1.4443 -2.0305 -0.3795
    2SAPS    C2  154   2.864   0.641  10.428 -0.1620  0.2406 -0.1414
    2SAPS    HS  155   2.973   0.654  10.417  0.0098 -0.6835  0.3876
    2SAPS   O21  156   2.802   0.625  10.295 -0.7142  0.2878 -0.5643
    2SAPS   C21  157   2.881   0.671  10.197  0.0807 -0.6355  0.8951
    2SAPS   O22  158   2.981   0.741  10.202 -0.3916 -0.2603  0.2307
    2SAPS   C22  159   2.818   0.628  10.071  0.2611  0.4826  0.5077
    2SAPS   H2R  160   2.792   0.520  10.067 -1.4348  0.8867 -1.1896
    2SAPS   H2S  161   2.718   0.676  10.058  0.4403  0.9741  0.9101
    2SAPS    C3  162   2.855   0.505  10.504  0.5254 -0.0202 -0.5133
    2SAPS    HX  163   2.756   0.501  10.555  0.8844  0.9882  0.3043
    2SAPS    HY  164   2.927   0.493  10.588  0.7135 -1.4419 -0.8540
    2SAPS   O31  165   2.861   0.390  10.418 -0.1186 -0.0882  0.1132
    2SAPS   C31  166   2.982   0.371  10.358 -0.1957  0.2700 -0.3068
    2SAPS   O32  167   3.080   0.439  10.370  0.3665 -0.4460  0.1678
    2SAPS   C32  168   2.971   0.235  10.295 -0.5143  0.4986  0.2746
    2SAPS   H2X  169   2.867   0.221  10.258 -0.6341  2.1492 -0.1167
    2SAPS   H2Y  170   2.991   0.167  10.380  0.6364 -0.4020 -0.6804
    2SAPS   C23  171   2.898   0.637   9.948 -1.2195  0.5276 -0.2610
    2SAPS   H3R  172   2.872   0.559   9.873  0.7000  0.1228 -0.5464
    2SAPS   H3S  173   3.000   0.606   9.979 -2.6375 -2.5875  1.7373
    2SAPS   C24  174   2.905   0.779   9.881 -0.9040  0.4452  0.5407
    2SAPS   H4R  175   2.902   0.857   9.961 -1.5407  0.6873  0.2844
    2SAPS   H4S  176   2.811   0.793   9.824 -0.9667 -0.5859  0.3773
    2SAPS   C25  177   3.031   0.787   9.798 -0.0057  0.2088  1.1239
    2SAPS   H5R  178   3.118   0.807   9.862 -1.1542  2.8046  2.0074
    2SAPS   C26  179   3.044   0.782   9.662  0.5462 -0.5064  0.1739
    2SAPS   H6R  180   3.140   0.815   9.620  0.6628  0.0462  0.8491
    2SAPS   C27  181   2.940   0.770   9.552 -0.3639 -0.6178 -0.2123
    2SAPS   H7R  182   2.899   0.667   9.554 -0.1957 -0.6826 -0.0784
    2SAPS   H7S  183   2.994   0.789   9.456  0.0165  0.2405  0.1621
    2SAPS   C28  184   2.825   0.867   9.562  0.8070 -0.0005  0.2619
    2SAPS   H8R  185   2.804   0.913   9.660 -0.6407  0.4308 -0.2243
    2SAPS   C29  186   2.753   0.904   9.452 -0.6409  0.3982 -0.6755
    2SAPS   H9R  187   2.663   0.966   9.467 -2.1794 -1.4506 -1.7584
    2SAPS  C210  188   2.772   0.860   9.308  0.0928  0.3345 -0.2487
    2SAPS  H10R  189   2.678   0.814   9.270 -0.3478 -0.0356  1.2397
    2SAPS  H10S  190   2.841   0.774   9.291  1.2489  1.4162 -1.2254
    2SAPS  C211  191   2.809   0.971   9.217 -0.0823  0.1489  0.5200
    2SAPS  H11R  192   2.826   1.064   9.274  1.1221 -0.3599  1.0131
    2SAPS  C212  193   2.832   0.958   9.082  0.2202  0.2449 -0.8907
    2SAPS  H12R  194   2.842   1.052   9.027 -1.6987  0.6969 -0.5207
    2SAPS  C213  195   2.825   0.834   8.999 -0.1136  0.3817 -0.2788
    2SAPS  H13R  196   2.817   0.739   9.056 -0.8113  1.2681  1.1511
    2SAPS  H13S  197   2.921   0.818   8.944  0.7749  0.1023  1.2993
    2SAPS  C214  198   2.710   0.850   8.901  0.3210 -0.3096  0.4693
    2SAPS  H14R  199   2.610   0.826   8.939 -0.3531 -0.2688 -1.2005
    2SAPS  C215  200   2.719   0.890   8.776 -0.1182 -0.3306  0.4401
    2SAPS  H15R  201   2.626   0.903   8.719 -0.1133  0.9548  0.7038
    2SAPS  C216  202   2.840   0.933   8.698 -0.0826 -0.0399  0.3719
    2SAPS  H16R  203   2.932   0.934   8.762  0.8726 -0.4781 -0.9498
    2SAPS  H16S  204   2.827   1.034   8.655 -0.2623 -0.8146 -1.5065
    2SAPS  C217  205   2.882   0.841   8.575 -0.8668 -0.2865  0.1527
    2SAPS  H17R  206   2.880   0.736   8.611  0.3597  0.4508  2.5992
    2SAPS  H17S  207   2.985   0.862   8.539  0.0703 -2.4734  1.3531
    2SAPS  C218  208   2.801   0.869   8.453  0.5417  0.8820  0.7767
    2SAPS  H18R  209   2.820   0.973   8.420  1.7710  0.0627 -1.2460
    2SAPS  H18S  210   2.695   0.864   8.486  1.2835 -2.0021  3.1986
    2SAPS  C219  211   2.818   0.783   8.330  0.0115  0.0964 -1.0837
    2SAPS  H19R  212   2.921   0.784   8.287  1.0249  0.8427  1.2178
    2SAPS  H19S  213   2.763   0.827   8.244 -1.0484  0.2901 -0.3111
    2SAPS  C220  214   2.769   0.641   8.351  0.1010 -0.8142  0.7001
    2SAPS  H20R  215   2.662   0.640   8.380 -0.0076 -0.3638  0.3404
    2SAPS  H20S  216   2.832   0.590   8.427 -0.2529 -2.1151  0.1438
    2SAPS  H20T  217   2.781   0.567   8.269  0.5391  1.3106 -1.2395
    2SAPS   C33  218   3.086   0.225  10.193 -0.0252 -0.2975 -0.5097
    2SAPS   H3X  219   3.106   0.120  10.164 -0.0608 -0.3001 -0.5253
    2SAPS   H3Y  220   3.184   0.257  10.235 -0.6449  1.5618 -0.4053
    2SAPS   C34  221   3.071   0.295  10.061  0.6435  0.3651  0.0862
    2SAPS   H4X  222   3.169   0.336  10.028  0.7930 -0.6634 -0.8075
    2SAPS   H4Y  223   3.007   0.385  10.073 -0.3853 -0.3683  0.2430
    2SAPS   C35  224   3.027   0.205   9.947 -0.1569  0.2797  0.5313
    2SAPS   H5X  225   2.932   0.155   9.977  0.8212 -1.8029  0.3155
    2SAPS   H5Y  226   3.101   0.127   9.920  0.0543  0.8659 -0.6419
    2SAPS   C36  227   2.990   0.285   9.819 -0.0095 -0.1140 -0.2268
    2SAPS   H6X  228   2.910   0.360   9.836  0.7717  0.8281 -0.5958
    2SAPS   H6Y  229   2.959   0.204   9.750  0.0099  1.9851 -2.8429
    2SAPS   C37  230   3.103   0.361   9.756 -0.3399  0.4253  0.4758
    2SAPS   H7X  231   3.146   0.435   9.827  0.1935  0.1407  0.4592
    2SAPS   H7Y  232   3.069   0.419   9.668  2.7607  1.6903 -0.0526
    2SAPS   C38  233   3.218   0.281   9.698  0.8830  0.6288  0.2768
    2SAPS   H8X  234   3.259   0.211   9.774  0.0083  1.4121  1.5090
    2SAPS   H8Y  235   3.300   0.348   9.663  2.0118 -1.3086 -0.9519
    2SAPS   C39  236   3.174   0.188   9.577  0.1036 -0.2989 -0.0906
    2SAPS   H9X  237   3.136   0.261   9.502  1.8411  0.7150 -0.0528
    2SAPS   H9Y  238   3.093   0.117   9.604  0.0153 -0.1910 -0.0745
    2SAPS  C310  239   3.294   0.117   9.514  0.2775 -0.1984  0.1150
    2SAPS  H10X  240   3.357   0.065   9.589  1.2235  0.1610 -0.4122
    2SAPS  H10Y  241   3.353   0.181   9.446 -0.8777 -1.2410 -1.9635
    2SAPS  C311  242   3.246   0.001   9.429 -0.0610  0.2273  1.1938
    2SAPS  H11X  243   3.190  -0.074   9.489  0.3325 -1.1296 -0.0655
    2SAPS  H11Y  244   3.324  -0.068   9.391  0.7643  2.7151 -2.1668
    2SAPS  C312  245   3.178   0.041   9.298 -0.1654  0.3259  0.6278
    2SAPS  H12X  246   3.239   0.112   9.239  2.5033 -1.5782  0.9487
    2SAPS  H12Y  247   3.084   0.098   9.317  0.4664  1.9075 -0.7583
    2SAPS  C313  248   3.167  -0.084   9.205  0.0239  0.3238  0.3955
    2SAPS  H13X  249   3.100  -0.162   9.247  0.8519 -1.0337 -0.7066
    2SAPS  H13Y  250   3.268  -0.129   9.192  0.5392  1.6158 -0.2767
    2SAPS  C314  251   3.102  -0.049   9.071 -0.4024  0.1526 -0.6168
    2SAPS  H14X  252   3.182   0.019   9.033  0.9753 -1.0126  0.0813
    2SAPS  H14Y  253   3.012   0.010   9.097 -0.3084  0.1481 -0.2714
    2SAPS  C315  254   3.054  -0.165   8.985  0.3952 -0.3436  0.6615
    2SAPS  H15X  255   2.979  -0.226   9.041 -2.9282  1.7471 -1.1668
    2SAPS  H15Y  256   3.141  -0.229   8.958 -0.5926 -1.4265 -0.0778
    2SAPS  C316  257   2.983  -0.119   8.853 -0.2887 -0.1637  0.7614
    2SAPS  H16X  258   3.048  -0.036   8.818 -0.9304 -0.6878 -1.8701
    2SAPS  H16Y  259   2.885  -0.083   8.889 -0.2664 -0.1654  0.8230
    2SAPS  C317  260   2.981  -0.226   8.737 -0.0404  0.6872 -0.3684
    2SAPS  H17X  261   3.088  -0.247   8.716 -0.6525 -1.5324 -1.5635
    2SAPS  H17Y  262   2.961  -0.193   8.633  0.3276 -4.6558 -2.4924
    2SAPS  C318  263   2.893  -0.349   8.766 -0.3905  0.7575  0.6423
    2SAPS  H18X  264   2.895  -0.415   8.677 -1.5846 -0.5949  1.5912
    2SAPS  H18Y  265   2.788  -0.321   8.788 -0.0332  1.2340  1.8100
    2SAPS  H18Z  266   2.939  -0.406   8.849 -1.1795 -0.4317  0.2793
    3SAPS     N  267   2.729   1.353  11.192  0.9843 -0.2403  0.1827
    3SAPS   HN1  268   2.759   1.306  11.280 -2.0206 -1.9754  0.4282
    3SAPS   HN2  269   2.700   1.452  11.208  1.3104 -0.4597  2.6065
    3SAPS   HN3  270   2.663   1.301  11.130 -1.0295  1.2547  0.9468
    3SAPS   C12  271   2.855   1.356  11.113 -0.2219  0.3300  0.0800
    3SAPS  H12A  272   2.926   1.390  11.188 -1.8424 -0.6826  2.1942
    3SAPS   C13  273   2.908   1.222  11.059  0.3520  0.3624 -0.1707
    3SAPS  O13A  274   2.846   1.118  11.088  0.6852  0.1639  0.1033
    3SAPS  O13B  275   2.992   1.221  10.960  0.5129  0.7271 -0.1728
    3SAPS   C11  276   2.833   1.452  10.992  0.1672  0.1756  0.0749
    3SAPS  H11A  277   2.788   1.400  10.905  0.5269  0.4119 -0.2585
    3SAPS  H11B  278   2.932   1.478  10.949  0.2187 -1.1633 -0.6684
    3SAPS     P  279   2.715   1.669  10.921 -0.4333 -0.1689  0.0173
    3SAPS   O13  280   2.571   1.638  10.897  0.3027 -0.7274 -0.0450
    3SAPS   O14  281   2.756   1.803  10.960 -0.3930 -0.1293 -0.0674
    3SAPS   O12  282   2.766   1.578  11.035 -0.1403 -0.3416  0.1117
    3SAPS   O11  283   2.800   1.623  10.799  0.4711  0.3343  0.1583
    3SAPS    C1  284   2.936   1.661  10.771 -0.2074 -0.0290 -0.1828
    3SAPS    HA  285   2.990   1.721  10.848 -0.0019 -0.7980  0.2837
    3SAPS    HB  286   2.990   1.564  10.767  4.1040  2.0461  1.1199
    3SAPS    C2  287   2.939   1.747  10.637  1.2593  0.9522 -0.1574
    3SAPS    HS  288   2.884   1.838  10.669 -0.5998 -0.1517 -0.0799
    3SAPS   O21  289   2.876   1.668  10.530 -0.2399  0.3830  0.8004
    3SAPS   C21  290   2.809   1.740  10.445  0.3114 -0.2364  0.2772
    3SAPS   O22  291   2.791   1.863  10.457  0.1099 -0.5007  0.0133
    3SAPS   C22  292   2.739   1.651  10.350  0.6008  1.1399 -0.1469
    3SAPS   H2R  293   2.779   1.547  10.349 -0.7535  0.5248  2.0594
    3SAPS   H2S  294   2.631   1.633  10.366  0.9832 -1.2743  0.1812
    3SAPS    C3  295   3.083   1.771  10.603  0.6237 -0.0202 -0.1628
    3SAPS    HX  296   3.130   1.672  10.589 -1.4848 -1.3912  1.7982
    3SAPS    HY  297   3.123   1.826  10.691  2.1313  1.2484 -1.5760
    3SAPS   O31  298   3.101   1.844  10.483  0.0787 -0.2641  0.0859
    3SAPS   C31  299   3.110   1.983  10.497  0.0067 -0.3659  0.6584
    3SAPS   O32  300   3.073   2.043  10.593 -0.0092 -0.4448 -0.2841
    3SAPS   C32  301   3.162   2.048  10.368  0.4192 -0.2738  0.5567
    3SAPS   H2X  302   3.174   1.975  10.286 -0.5640  0.4295 -0.2397
    3SAPS   H2Y  303   3.254   2.079  10.421  0.3604 -1.6719  1.5118
    3SAPS   C23  304   2.741   1.701  10.197  0.7344 -0.4366  0.4026
    3SAPS   H3R  305   2.686   1.797  10.188  1.6873  0.4845  3.2900
    3SAPS   H3S  306   2.696   1.621  10.135 -0.3600 -0.2135  0.8975
    3SAPS   C24  307   2.879   1.741  10.149 -0.7545  0.4027  0.0850
    3SAPS   H4R  308   2.917   1.818  10.219 -2.5700 -0.3420  2.0220
    3SAPS   H4S  309   2.872   1.794  10.052  2.1705  1.9673  0.6193
    3SAPS   C25  310   2.981   1.637  10.139 -0.2942 -0.4248  0.4916
    3SAPS   H5R  311   3.045   1.625  10.228 -0.9733  0.4941  1.1222
    3SAPS   C26  312   3.027   1.570  10.029 -0.5102  0.3757 -0.0943
    3SAPS   H6R  313   3.106   1.494  10.041  0.3328  1.3462  0.7148
    3SAPS   C27  314   2.974   1.578   9.890 -0.5927 -0.1795  0.5084
    3SAPS   H7R  315   2.903   1.664   9.888  0.4357  0.7801  2.5010
    3SAPS   H7S  316   2.907   1.491   9.873 -1.6416  0.2941  2.0172
    3SAPS   C28  317   3.068   1.597   9.773  0.5568  0.6517  0.2354
    3SAPS   H8R  318   3.173   1.577   9.797  0.4181 -1.0550 -0.4192
    3SAPS   C29  319   3.035   1.608   9.640  0.3033  0.0208 -0.1973
    3SAPS   H9R  320   3.114   1.631   9.568 -0.0602  0.4423 -0.4652
    3SAPS  C210  321   2.895   1.632   9.593 -0.3012  0.5031  0.6344
    3SAPS  H10R  322   2.893   1.729   9.539  1.4275 -0.5631 -1.5071
    3SAPS  H10S  323   2.818   1.639   9.673 -0.7726 -0.8195  0.3363
    3SAPS  C211  324   2.871   1.513   9.498  0.2995 -0.9385 -0.5164
    3SAPS  H11R  325   2.860   1.413   9.541  1.4694 -0.0753  1.9916
    3SAPS  C212  326   2.851   1.518   9.365  0.0620  0.3144 -0.4846
    3SAPS  H12R  327   2.811   1.424   9.323 -2.5550  1.0149  0.2920
    3SAPS  C213  328   2.864   1.638   9.276  0.0395 -0.0842 -0.7068
    3SAPS  H13R  329   2.878   1.729   9.339 -1.5598 -0.3713  0.0982
    3SAPS  H13S  330   2.773   1.639   9.213  0.3155 -0.6674 -1.1299
    3SAPS  C214  331   2.978   1.621   9.179 -0.3477 -0.0490  0.1363
    3SAPS  H14R  332   3.065   1.587   9.235 -0.7987 -0.7112  0.4499
    3SAPS  C215  333   2.984   1.625   9.042  0.2342  1.0829 -0.1930
    3SAPS  H15R  334   3.083   1.603   9.001 -0.1009  1.1640 -1.0726
    3SAPS  C216  335   2.870   1.648   8.951  0.4510 -0.7552 -0.2396
    3SAPS  H16R  336   2.781   1.586   8.976 -0.7462 -0.7705 -3.9601
    3SAPS  H16S  337   2.892   1.612   8.848 -0.5351 -0.3329 -0.6135
    3SAPS  C217  338   2.816   1.792   8.943  0.6730 -0.0992 -0.5471
    3SAPS  H17R  339   2.902   1.861   8.926 -0.0902  0.3229 -2.9566
    3SAPS  H17S  340   2.769   1.826   9.038  0.5612  2.1033 -1.3282
    3SAPS  C218  341   2.725   1.822   8.832 -0.3433 -0.0713 -0.0625
    3SAPS  H18R  342   2.694   1.928   8.829  0.6956  0.2635  0.5724
    3SAPS  H18S  343   2.627   1.769   8.842 -1.0692  0.8421 -1.8549
    3SAPS  C219  344   2.784   1.792   8.694 -0.3166  0.8046  0.6344
    3SAPS  H19R  345   2.702   1.817   8.624 -0.3718  0.0995  0.4410
    3SAPS  H19S  346   2.808   1.690   8.658  2.4233  1.7349 -0.4959
    3SAPS  C220  347   2.901   1.888   8.651  0.0624  0.1467 -0.7446
    3SAPS  H20R  348   2.989   1.892   8.718 -0.3084  0.3958 -0.2732
    3SAPS  H20S  349   2.860   1.991   8.658  1.0126  0.5194 -0.5620
    3SAPS  H20T  350   2.936   1.866   8.548 -1.7606  0.5689 -1.4937
    3SAPS   C33  351   3.093   2.183  10.334  0.5705 -0.0923  0.2247
    3SAPS   H3X  352   3.155   2.245  10.267 -1.5487  0.8824 -0.9537
    3SAPS   H3Y  353   3.091   2.243  10.427 -1.3840 -0.0238  0.1946
    3SAPS   C34  354   2.954   2.178  10.273  0.2520 -0.2008  0.1479
    3SAPS   H4X  355   2.937   2.288  10.267  1.4606 -0.0022  0.1331
    3SAPS   H4Y  356   2.878   2.125  10.335 -1.6009  2.6836  0.5244
    3SAPS   C35  357   2.956   2.109  10.137 -0.5939  0.4900  0.0899
    3SAPS   H5X  358   2.993   2.005  10.131  2.3210  1.4619 -0.3294
    3SAPS   H5Y  359   3.022   2.167  10.068  1.6761 -2.6808 -0.6466
    3SAPS   C36  360   2.823   2.105  10.070  0.1884 -0.1117  0.5867
    3SAPS   H6X  361   2.785   2.208  10.051 -3.0534 -1.4618 -0.9379
    3SAPS   H6Y  362   2.758   2.051  10.142  0.7849 -0.2506  1.0295
    3SAPS   C37  363   2.822   2.044   9.930  0.7821  0.0633 -0.3753
    3SAPS   H7X  364   2.725   1.992   9.915 -0.7236  1.9322  2.1305
    3SAPS   H7Y  365   2.905   1.970   9.922  1.2985  0.8057 -2.5551
    3SAPS   C38  366   2.857   2.142   9.817  0.0787  1.1713 -0.4496
    3SAPS   H8X  367   2.959   2.175   9.848  0.0924 -0.3714  1.3389
    3SAPS   H8Y  368   2.787   2.226   9.798 -1.0556 -0.1346 -2.4235
    3SAPS   C39  369   2.876   2.064   9.685  0.4099 -0.5422 -0.0724
    3SAPS   H9X  370   2.773   2.027   9.665  1.2338 -2.6004 -0.8176
    3SAPS   H9Y  371   2.937   1.971   9.699  0.0774 -0.4272  2.9226
    3SAPS  C310  372   2.920   2.142   9.562 -0.1611 -0.1400  0.0442
    3SAPS  H10X  373   3.029   2.165   9.557 -0.4013  1.4376  1.2013
    3SAPS  H10Y  374   2.878   2.244   9.550 -0.0626 -0.1006  0.0255
    3SAPS  C311  375   2.891   2.053   9.441  0.3134  0.1990 -0.0087
    3SAPS  H11X  376   2.783   2.025   9.445  0.3654  0.0351  0.3046
    3SAPS  H11Y  377   2.945   1.958   9.460 -1.2045 -0.4130  1.5912
    3SAPS  C312  378   2.934   2.111   9.307  0.0374  0.2028  0.4885
    3SAPS  H12X  379   2.887   2.211   9.293 -4.0552 -1.5198  0.2553
    3SAPS  H12Y  380   2.891   2.049   9.226 -1.0581 -0.7898  1.7809
    3SAPS  C313  381   3.093   2.114   9.270 -0.0119  0.2638 -1.4747
    3SAPS  H13X  382   3.148   2.057   9.347 -1.3019 -3.8631 -3.3516
    3SAPS  H13Y  383   3.133   2.218   9.280  0.4571 -0.1182  1.5007
    3SAPS  C314  384   3.126   2.061   9.131  0.7839 -0.2392  0.4586
    3SAPS  H14X  385   3.095   1.955   9.121  0.4474 -0.0826 -0.1874
    3SAPS  H14Y  386   3.234   2.070   9.103  0.3771  0.7259 -0.8887
    3SAPS  C315  387   3.046   2.148   9.023 -0.1121  0.2960 -0.2947
    3SAPS  H15X  388   3.045   2.254   9.059 -1.5315  0.2718 -0.2205
    3SAPS  H15Y  389   2.939   2.120   9.015  0.2221 -1.5429  1.0897
    3SAPS  C316  390   3.097   2.141   8.879  0.2103 -0.2748 -0.1258
    3SAPS  H16X  391   3.030   2.203   8.815 -0.2818  0.1770  0.8185
    3SAPS  H16Y  392   3.086   2.035   8.845 -3.6758  0.0951 -0.5036
    3SAPS  C317  393   3.239   2.194   8.850  0.0526  1.1267  0.7249
    3SAPS  H17X  394   3.311   2.138   8.914 -1.4825 -0.5310  1.0781
    3SAPS  H17Y  395   3.242   2.304   8.862  4.3422  1.3017 -0.2811
    3SAPS  C318  396   3.287   2.163   8.709  0.7168  0.2088  0.3073
    3SAPS  H18X  397   3.398   2.169   8.708  0.6837  1.1322 -0.8004
    3SAPS  H18Y  398   3.243   2.235   8.636  0.4018 -0.8767 -0.6099
    3SAPS  H18Z  399   3.254   2.060   8.686 -0.3466  0.7151 -0.5842
    4SAPS     N  400   4.163   3.289  10.645 -0.0009 -0.0521 -0.3305
    4SAPS   HN1  401   4.171   3.367  10.577  0.8877  0.9167  0.8427
    4SAPS   HN2  402   4.197   3.199  10.605 -0.7192 -0.5543  0.1528
    4SAPS   HN3  403   4.063   3.280  10.673 -0.6066 -1.1818 -2.6485
    4SAPS   C12  404   4.251   3.304  10.768 -0.9814 -0.9356  0.8894
    4SAPS  H12A  405   4.198   3.364  10.839  1.9432  3.0221  0.1074
    4SAPS   C13  406   4.300   3.179  10.839  0.5932 -0.4796 -0.0833
    4SAPS  O13A  407   4.268   3.070  10.791  0.4690  0.0930  0.4689
    4SAPS  O13B  408   4.376   3.191  10.940  0.3143 -0.1873  0.2238
    4SAPS   C11  409   4.382   3.372  10.723 -0.0606 -0.0490  0.0968
    4SAPS  H11A  410   4.447   3.308  10.659  0.0172 -1.2364  1.3247
    4SAPS  H11B  411   4.452   3.390  10.807  0.9835  0.5008 -0.8589
    4SAPS     P  412   4.450   3.577  10.582  0.5550 -0.2860  0.3500
    4SAPS   O13  413   4.409   3.718  10.581  0.4802 -0.2593  0.4397
    4SAPS   O14  414   4.588   3.551  10.629 -0.8726  0.0730 -0.4601
    4SAPS   O12  415   4.358   3.510  10.682 -0.0034  0.1838  0.0904
    4SAPS   O11  416   4.415   3.502  10.442 -0.4555  0.1331  0.4183
    4SAPS    C1  417   4.482   3.534  10.316  0.0886  0.0019  0.4657
    4SAPS    HA  418   4.506   3.642  10.308 -0.9020  0.1371 -0.9108
    4SAPS    HB  419   4.579   3.479  10.316  0.7889  1.1862 -1.1839
    4SAPS    C2  420   4.396   3.510  10.188 -0.5198  0.2733  0.4099
    4SAPS    HS  421   4.446   3.558  10.102  1.0222  0.5249  1.4174
    4SAPS   O21  422   4.256   3.552  10.205 -0.7400 -0.0047 -0.3024
    4SAPS   C21  423   4.246   3.687  10.224 -0.5358 -0.4842 -0.0714
    4SAPS   O22  424   4.337   3.767  10.196  0.1352 -0.3348  0.2936
    4SAPS   C22  425   4.121   3.733  10.291  0.1567 -0.3633 -0.0310
    4SAPS   H2R  426   4.040   3.663  10.261  0.1415 -1.0868  1.5930
    4SAPS   H2S  427   4.138   3.741  10.400 -1.0904  1.2979  0.0751
    4SAPS    C3  428   4.402   3.360  10.141  0.5794 -0.2540  0.4314
    4SAPS    HX  429   4.367   3.296  10.224 -0.2342  0.0606  0.3361
    4SAPS    HY  430   4.510   3.338  10.122  0.4183 -1.1070  0.4809
    4SAPS   O31  431   4.326   3.341  10.013  0.0175 -0.8253 -1.2969
    4SAPS   C31  432   4.211   3.284  10.029  0.3283 -0.2312  0.3378
    4SAPS   O32  433   4.146   3.272  10.130  0.0651  0.2250 -0.5422
    4SAPS   C32  434   4.158   3.245   9.895 -0.1629 -0.0283  1.1181
    4SAPS   H2X  435   4.240   3.249   9.821 -0.1222 -0.0337  1.1629
    4SAPS   H2Y  436   4.096   3.329   9.854 -1.5963 -1.4810  0.1530
    4SAPS   C23  437   4.083   3.874  10.243 -0.3544 -0.5305 -0.1141
    4SAPS   H3R  438   4.069   3.869  10.132 -1.4517  1.7074 -0.1338
    4SAPS   H3S  439   4.171   3.940  10.259 -0.1727 -0.6100 -0.7392
    4SAPS   C24  440   3.954   3.940  10.306  0.7495 -0.5450 -0.2775
    4SAPS   H4R  441   3.954   4.044  10.264  2.0683  0.6768  2.5107
    4SAPS   H4S  442   3.960   3.941  10.417 -1.9559 -2.3175 -0.0209
    4SAPS   C25  443   3.827   3.859  10.286 -0.0783  0.4041 -0.4833
    4SAPS   H5R  444   3.807   3.797  10.374  1.0079  0.6278 -0.0665
    4SAPS   C26  445   3.739   3.864  10.181 -0.0744  0.0661  0.0050
    4SAPS   H6R  446   3.650   3.800  10.177  0.0076  0.0151 -1.9549
    4SAPS   C27  447   3.756   3.949  10.055 -0.4573 -0.1981 -0.3677
    4SAPS   H7R  448   3.758   3.883   9.965  0.8040 -0.0486 -0.4641
    4SAPS   H7S  449   3.862   3.981  10.057 -0.4991 -0.1114  1.2268
    4SAPS   C28  450   3.640   4.050  10.036 -0.8282  1.1828  0.4930
    4SAPS   H8R  451   3.594   4.094  10.125 -1.1747  0.6731  0.5705
    4SAPS   C29  452   3.590   4.095   9.919  0.1784 -0.3552 -0.1122
    4SAPS   H9R  453   3.509   4.170   9.925  0.1376 -0.3721 -0.4313
    4SAPS  C210  454   3.632   4.063   9.781 -0.3294 -0.5671 -0.0491
    4SAPS  H10R  455   3.712   3.987   9.783  0.3125  0.1088  0.3203
    4SAPS  H10S  456   3.671   4.159   9.741  1.7682 -2.0596 -1.7926
    4SAPS  C211  457   3.505   4.026   9.708 -0.0948  0.3355  0.0678
    4SAPS  H11R  458   3.433   4.109   9.695 -1.1673 -0.4427  0.8549
    4SAPS  C212  459   3.485   3.906   9.654  0.2287  0.3299  0.2837
    4SAPS  H12R  460   3.392   3.893   9.597  1.0182  0.6107 -1.1095
    4SAPS  C213  461   3.574   3.783   9.645 -0.6843 -0.1284 -0.1006
    4SAPS  H13R  462   3.679   3.820   9.657 -1.5596  3.1652 -1.4516
    4SAPS  H13S  463   3.562   3.742   9.543  2.2216  0.9479 -0.9794
    4SAPS  C214  464   3.545   3.685   9.756  0.3892 -0.2004  0.1609
    4SAPS  H14R  465   3.521   3.727   9.855 -0.7237 -1.0323  0.2631
    4SAPS  C215  466   3.535   3.551   9.742  0.1572 -0.1913 -0.1364
    4SAPS  H15R  467   3.528   3.495   9.836 -0.3740 -1.5543 -0.9526
    4SAPS  C216  468   3.578   3.472   9.620  0.3230  0.2742 -0.3151
    4SAPS  H16R  469   3.632   3.387   9.668  0.5034  0.5219 -0.0776
    4SAPS  H16S  470   3.661   3.527   9.571  0.5621  0.1841 -0.0167
    4SAPS  C217  471   3.476   3.430   9.518  0.1958  0.2798 -0.2532
    4SAPS  H17R  472   3.388   3.497   9.529 -1.4248 -1.7751 -0.1978
    4SAPS  H17S  473   3.433   3.331   9.546 -2.5630  1.4143 -0.1315
    4SAPS  C218  474   3.529   3.432   9.371  0.7225 -0.1921  0.1532
    4SAPS  H18R  475   3.626   3.378   9.366  0.3391 -0.8065 -3.3487
    4SAPS  H18S  476   3.531   3.541   9.352 -2.1331  0.0327  0.6140
    4SAPS  C219  477   3.423   3.383   9.275  0.0282  0.1078 -0.3042
    4SAPS  H19R  478   3.333   3.446   9.290 -1.4193 -1.9455 -0.0073
    4SAPS  H19S  479   3.380   3.284   9.303 -1.6698  0.8226 -0.2807
    4SAPS  C220  480   3.463   3.382   9.126  0.3165  0.0725  0.0265
    4SAPS  H20R  481   3.383   3.348   9.057  1.6056 -1.6658 -0.6828
    4SAPS  H20S  482   3.551   3.315   9.112  0.8749  0.9857 -1.0682
    4SAPS  H20T  483   3.491   3.487   9.100  1.4375  0.0532  1.0693
    4SAPS   C33  484   4.078   3.110   9.897 -0.1871  0.1847  0.0422
    4SAPS   H3X  485   4.004   3.115   9.979 -1.6164  1.9624 -1.2642
    4SAPS   H3Y  486   4.135   3.017   9.919 -1.1682 -0.4195  0.0936
    4SAPS   C34  487   3.987   3.086   9.775  0.2325 -0.1326 -0.0689
    4SAPS   H4X  488   3.903   3.157   9.764 -1.6709 -2.2633 -0.1133
    4SAPS   H4Y  489   3.934   2.989   9.783 -0.0144  0.0115  0.0274
    4SAPS   C35  490   4.067   3.075   9.643  0.0907 -0.0907 -0.2411
    4SAPS   H5X  491   4.141   2.993   9.654 -1.9894 -1.8779  1.4977
    4SAPS   H5Y  492   4.115   3.172   9.621 -0.4864 -0.0066 -1.1663
    4SAPS   C36  493   3.977   3.030   9.527  0.1851 -0.0324  0.3571
    4SAPS   H6X  494   3.892   3.100   9.514  1.1122  0.8736 -1.1724
    4SAPS   H6Y  495   3.931   2.930   9.546  1.2643 -1.1058 -2.1239
    4SAPS   C37  496   4.054   3.012   9.397 -0.5948 -0.2969 -0.5775
    4SAPS   H7X  497   3.986   2.957   9.328 -1.2065 -0.0446 -0.1856
    4SAPS   H7Y  498   4.146   2.950   9.405 -0.8117 -0.4326  1.4160
    4SAPS   C38  499   4.118   3.145   9.344 -0.8975  0.1453  0.7058
    4SAPS   H8X  500   4.176   3.110   9.256 -0.8782  3.9107 -0.9742
    4SAPS   H8Y  501   4.186   3.197   9.415 -0.7999  0.0482  0.6833
    4SAPS   C39  502   4.015   3.243   9.298 -0.0396 -0.2312  0.7064
    4SAPS   H9X  503   3.944   3.267   9.380 -0.6013  0.1277  0.1276
    4SAPS   H9Y  504   3.949   3.206   9.217 -1.7604 -0.8345  2.3307
    4SAPS  C310  505   4.084   3.377   9.245  0.9602  0.0794  0.5178
    4SAPS  H10X  506   4.170   3.409   9.309  0.2263  0.3371  1.4018
    4SAPS  H10Y  507   4.007   3.454   9.228  1.8525  0.2715 -3.7012
    4SAPS  C311  508   4.130   3.342   9.096 -0.5194  0.4847 -0.1721
    4SAPS  H11X  509   4.029   3.341   9.051 -0.5795 -0.3053 -0.0278
    4SAPS  H11Y  510   4.177   3.242   9.090 -0.1670  0.2642  3.9766
    4SAPS  C312  511   4.229   3.451   9.035  1.1960  0.4629  1.0946
    4SAPS  H12X  512   4.328   3.440   9.084  2.0166 -0.5055 -0.6688
    4SAPS  H12Y  513   4.193   3.547   9.078  0.3537 -0.6223  2.9276
    4SAPS  C313  514   4.242   3.458   8.876  0.1514  0.9548 -0.1365
    4SAPS  H13X  515   4.305   3.549   8.862 -0.4875  2.0274  3.0811
    4SAPS  H13Y  516   4.145   3.482   8.827  0.4602  1.0024 -0.7344
    4SAPS  C314  517   4.302   3.339   8.809 -0.6603  0.2461  0.0820
    4SAPS  H14X  518   4.287   3.344   8.699 -1.3528 -2.4783 -0.0338
    4SAPS  H14Y  519   4.255   3.244   8.844 -0.2576  0.1147  0.2725
    4SAPS  C315  520   4.451   3.328   8.829 -1.0367  0.7376  0.1155
    4SAPS  H15X  521   4.463   3.310   8.938  1.3337 -0.9659 -0.3562
    4SAPS  H15Y  522   4.506   3.417   8.792 -0.9358  1.0280  0.9407
    4SAPS  C316  523   4.504   3.213   8.746 -0.0449 -0.0257 -0.2036
    4SAPS  H16X  524   4.462   3.213   8.643 -0.2132 -1.6825 -0.1749
    4SAPS  H16Y  525   4.473   3.112   8.781  0.0641 -0.0240 -0.1010
    4SAPS  C317  526   4.657   3.214   8.736 -0.1581 -0.1182 -0.2735
    4SAPS  H17X  527   4.681   3.202   8.844 -1.0970  1.3322  0.1087
    4SAPS  H17Y  528   4.700   3.306   8.692 -0.2551 -0.7345 -1.7038
    4SAPS  C318  529   4.716   3.087   8.665  0.4126  0.2931  0.1996
    4SAPS  H18X  530   4.826   3.081   8.678  0.4806 -0.7424 -0.7317
    4SAPS  H18Y  531   4.702   3.096   8.555 -1.5135  1.6516  0.4969
    4SAPS  H18Z  532   4.674   2.994   8.709 -0.1065  0.7229  0.6390
    5SAPS     N  533   2.336   1.764  10.841  0.0662  0.0122  0.0685
    5SAPS   HN1  534   2.423   1.722  10.880  0.3910 -2.0704 -2.6252
    5SAPS   HN2  535   2.269   1.687  10.822  1.0723 -0.5948 -1.1525
    5SAPS   HN3  536   2.360   1.792  10.744 -1.1410  0.8218 -0.0110
    5SAPS   C12  537   2.282   1.877  10.920  0.4583 -0.4989 -0.1915
    5SAPS  H12A  538   2.176   1.884  10.900  0.5831 -1.8305 -1.5457
    5SAPS   C13  539   2.280   1.868  11.080  0.0912 -0.9630 -0.0931
    5SAPS  O13A  540   2.321   1.763  11.134 -0.1251 -0.3183  0.1614
    5SAPS  O13B  541   2.256   1.976  11.137  0.2069 -0.4668 -0.2019
    5SAPS   C11  542   2.363   2.003  10.877  0.3110  0.0233  0.2194
    5SAPS  H11A  543   2.470   1.995  10.905  1.0483 -0.9422 -2.5317
    5SAPS  H11B  544   2.320   2.094  10.925 -1.0196  0.4812 -1.7221
    5SAPS     P  545   2.240   2.124  10.667 -0.1387 -0.0117 -0.0893
    5SAPS   O13  546   2.142   2.175  10.765 -0.2655  0.9073 -0.3971
    5SAPS   O14  547   2.319   2.219  10.593  0.0923 -0.4095 -0.2097
    5SAPS   O12  548   2.341   2.015  10.735 -0.2340 -0.6602  0.0767
    5SAPS   O11  549   2.169   2.031  10.574 -0.1183  0.2641  0.4483
    5SAPS    C1  550   2.204   1.992  10.437  0.0560  0.4567 -0.3746
    5SAPS    HA  551   2.314   1.991  10.423  0.1731  2.6315  0.0012
    5SAPS    HB  552   2.182   1.885  10.419 -1.7823  0.8324 -0.5267
    5SAPS    C2  553   2.139   2.084  10.330  0.5498 -0.3259  0.4606
    5SAPS    HS  554   2.138   2.025  10.236  0.1010 -2.6000  1.8144
    5SAPS   O21  555   2.208   2.208  10.309  0.0574 -0.3293  0.1314
    5SAPS   C21  556   2.316   2.197  10.237 -0.8823 -0.9800 -0.6985
    5SAPS   O22  557   2.369   2.095  10.193  0.2682 -0.1001 -0.0350
    5SAPS   C22  558   2.371   2.342  10.199  0.1567  0.1869 -0.1346
    5SAPS   H2R  559   2.286   2.406  10.169  0.2448 -0.6218 -2.3082
    5SAPS   H2S  560   2.412   2.380  10.295 -1.4277 -0.5754  0.8937
    5SAPS    C3  561   1.993   2.112  10.369 -0.7340 -0.5055 -0.4466
    5SAPS    HX  562   1.993   2.171  10.463  0.8099 -0.2618 -0.5693
    5SAPS    HY  563   1.940   2.017  10.389 -0.6986 -0.8340 -1.8337
    5SAPS   O31  564   1.926   2.174  10.255  1.2049 -0.2651  0.6323
    5SAPS   C31  565   1.851   2.279  10.266  0.3669 -0.7357  0.2770
    5SAPS   O32  566   1.829   2.336  10.371  0.5101 -0.3459  0.5318
    5SAPS   C32  567   1.792   2.313  10.126  0.5157  0.2349 -0.4437
    5SAPS   H2X  568   1.771   2.422  10.134 -0.7544 -0.0340  0.0327
    5SAPS   H2Y  569   1.703   2.248  10.117 -0.0572  1.0638 -0.8700
    5SAPS   C23  570   2.482   2.326  10.088 -0.2422 -0.7790  0.3881
    5SAPS   H3R  571   2.452   2.267   9.999  3.1305 -0.3334 -1.1749
    5SAPS   H3S  572   2.575   2.282  10.127  0.6120 -0.1072 -0.8279
    5SAPS   C24  573   2.533   2.466  10.038 -0.2464  0.0430 -0.0241
    5SAPS   H4R  574   2.562   2.519  10.131 -1.4044  0.1299  0.3025
    5SAPS   H4S  575   2.451   2.523   9.989 -0.2306 -0.5007 -0.7005
    5SAPS   C25  576   2.658   2.458   9.950  0.1338  0.6233 -0.8160
    5SAPS   H5R  577   2.748   2.439  10.012 -1.4258  2.4995  2.2589
    5SAPS   C26  578   2.659   2.462   9.814 -0.1484  0.3919  0.0295
    5SAPS   H6R  579   2.759   2.484   9.774  1.6209 -0.1140  3.8117
    5SAPS   C27  580   2.537   2.480   9.728  0.2880 -0.2835  0.2691
    5SAPS   H7R  581   2.492   2.581   9.728  0.9479  0.0327  1.9177
    5SAPS   H7S  582   2.456   2.410   9.755 -0.1347  0.5354  1.1492
    5SAPS   C28  583   2.579   2.446   9.583 -0.1468  0.3551  0.4310
    5SAPS   H8R  584   2.673   2.391   9.574 -0.4262 -0.3473  1.5551
    5SAPS   C29  585   2.512   2.486   9.473  0.2916 -0.1051 -0.6404
    5SAPS   H9R  586   2.553   2.454   9.376 -0.6322 -1.4260 -0.6173
    5SAPS  C210  587   2.385   2.568   9.455 -0.1438 -0.3596  0.0410
    5SAPS  H10R  588   2.425   2.662   9.411  1.6072 -2.0718 -2.2701
    5SAPS  H10S  589   2.341   2.603   9.551 -0.7872 -1.3924  0.1310
    5SAPS  C211  590   2.276   2.511   9.369 -0.3599  0.9525 -0.6353
    5SAPS  H11R  591   2.223   2.422   9.406  1.2440 -0.0014 -0.5384
    5SAPS  C212  592   2.235   2.547   9.249  0.3633  0.6621  0.3957
    5SAPS  H12R  593   2.135   2.508   9.224  0.2491 -0.1341  1.9837
    5SAPS  C213  594   2.285   2.656   9.157 -0.7126 -0.3152 -0.1482
    5SAPS  H13R  595   2.283   2.752   9.214 -1.3589 -0.6980  0.4901
    5SAPS  H13S  596   2.210   2.673   9.076 -0.7674  3.7508  0.5217
    5SAPS  C214  597   2.418   2.626   9.094 -0.0725  0.2012  0.0678
    5SAPS  H14R  598   2.477   2.548   9.145 -0.4317  0.5033  0.9592
    5SAPS  C215  599   2.459   2.658   8.969 -0.2348 -0.1138 -1.0869
    5SAPS  H15R  600   2.566   2.645   8.949 -0.0997  0.4063 -0.7255
    5SAPS  C216  601   2.387   2.739   8.873 -0.5572 -0.6686  0.0608
    5SAPS  H16R  602   2.363   2.836   8.924 -0.3813  0.0613 -1.2157
    5SAPS  H16S  603   2.310   2.677   8.822  0.4701 -1.2694 -0.7785
    5SAPS  C217  604   2.473   2.796   8.758 -0.3866 -0.1853  0.3004
    5SAPS  H17R  605   2.425   2.886   8.715 -0.0290  0.1646  0.6283
    5SAPS  H17S  606   2.476   2.715   8.681 -2.9689 -0.8326  0.7747
    5SAPS  C218  607   2.611   2.854   8.802 -0.0111  0.4521  0.3529
    5SAPS  H18R  608   2.598   2.920   8.890  0.7500 -0.0296  0.8370
    5SAPS  H18S  609   2.664   2.764   8.838 -2.6393 -1.3927 -0.1063
    5SAPS  C219  610   2.690   2.928   8.689  0.2135 -0.4295  0.1048
    5SAPS  H19R  611   2.647   3.028   8.666  0.8003 -0.2011 -0.0133
    5SAPS  H19S  612   2.696   2.862   8.600  0.0755  0.4965 -0.6046
    5SAPS  C220  613   2.841   2.943   8.714 -0.4643  0.3908  0.8720
    5SAPS  H20R  614   2.893   2.987   8.627  1.6928  0.5234  2.1568
    5SAPS  H20S  615   2.882   2.841   8.727  1.3775  0.6862 -1.8148
    5SAPS  H20T  616   2.877   3.008   8.797  3.8444  0.3168 -0.7115
    5SAPS   C33  617   1.871   2.290   9.998 -0.0423 -0.3814  0.0355
    5SAPS   H3X  618   1.880   2.179  10.001 -0.6369 -0.4530 -0.7796
    5SAPS   H3Y  619   1.975   2.327  10.012  0.4024 -2.1115  1.7561
    5SAPS   C34  620   1.793   2.341   9.873  0.5438 -0.0288 -0.0311
    5SAPS   H4X  621   1.775   2.450   9.886 -0.9925 -0.2023 -0.4985
    5SAPS   H4Y  622   1.690   2.301   9.878  0.4987  0.2512  2.1161
    5SAPS   C35  623   1.849   2.309   9.734 -0.3199 -0.4582  0.7109
    5SAPS   H5X  624   1.886   2.207   9.709  0.2160  0.0235 -0.5177
    5SAPS   H5Y  625   1.941   2.368   9.715 -0.1041 -1.2657 -0.9461
    5SAPS   C36  626   1.748   2.349   9.632  1.0892  0.4464  0.6544
    5SAPS   H6X  627   1.724   2.457   9.623  0.3899  0.2271 -0.3239
    5SAPS   H6Y  628   1.656   2.288   9.649  1.6226 -0.0285  1.9517
    5SAPS   C37  629   1.802   2.307   9.496  0.5384 -0.1053 -0.2886
    5SAPS   H7X  630   1.843   2.204   9.500 -0.5890 -0.5353  0.6321
    5SAPS   H7Y  631   1.886   2.374   9.466  0.4102 -0.8803 -2.6424
    5SAPS   C38  632   1.707   2.319   9.377 -0.2102  1.1052 -0.7627
    5SAPS   H8X  633   1.684   2.426   9.356 -0.4320  0.9527 -1.3409
    5SAPS   H8Y  634   1.611   2.266   9.392  1.5498 -1.6422  2.0197
    5SAPS   C39  635   1.784   2.264   9.249  0.3015  0.8054 -0.5163
    5SAPS   H9X  636   1.788   2.153   9.254 -3.5760  0.5399  0.2106
    5SAPS   H9Y  637   1.886   2.307   9.241  0.3025  0.5289 -2.4800
    5SAPS  C310  638   1.696   2.292   9.125 -0.1777 -0.3723 -0.0631
    5SAPS  H10X  639   1.659   2.397   9.135  0.5684 -0.1338  0.2367
    5SAPS  H10Y  640   1.608   2.226   9.141 -0.0688 -0.2484  1.1863
    5SAPS  C311  641   1.756   2.276   8.983  0.0010  0.1257  0.5209
    5SAPS  H11X  642   1.672   2.280   8.910 -0.9154  0.2800  1.5565
    5SAPS  H11Y  643   1.812   2.182   8.966  0.6013  0.5261  0.2317
    5SAPS  C312  644   1.849   2.390   8.964  0.4054  0.0800  0.2431
    5SAPS  H12X  645   1.924   2.385   9.045 -1.0528 -1.2193  1.5859
    5SAPS  H12Y  646   1.786   2.481   8.963 -0.3307 -0.4259 -0.2082
    5SAPS  C313  647   1.920   2.378   8.826  0.0842  0.3742  0.1235
    5SAPS  H13X  648   1.842   2.364   8.748  0.3369  0.5441 -0.1613
    5SAPS  H13Y  649   1.974   2.281   8.836 -0.1330 -0.0516 -2.3649
    5SAPS  C314  650   2.016   2.491   8.794  0.0804 -0.2994  0.7223
    5SAPS  H14X  651   2.088   2.505   8.877  1.8472  2.6449 -1.1144
    5SAPS  H14Y  652   1.953   2.582   8.798 -0.8779 -0.7757 -1.7210
    5SAPS  C315  653   2.098   2.471   8.660  0.2394  0.1225  0.3046
    5SAPS  H15X  654   2.146   2.559   8.613  1.5120 -2.5276 -3.9668
    5SAPS  H15Y  655   2.020   2.446   8.585  1.2076 -3.1045  0.2111
    5SAPS  C316  656   2.196   2.353   8.668  0.6975  0.1736 -0.1766
    5SAPS  H16X  657   2.138   2.270   8.714  0.8176  0.0141 -0.3134
    5SAPS  H16Y  658   2.282   2.392   8.727  0.1766 -0.4285  1.0130
    5SAPS  C317  659   2.246   2.302   8.539  0.2625  0.3359 -0.0482
    5SAPS  H17X  660   2.161   2.298   8.468 -1.1981 -0.6574  1.6837
    5SAPS  H17Y  661   2.280   2.198   8.554 -0.4788  0.4713  3.5472
    5SAPS  C318  662   2.371   2.374   8.486 -0.1197  0.5242 -0.5197
    5SAPS  H18X  663   2.406   2.461   8.546  0.4927  1.3884 -2.0788
    5SAPS  H18Y  664   2.350   2.412   8.384 -3.2303 -1.3237 -0.6954
    5SAPS  H18Z  665   2.443   2.290   8.476  0.0547  0.7273 -0.9952
    6SAPS     N  666   1.802   3.045  10.914  0.6453 -0.5054 -0.1296
    6SAPS   HN1  667   1.893   3.055  10.964  0.3229 -1.0597  0.5945
    6SAPS   HN2  668   1.807   3.015  10.815 -0.2346  1.7603 -0.9047
    6SAPS   HN3  669   1.746   3.132  10.917  0.7620 -0.4427  1.5909
    6SAPS   C12  670   1.726   2.938  10.997 -0.1473 -0.8092  0.2669
    6SAPS  H12A  671   1.796   2.857  11.007 -1.0026 -1.2357  3.9220
    6SAPS   C13  672   1.686   3.007  11.135  0.2566  0.6988  0.3261
    6SAPS  O13A  673   1.719   3.126  11.164 -0.3374  0.2523 -0.4404
    6SAPS  O13B  674   1.667   2.921  11.220  0.3472 -0.5983 -1.0854
    6SAPS   C11  675   1.596   2.905  10.920 -0.3265 -0.6190  0.1924
    6SAPS  H11A  676   1.548   3.005  10.913  0.3327 -0.0474  2.8127
    6SAPS  H11B  677   1.532   2.834  10.977 -0.3458  1.6518  3.2487
    6SAPS     P  678   1.640   2.714  10.751 -0.6802  0.4742  0.0125
    6SAPS   O13  679   1.758   2.664  10.825 -0.5230 -0.0422  0.4367
    6SAPS   O14  680   1.515   2.641  10.775 -0.1128 -0.6077  0.1123
    6SAPS   O12  681   1.622   2.861  10.787 -0.3043 -0.2500  1.0601
    6SAPS   O11  682   1.679   2.731  10.594  0.3338  0.6234 -0.2847
    6SAPS    C1  683   1.601   2.666  10.498 -0.3920  0.0621 -0.1465
    6SAPS    HA  684   1.602   2.556  10.506 -0.0573  0.0798  0.0930
    6SAPS    HB  685   1.496   2.703  10.499 -0.5314 -0.0098 -3.0562
    6SAPS    C2  686   1.647   2.709  10.352 -0.3790  0.2718 -0.1717
    6SAPS    HS  687   1.751   2.673  10.335 -0.7616 -0.3627 -1.2187
    6SAPS   O21  688   1.633   2.845  10.319 -0.2838  0.2184  0.8224
    6SAPS   C21  689   1.735   2.923  10.337  0.1060 -0.1276  0.1585
    6SAPS   O22  690   1.839   2.899  10.391 -0.5998 -0.2677  0.2341
    6SAPS   C22  691   1.700   3.058  10.275 -0.2788 -0.1573 -0.5043
    6SAPS   H2R  692   1.601   3.057  10.223 -0.8861  1.9472  0.4976
    6SAPS   H2S  693   1.676   3.132  10.354 -0.2058 -0.5206 -0.1406
    6SAPS    C3  694   1.555   2.632  10.255 -0.1949 -0.3945  0.8512
    6SAPS    HX  695   1.448   2.653  10.273 -0.0399 -0.0561  1.3958
    6SAPS    HY  696   1.563   2.523  10.270  0.7088 -0.7404 -1.5630
    6SAPS   O31  697   1.593   2.657  10.115 -0.5225  0.0053 -0.0386
    6SAPS   C31  698   1.510   2.740  10.039  0.5368  0.4596  0.4121
    6SAPS   O32  699   1.420   2.804  10.088 -0.1685  0.0824  0.2420
    6SAPS   C32  700   1.559   2.748   9.897  0.6811 -0.5907 -0.5442
    6SAPS   H2X  701   1.534   2.652   9.847 -0.4736  0.3027 -1.7448
    6SAPS   H2Y  702   1.667   2.775   9.903  0.7614 -1.1833  1.9922
    6SAPS   C23  703   1.812   3.100  10.171  0.1397  0.1431  0.3720
    6SAPS   H3R  704   1.831   3.017  10.099 -0.6986  0.4740 -0.2457
    6SAPS   H3S  705   1.901   3.121  10.234 -0.2319 -0.0071  0.9518
    6SAPS   C24  706   1.769   3.227  10.099  0.5445  1.2041  0.2588
    6SAPS   H4R  707   1.709   3.288  10.170 -1.8065  0.0721 -0.6576
    6SAPS   H4S  708   1.689   3.195  10.030  2.6305  0.1983 -1.8244
    6SAPS   C25  709   1.884   3.307  10.037  0.2811  0.9554  0.8474
    6SAPS   H5R  710   1.965   3.346  10.100  1.7770 -1.1096  0.2881
    6SAPS   C26  711   1.902   3.335   9.907 -0.3049  0.2430 -0.4249
    6SAPS   H6R  712   1.992   3.391   9.876  0.4634 -0.7707 -0.0799
    6SAPS   C27  713   1.813   3.292   9.796  0.5640  0.0555  0.9600
    6SAPS   H7R  714   1.790   3.378   9.730 -0.7276 -0.4974  0.6503
    6SAPS   H7S  715   1.709   3.270   9.830  0.1557  1.6969  0.8431
    6SAPS   C28  716   1.855   3.158   9.734  0.2631 -0.0816 -0.0767
    6SAPS   H8R  717   1.877   3.075   9.803 -2.2175 -0.5941  0.1859
    6SAPS   C29  718   1.857   3.136   9.595 -0.0611  0.7567  0.3379
    6SAPS   H9R  719   1.886   3.033   9.571 -0.3935  0.3907  1.4634
    6SAPS  C210  720   1.826   3.236   9.489 -0.3549 -0.1427  0.5602
    6SAPS  H10R  721   1.906   3.314   9.496 -0.0944 -0.4291  0.8316
    6SAPS  H10S  722   1.734   3.292   9.515 -0.0920  0.0876  1.0268
    6SAPS  C211  723   1.824   3.165   9.354 -0.0068  0.5904  0.0891
    6SAPS  H11R  724   1.800   3.059   9.339  1.6410  0.4705 -2.2963
    6SAPS  C212  725   1.832   3.226   9.234  0.1740 -0.2576 -0.0266
    6SAPS  H12R  726   1.827   3.161   9.146 -3.6277 -2.1492  1.3366
    6SAPS  C213  727   1.853   3.379   9.220 -0.1736 -0.0977  0.5582
    6SAPS  H13R  728   1.945   3.399   9.162 -1.1731  0.5675 -0.8579
    6SAPS  H13S  729   1.863   3.428   9.320  0.7404  1.0932 -0.0879
    6SAPS  C214  730   1.744   3.450   9.152  0.3001  0.1317 -0.0344
    6SAPS  H14R  731   1.666   3.483   9.222  1.4889 -0.3776  1.5857
    6SAPS  C215  732   1.731   3.472   9.017 -0.0234 -0.4564  0.0516
    6SAPS  H15R  733   1.647   3.528   8.974 -1.2142 -1.4716  1.0042
    6SAPS  C216  734   1.818   3.410   8.905 -0.2900 -0.1254  0.0355
    6SAPS  H16R  735   1.758   3.326   8.865 -0.5995  0.7043 -1.3510
    6SAPS  H16S  736   1.916   3.375   8.943 -0.6268 -0.4472  0.6175
    6SAPS  C217  737   1.846   3.508   8.786 -0.2436 -0.5038  0.1585
    6SAPS  H17R  738   1.755   3.514   8.723 -0.1100 -1.5356 -0.1505
    6SAPS  H17S  739   1.924   3.463   8.722 -0.3823  1.4299 -1.4586
    6SAPS  C218  740   1.903   3.649   8.825  1.1889  0.0828  0.0266
    6SAPS  H18R  741   1.977   3.681   8.749 -1.0168  2.1723 -1.3691
    6SAPS  H18S  742   1.958   3.639   8.921  0.2930  0.8880  0.6547
    6SAPS  C219  743   1.798   3.763   8.847 -0.8470 -0.0560  0.7845
    6SAPS  H19R  744   1.728   3.744   8.931 -0.3097 -0.2087  1.2019
    6SAPS  H19S  745   1.739   3.768   8.753 -0.9988  0.8481  0.9198
    6SAPS  C220  746   1.860   3.900   8.882  0.4836 -0.2631  0.0776
    6SAPS  H20R  747   1.905   3.888   8.983 -0.1913  1.2039  0.5677
    6SAPS  H20S  748   1.778   3.975   8.891 -0.4738 -1.1064 -1.0952
    6SAPS  H20T  749   1.924   3.938   8.800 -0.4738  1.1654 -0.0338
    6SAPS   C33  750   1.480   2.854   9.823  0.7334 -0.0645 -0.6182
    6SAPS   H3X  751   1.478   2.952   9.877  0.3724 -0.3399 -0.1165
    6SAPS   H3Y  752   1.372   2.831   9.826  0.2403  2.0833 -0.4604
    6SAPS   C34  753   1.532   2.869   9.684  0.1359 -0.1876 -0.1330
    6SAPS   H4X  754   1.539   2.765   9.647  1.2501  0.3493 -1.5626
    6SAPS   H4Y  755   1.630   2.920   9.672 -0.7958  1.3977 -1.3723
    6SAPS   C35  756   1.439   2.953   9.598 -0.9742 -0.1701  0.4701
    6SAPS   H5X  757   1.444   3.058   9.635 -1.3774 -0.4680  1.3852
    6SAPS   H5Y  758   1.336   2.917   9.614 -1.3549  0.5889 -0.1806
    6SAPS   C36  759   1.473   2.957   9.448  0.0688  0.1680 -0.1135
    6SAPS   H6X  760   1.439   2.855   9.417 -2.0001 -0.0803  2.5845
    6SAPS   H6Y  761   1.582   2.951   9.425  0.6721 -1.8765  2.7831
    6SAPS   C37  762   1.395   3.073   9.385 -0.7914  0.6910  0.3836
    6SAPS   H7X  763   1.443   3.168   9.417 -1.6358  0.7371  1.5681
    6SAPS   H7Y  764   1.299   3.069   9.441 -0.2222  1.0284  1.4229
    6SAPS   C38  765   1.355   3.070   9.239 -0.7788  0.0974 -0.9560
    6SAPS   H8X  766   1.267   3.135   9.222  0.0532  2.0042  1.3903
    6SAPS   H8Y  767   1.327   2.964   9.218  1.7071 -0.6658 -0.7788
    6SAPS   C39  768   1.468   3.091   9.133  0.5555  0.4535  0.4192
    6SAPS   H9X  769   1.527   2.997   9.125  0.4615  0.5568 -2.4965
    6SAPS   H9Y  770   1.545   3.168   9.157 -0.9469  2.1193  0.0153
    6SAPS  C310  771   1.408   3.119   8.992  0.2901  0.2266 -0.1583
    6SAPS  H10X  772   1.347   3.211   8.998  2.3048  1.5735  0.7251
    6SAPS  H10Y  773   1.337   3.036   8.973  0.5182 -0.0771  0.3126
    6SAPS  C311  774   1.516   3.136   8.889  0.0217  0.4631  0.2279
    6SAPS  H11X  775   1.597   3.063   8.911 -2.7613 -2.7886  0.5899
    6SAPS  H11Y  776   1.559   3.236   8.909  1.2985 -0.2897  1.4247
    6SAPS  C312  777   1.473   3.120   8.740  0.3408 -0.9293  0.3296
    6SAPS  H12X  778   1.385   3.185   8.720  0.5665 -1.4623 -2.9687
    6SAPS  H12Y  779   1.456   3.012   8.721 -1.2692 -0.7808  0.7579
    6SAPS  C313  780   1.577   3.166   8.630  0.3163  0.8383 -0.0400
    6SAPS  H13X  781   1.655   3.088   8.640 -0.4788  0.2192  1.7723
    6SAPS  H13Y  782   1.622   3.252   8.684 -0.8322  0.3025  1.8648
    6SAPS  C314  783   1.505   3.189   8.502  0.0543  0.6380  0.2112
    6SAPS  H14X  784   1.434   3.274   8.514  2.6250  2.8805  0.3399
    6SAPS  H14Y  785   1.462   3.094   8.464  1.3964  0.2071 -0.2768
    6SAPS  C315  786   1.597   3.248   8.395  0.2246 -0.1261 -0.1503
    6SAPS  H15X  787   1.661   3.169   8.351  0.3234 -0.2767  0.2617
    6SAPS  H15Y  788   1.661   3.317   8.455 -0.9484 -0.3296  1.4013
    6SAPS  C316  789   1.518   3.315   8.289 -0.3430 -0.3919 -0.5486
    6SAPS  H16X  790   1.453   3.387   8.344 -0.8339 -1.3120  0.0943
    6SAPS  H16Y  791   1.432   3.252   8.260 -1.8991 -0.1666  2.9952
    6SAPS  C317  792   1.595   3.383   8.174  0.3738  0.0656  0.0744
    6SAPS  H17X  793   1.525   3.417   8.094 -0.5470  0.9319  1.2160
    6SAPS  H17Y  794   1.663   3.312   8.121 -0.7075 -0.3917 -0.7393
    6SAPS  C318  795   1.679   3.499   8.225  0.3377 -0.6719  0.3910
    6SAPS  H18X  796   1.755   3.471   8.301  1.0128  2.6745  1.1314
    6SAPS  H18Y  797   1.603   3.556   8.283 -1.3872 -1.8813 -0.5977
    6SAPS  H18Z  798   1.723   3.563   8.146 -1.1604 -2.1293 -1.7299
    7SAPS     N  799   3.671   3.371  10.905 -0.6051 -0.1039  0.0822
    7SAPS   HN1  800   3.599   3.440  10.879 -1.9217 -1.0283  1.1203
    7SAPS   HN2  801   3.619   3.307  10.969 -0.5631 -0.6407 -0.4123
    7SAPS   HN3  802   3.750   3.413  10.958 -1.6235 -0.1844  1.7252
    7SAPS   C12  803   3.710   3.309  10.778  0.1711  0.6350 -0.4375
    7SAPS  H12A  804   3.710   3.393  10.711  0.1438  2.1571  1.4003
    7SAPS   C13  805   3.856   3.253  10.772 -0.0221 -0.0093 -0.1017
    7SAPS  O13A  806   3.939   3.266  10.868  1.0516  0.8260 -0.8041
    7SAPS  O13B  807   3.885   3.209  10.659  0.2918  0.0701 -0.4353
    7SAPS   C11  808   3.615   3.189  10.745 -0.6907  0.4008  0.6465
    7SAPS  H11A  809   3.643   3.110  10.818  2.6709 -0.5865 -1.4165
    7SAPS  H11B  810   3.642   3.146  10.646  0.9220  1.7099  0.4584
    7SAPS     P  811   3.416   3.268  10.603  0.3833 -0.2570  0.5041
    7SAPS   O13  812   3.290   3.338  10.617 -0.0603  0.1903 -0.1760
    7SAPS   O14  813   3.519   3.339  10.527  0.0930  0.1233 -0.2041
    7SAPS   O12  814   3.480   3.230  10.741  0.1515 -0.1371 -0.4197
    7SAPS   O11  815   3.397   3.129  10.541 -0.2649  0.3863  0.1964
    7SAPS    C1  816   3.382   2.997  10.601 -0.0029 -0.6190 -0.1449
    7SAPS    HA  817   3.478   2.952  10.635  0.0058 -1.2153 -0.9151
    7SAPS    HB  818   3.309   3.002  10.684 -0.1176  0.2426 -0.2952
    7SAPS    C2  819   3.326   2.891  10.506 -0.6381  0.4142 -0.0232
    7SAPS    HS  820   3.313   2.794  10.560 -2.4001  1.1908  1.0380
    7SAPS   O21  821   3.413   2.889  10.389  0.1115  0.2265  0.0129
    7SAPS   C21  822   3.443   2.762  10.351  0.3971  0.8420 -0.6256
    7SAPS   O22  823   3.384   2.662  10.397 -0.1192  0.1242 -0.1250
    7SAPS   C22  824   3.558   2.760  10.259 -0.2632  0.0386 -0.3599
    7SAPS   H2R  825   3.526   2.815  10.168  0.1182  0.4391 -0.2585
    7SAPS   H2S  826   3.646   2.816  10.298 -0.9533  0.7084  0.2764
    7SAPS    C3  827   3.178   2.938  10.465  0.0177 -0.0855 -0.1674
    7SAPS    HX  828   3.187   3.028  10.400 -0.4132  0.2341  0.2095
    7SAPS    HY  829   3.126   2.965  10.559  0.3858  2.0883 -0.5440
    7SAPS   O31  830   3.114   2.829  10.395  0.0867 -0.1544 -0.3772
    7SAPS   C31  831   2.993   2.853  10.364  0.2842 -0.0087  0.4723
    7SAPS   O32  832   2.933   2.956  10.382  1.4186 -0.1411  0.5707
    7SAPS   C32  833   2.930   2.738  10.283 -0.4674 -0.0595  0.5292
    7SAPS   H2X  834   2.830   2.771  10.249 -0.2737 -1.3379 -1.4433
    7SAPS   H2Y  835   2.900   2.653  10.348 -1.0421 -0.9212 -0.8144
    7SAPS   C23  836   3.614   2.632  10.217 -0.5384  0.1296 -0.4086
    7SAPS   H3R  837   3.526   2.571  10.189 -1.5631  1.5325 -0.3445
    7SAPS   H3S  838   3.663   2.578  10.302  1.2603 -1.9562 -2.6166
    7SAPS   C24  839   3.730   2.634  10.111 -0.3990  0.1062  0.1318
    7SAPS   H4R  840   3.691   2.682  10.018 -1.4983 -2.0425 -0.5732
    7SAPS   H4S  841   3.758   2.530  10.083  0.1713  0.3894 -0.3881
    7SAPS   C25  842   3.843   2.725  10.167 -0.2728 -0.3719  0.1478
    7SAPS   H5R  843   3.828   2.760  10.270 -2.0318  1.2711 -0.6066
    7SAPS   C26  844   3.948   2.768  10.090  0.3588 -0.2046 -0.1351
    7SAPS   H6R  845   4.030   2.831  10.127  1.7201 -1.1905 -1.3641
    7SAPS   C27  846   3.965   2.713   9.947  0.1324 -0.7367 -0.2713
    7SAPS   H7R  847   4.029   2.782   9.890 -1.2016 -0.7646 -1.8834
    7SAPS   H7S  848   3.871   2.714   9.887 -0.2697 -1.4972  0.3167
    7SAPS   C28  849   4.020   2.573   9.945 -0.0479 -0.1634  0.2362
    7SAPS   H8R  850   4.058   2.531  10.039  2.3237  0.2624 -0.4667
    7SAPS   C29  851   4.032   2.494   9.840  0.1791  0.5099  0.5029
    7SAPS   H9R  852   4.065   2.391   9.863 -0.3394  0.1337 -0.3732
    7SAPS  C210  853   3.981   2.523   9.695 -0.5241  0.3099 -0.5930
    7SAPS  H10R  854   3.975   2.633   9.684 -1.4379  0.3417  0.0737
    7SAPS  H10S  855   3.878   2.480   9.690 -0.4844 -0.0784  1.0515
    7SAPS  C211  856   4.069   2.466   9.584  0.2523 -0.6856 -0.3002
    7SAPS  H11R  857   4.137   2.387   9.618 -0.2650 -0.2182  1.9784
    7SAPS  C212  858   4.062   2.494   9.450  0.6525  0.5277  0.4008
    7SAPS  H12R  859   4.133   2.451   9.378 -0.5297  1.2304 -1.2375
    7SAPS  C213  860   3.967   2.581   9.373  0.2348  0.2249 -0.1301
    7SAPS  H13R  861   4.004   2.685   9.364 -1.3194  0.6818 -2.0257
    7SAPS  H13S  862   3.868   2.585   9.424 -0.6163 -0.3463 -1.6628
    7SAPS  C214  863   3.923   2.522   9.241  0.1778 -0.4400  0.6770
    7SAPS  H14R  864   3.922   2.415   9.217 -0.9613  0.2700 -3.1883
    7SAPS  C215  865   3.890   2.595   9.131 -0.3523  0.2196 -0.4412
    7SAPS  H15R  866   3.851   2.548   9.040 -1.1541  0.4833 -0.2517
    7SAPS  C216  867   3.886   2.747   9.138 -0.0585 -0.0331  0.1156
    7SAPS  H16R  868   3.877   2.784   9.034 -0.8153  0.1352  0.2360
    7SAPS  H16S  869   3.985   2.783   9.174 -0.8481  3.0343 -0.5209
    7SAPS  C217  870   3.767   2.811   9.208  0.0913  0.2163 -0.6589
    7SAPS  H17R  871   3.781   2.795   9.317 -2.0821 -3.1572 -0.7130
    7SAPS  H17S  872   3.666   2.772   9.181 -0.4403 -0.0045  1.4379
    7SAPS  C218  873   3.746   2.961   9.169 -0.2709  0.0005  0.0381
    7SAPS  H18R  874   3.764   2.991   9.063  2.6644  2.9767  1.2272
    7SAPS  H18S  875   3.827   3.020   9.215 -0.8797  0.7293  0.1975
    7SAPS  C219  876   3.610   3.019   9.222 -0.3105  0.2792  0.5132
    7SAPS  H19R  877   3.644   3.122   9.243 -1.5403  0.6437  0.8376
    7SAPS  H19S  878   3.570   2.969   9.313 -2.0307  0.4524 -0.1118
    7SAPS  C220  879   3.496   3.029   9.119  0.2454  0.1542  0.2083
    7SAPS  H20R  880   3.531   3.088   9.032  0.9568 -0.6892 -0.0939
    7SAPS  H20S  881   3.403   3.068   9.166 -1.4588 -1.5703 -1.5518
    7SAPS  H20T  882   3.462   2.928   9.087 -2.1716  1.1572 -0.5930
    7SAPS   C33  883   3.013   2.679  10.169 -0.4789 -0.0714 -0.2158
    7SAPS   H3X  884   2.964   2.583  10.139  0.4628 -0.7756  0.4331
    7SAPS   H3Y  885   3.113   2.656  10.212 -1.4146 -1.7332  1.1925
    7SAPS   C34  886   3.038   2.770  10.042 -0.3005  0.1865 -0.1389
    7SAPS   H4X  887   3.103   2.854  10.074  1.0588 -0.7860 -0.2783
    7SAPS   H4Y  888   2.944   2.802   9.992 -0.1619  0.3351 -0.3063
    7SAPS   C35  889   3.120   2.715   9.919 -0.8827  0.2681 -0.3825
    7SAPS   H5X  890   3.211   2.662   9.955  0.9943  2.3898 -1.7433
    7SAPS   H5Y  891   3.154   2.802   9.857 -3.0598  1.0917 -0.5059
    7SAPS   C36  892   3.047   2.609   9.842  0.2806 -0.3640 -0.9118
    7SAPS   H6X  893   2.940   2.635   9.831 -0.0278 -1.9995 -2.1279
    7SAPS   H6Y  894   3.048   2.512   9.896  3.6480 -0.3069 -0.6585
    7SAPS   C37  895   3.089   2.593   9.697  0.0523  0.3012 -0.3987
    7SAPS   H7X  896   3.196   2.565   9.690  0.6179  2.0973  0.4564
    7SAPS   H7Y  897   3.082   2.692   9.647  0.5705  0.7664  0.4343
    7SAPS   C38  898   2.999   2.502   9.617  0.4219 -0.2481 -0.0763
    7SAPS   H8X  899   2.895   2.540   9.625  0.1868 -0.0062 -3.2146
    7SAPS   H8Y  900   3.013   2.399   9.658  0.6448 -0.8622 -1.6071
    7SAPS   C39  901   3.023   2.497   9.472  0.3937  0.3815 -0.0319
    7SAPS   H9X  902   2.964   2.410   9.439  0.3611  1.4870 -3.2030
    7SAPS   H9Y  903   3.122   2.452   9.450  0.0856 -0.2611 -0.1044
    7SAPS  C310  904   2.980   2.616   9.387 -0.8776 -0.2373  0.0390
    7SAPS  H10X  905   3.067   2.686   9.390  0.2426 -1.5993  0.0758
    7SAPS  H10Y  906   2.895   2.665   9.439 -0.1674  0.6648  0.3895
    7SAPS  C311  907   2.944   2.588   9.243 -1.3151 -0.3928  0.0553
    7SAPS  H11X  908   3.026   2.521   9.210  0.3482  2.2693 -1.5826
    7SAPS  H11Y  909   2.946   2.686   9.189 -0.8731 -0.6376 -0.3823
    7SAPS  C312  910   2.808   2.517   9.225 -0.0610 -0.0416 -0.5820
    7SAPS  H12X  911   2.727   2.587   9.254  1.7325  1.4905  0.9717
    7SAPS  H12Y  912   2.807   2.429   9.293  1.5462  0.5710  0.2870
    7SAPS  C313  913   2.786   2.472   9.078  0.8090  0.1959 -0.4840
    7SAPS  H13X  914   2.881   2.451   9.026  0.2608 -0.9120 -1.0716
    7SAPS  H13Y  915   2.728   2.557   9.036 -0.8737 -0.1682  0.9624
    7SAPS  C314  916   2.694   2.348   9.071  0.2454  0.2953 -0.5630
    7SAPS  H14X  917   2.597   2.367   9.122  1.2051 -1.6839  2.2324
    7SAPS  H14Y  918   2.749   2.277   9.137 -1.0073  0.8559  1.1489
    7SAPS  C315  919   2.676   2.275   8.938 -0.0322  0.1205 -0.7830
    7SAPS  H15X  920   2.629   2.176   8.953  0.1671 -0.1838 -2.1274
    7SAPS  H15Y  921   2.771   2.241   8.894  0.5263  0.8839 -0.1960
    7SAPS  C316  922   2.591   2.344   8.836 -0.4109  0.9208  0.0101
    7SAPS  H16X  923   2.509   2.403   8.884 -2.2983 -3.3318  2.6505
    7SAPS  H16Y  924   2.542   2.263   8.778  1.4252  0.0961 -0.4307
    7SAPS  C317  925   2.666   2.435   8.736  0.7065 -0.3204 -0.5424
    7SAPS  H17X  926   2.744   2.498   8.782 -0.2123  1.2605 -1.0753
    7SAPS  H17Y  927   2.595   2.510   8.696  0.5633  1.1009  2.1907
    7SAPS  C318  928   2.723   2.372   8.614 -0.0715 -0.8097  0.0814
    7SAPS  H18X  929   2.782   2.444   8.554  2.2139 -0.9096  2.0235
    7SAPS  H18Y  930   2.651   2.331   8.540  0.3095 -0.0234 -0.7359
    7SAPS  H18Z  931   2.798   2.296   8.647  1.1021 -0.0515 -0.7379
    8SAPS     N  932   1.499   3.210  11.276 -0.0595 -0.1670 -0.7430
    8SAPS   HN1  933   1.590   3.169  11.247 -0.4079 -0.2165 -1.7898
    8SAPS   HN2  934   1.482   3.170  11.371  0.1478  0.8408 -0.2696
    8SAPS   HN3  935   1.427   3.175  11.209 -3.4122  2.6852  1.0604
    8SAPS   C12  936   1.515   3.357  11.260 -0.1205  0.6304  0.4868
    8SAPS  H12A  937   1.422   3.406  11.287 -0.4145  1.0912 -1.2128
    8SAPS   C13  938   1.619   3.418  11.348 -0.0977  0.0063  0.5514
    8SAPS  O13A  939   1.685   3.354  11.432 -0.5296  0.3063  0.4200
    8SAPS  O13B  940   1.600   3.542  11.369 -0.4525  0.7011 -0.5083
    8SAPS   C11  941   1.539   3.395  11.111  0.5077  0.4052 -0.4196
    8SAPS  H11A  942   1.646   3.370  11.095  1.6369  2.3147  3.1002
    8SAPS  H11B  943   1.534   3.506  11.100  0.5540  0.7827  2.5954
    8SAPS     P  944   1.465   3.287  10.882  0.4235 -0.1745 -0.4916
    8SAPS   O13  945   1.603   3.230  10.884 -0.1690  0.2560  0.5603
    8SAPS   O14  946   1.364   3.184  10.868  0.6192  0.0631 -0.1174
    8SAPS   O12  947   1.440   3.356  11.018  0.3301 -0.2884  0.1234
    8SAPS   O11  948   1.470   3.389  10.765 -0.2734 -0.3351  0.1836
    8SAPS    C1  949   1.568   3.492  10.765 -0.1411 -0.2542 -0.5103
    8SAPS    HA  950   1.529   3.594  10.786  2.3847  0.2602  2.2490
    8SAPS    HB  951   1.643   3.481  10.845  0.5578  1.7814 -0.8298
    8SAPS    C2  952   1.648   3.506  10.639 -0.3965  0.3439  0.3830
    8SAPS    HS  953   1.730   3.576  10.668  0.6417 -0.3437 -0.7802
    8SAPS   O21  954   1.572   3.544  10.527  0.5780  0.2959 -0.1132
    8SAPS   C21  955   1.561   3.674  10.520  0.6076  0.6734 -0.3211
    8SAPS   O22  956   1.605   3.760  10.598  0.3798  0.4263 -0.1342
    8SAPS   C22  957   1.477   3.703  10.396 -0.2525 -0.4706 -0.0612
    8SAPS   H2R  958   1.399   3.628  10.370 -0.0027 -0.5463 -0.6178
    8SAPS   H2S  959   1.426   3.799  10.416 -2.5619 -1.0871 -2.4162
    8SAPS    C3  960   1.702   3.365  10.595  0.4718  0.3125 -0.3793
    8SAPS    HX  961   1.618   3.298  10.567  0.7617 -1.1475  1.9525
    8SAPS    HY  962   1.736   3.322  10.692 -1.3809  1.1604  0.7158
    8SAPS   O31  963   1.796   3.363  10.491  0.1948 -0.0100 -0.2153
    8SAPS   C31  964   1.920   3.385  10.525 -0.6943  0.0612  0.8276
    8SAPS   O32  965   1.971   3.410  10.633  0.2087 -0.4662  0.1579
    8SAPS   C32  966   2.006   3.348  10.404  1.0405  0.1881 -0.0068
    8SAPS   H2X  967   1.955   3.383  10.311  1.1927 -0.3910 -0.3094
    8SAPS   H2Y  968   2.013   3.237  10.402  3.4876  0.2598  0.9033
    8SAPS   C23  969   1.573   3.714  10.274 -0.2536 -0.0509  0.6474
    8SAPS   H3R  970   1.632   3.623  10.252 -0.4156  0.4041 -2.1387
    8SAPS   H3S  971   1.652   3.791  10.288  1.8670 -2.1584  0.8153
    8SAPS   C24  972   1.488   3.761  10.154  0.0448  0.5873 -0.1001
    8SAPS   H4R  973   1.488   3.872  10.160 -0.0530  0.6645 -1.3684
    8SAPS   H4S  974   1.386   3.717  10.150 -0.2731  1.3663 -3.1863
    8SAPS   C25  975   1.547   3.731  10.024 -0.3689 -0.1435  0.5509
    8SAPS   H5R  976   1.569   3.624  10.017  2.5242  0.4533 -2.1117
    8SAPS   C26  977   1.572   3.810   9.917  0.0762 -0.4768  0.2530
    8SAPS   H6R  978   1.644   3.776   9.841  2.3079  0.9643  1.6133
    8SAPS   C27  979   1.537   3.958   9.919  0.0254  0.2253  0.0552
    8SAPS   H7R  980   1.594   4.010   9.840 -0.8119  0.3338 -0.4946
    8SAPS   H7S  981   1.557   3.998  10.021  2.4522  0.7695 -0.5843
    8SAPS   C28  982   1.388   3.993   9.899  0.9865  0.6412  0.6500
    8SAPS   H8R  983   1.317   3.978   9.982 -0.4560 -0.8553 -0.7948
    8SAPS   C29  984   1.329   4.025   9.777 -0.7856 -0.3322  0.2005
    8SAPS   H9R  985   1.220   4.044   9.781 -0.6842  1.0392 -1.8514
    8SAPS  C210  986   1.389   4.031   9.633 -1.3462 -0.1663 -0.3299
    8SAPS  H10R  987   1.378   3.930   9.588  1.9007 -0.6823 -0.2228
    8SAPS  H10S  988   1.497   4.055   9.638 -1.2598 -0.1315 -1.8235
    8SAPS  C211  989   1.322   4.131   9.546 -0.3555  0.1857  0.4313
    8SAPS  H11R  990   1.376   4.226   9.539 -0.6158  0.5734  2.7660
    8SAPS  C212  991   1.214   4.112   9.463  0.5723  0.2626 -0.4268
    8SAPS  H12R  992   1.189   4.192   9.391 -2.0170 -0.0333  0.0566
    8SAPS  C213  993   1.135   3.983   9.446 -0.8893 -0.4162  0.1312
    8SAPS  H13R  994   1.028   4.009   9.462 -1.2509 -0.8183 -1.4285
    8SAPS  H13S  995   1.162   3.915   9.529  2.5501  1.4792  0.8081
    8SAPS  C214  996   1.167   3.923   9.314 -0.3702  0.6622  0.0902
    8SAPS  H14R  997   1.258   3.864   9.329 -0.6867  0.2388  0.3887
    8SAPS  C215  998   1.090   3.923   9.203  0.2500 -0.0998  0.3289
    8SAPS  H15R  999   1.137   3.869   9.119  1.6250 -0.8289  1.5239
    8SAPS  C216 1000   0.956   3.997   9.177 -0.1364  0.0442  0.4112
    8SAPS  H16R 1001   0.972   4.105   9.155  1.0991 -0.4709 -1.5161
    8SAPS  H16S 1002   0.895   3.980   9.268  0.6154 -0.7169  0.7955
    8SAPS  C217 1003   0.871   3.940   9.058 -0.0907  0.1717  0.2020
    8SAPS  H17R 1004   0.766   3.970   9.074 -0.5831 -1.7488  0.9296
    8SAPS  H17S 1005   0.861   3.832   9.084 -0.2119  0.4444  1.3351
    8SAPS  C218 1006   0.940   3.975   8.921  0.5836  0.2255  0.3841
    8SAPS  H18R 1007   1.035   3.922   8.900  0.5531 -0.3040  1.5310
    8SAPS  H18S 1008   0.956   4.085   8.927  0.5705  0.1977  0.9384
    8SAPS  C219 1009   0.827   3.958   8.810 -0.4914  0.6831  0.1143
    8SAPS  H19R 1010   0.741   4.025   8.830 -2.4168 -1.8247  0.8730
    8SAPS  H19S 1011   0.786   3.854   8.812  1.1104 -0.0824 -1.9465
    8SAPS  C220 1012   0.866   4.006   8.664  0.2500 -0.1572  0.0165
    8SAPS  H20R 1013   0.795   3.970   8.586 -2.6263  0.9358  1.9484
    8SAPS  H20S 1014   0.965   3.970   8.631 -0.0568 -1.7600  0.7257
    8SAPS  H20T 1015   0.865   4.116   8.652  0.1344 -0.0979  0.5262
    8SAPS   C33 1016   2.148   3.420  10.403 -0.0912 -0.0210  0.1350
    8SAPS   H3X 1017   2.205   3.369  10.484  0.4940 -0.2416 -0.4075
    8SAPS   H3Y 1018   2.149   3.528  10.427 -0.5535  0.7355 -2.8966
    8SAPS   C34 1019   2.229   3.419  10.274 -0.5782 -0.1161  0.1847
    8SAPS   H4X 1020   2.327   3.470  10.291 -0.8850  0.2283  0.9673
    8SAPS   H4Y 1021   2.188   3.502  10.212  4.1045  2.3295 -0.1715
    8SAPS   C35 1022   2.244   3.285  10.204 -0.0831 -0.3439  0.0242
    8SAPS   H5X 1023   2.143   3.239  10.209  0.1860 -0.9644 -0.0902
    8SAPS   H5Y 1024   2.322   3.238  10.268 -0.3619 -0.1863  0.4734
    8SAPS   C36 1025   2.294   3.292  10.055  0.6379 -0.0886  0.3797
    8SAPS   H6X 1026   2.399   3.327  10.042 -0.1965  2.8077  0.8172
    8SAPS   H6Y 1027   2.231   3.363   9.998  1.3769 -0.2705 -0.6910
    8SAPS   C37 1028   2.273   3.155   9.996 -0.2006  0.6752  1.0410
    8SAPS   H7X 1029   2.163   3.144   9.993 -0.0554 -0.8708  0.5958
    8SAPS   H7Y 1030   2.321   3.071  10.050  1.2288 -0.5223 -1.8536
    8SAPS   C38 1031   2.329   3.147   9.845 -0.2493  0.0214 -0.2825
    8SAPS   H8X 1032   2.437   3.169   9.841 -0.3657  0.3819 -3.0636
    8SAPS   H8Y 1033   2.283   3.232   9.790 -0.1606  1.2690  1.4631
    8SAPS   C39 1034   2.308   3.013   9.775  0.3968 -0.5606 -0.3996
    8SAPS   H9X 1035   2.198   2.998   9.772  0.4641 -1.1203 -0.2604
    8SAPS   H9Y 1036   2.342   2.924   9.832 -1.7029 -0.7569  0.6246
    8SAPS  C310 1037   2.350   3.013   9.625 -0.0115  0.1042 -0.4026
    8SAPS  H10X 1038   2.361   2.907   9.593 -0.0125  0.1779 -0.6483
    8SAPS  H10Y 1039   2.455   3.049   9.627 -0.5887  2.3656 -3.6421
    8SAPS  C311 1040   2.257   3.099   9.543 -0.1820  0.3547  0.1409
    8SAPS  H11X 1041   2.273   3.206   9.564  2.4220  0.3543 -1.4306
    8SAPS  H11Y 1042   2.152   3.078   9.574  0.3900 -1.9717  0.7189
    8SAPS  C312 1043   2.261   3.086   9.387 -0.2736 -0.1370  0.3911
    8SAPS  H12X 1044   2.198   3.000   9.357  1.5507 -2.5235  2.8131
    8SAPS  H12Y 1045   2.364   3.057   9.357 -0.1974  0.9488 -0.4484
    8SAPS  C313 1046   2.230   3.210   9.307  0.3269  0.0843  0.0542
    8SAPS  H13X 1047   2.315   3.281   9.297 -0.2391  0.6730 -0.7518
    8SAPS  H13Y 1048   2.169   3.279   9.369 -0.6508 -0.7622  0.0642
    8SAPS  C314 1049   2.167   3.173   9.169  0.1729  0.2107 -0.4109
    8SAPS  H14X 1050   2.120   3.265   9.128 -2.7646 -0.9270  0.1470
    8SAPS  H14Y 1051   2.086   3.101   9.192  0.3929  0.0499 -0.1372
    8SAPS  C315 1052   2.270   3.116   9.077  0.1167  0.0745 -0.6080
    8SAPS  H15X 1053   2.213   3.069   8.994  0.2877 -0.5295 -0.3883
    8SAPS  H15Y 1054   2.334   3.036   9.121 -0.1573 -0.2919 -0.8726
    8SAPS  C316 1055   2.376   3.220   9.023  0.6218  0.9597 -0.5806
    8SAPS  H16X 1056   2.443   3.232   9.111 -1.8730  2.3707  1.2552
    8SAPS  H16Y 1057   2.335   3.320   8.997  1.8436  1.0766 -2.2309
    8SAPS  C317 1058   2.449   3.178   8.894  0.6928  0.3469  0.0354
    8SAPS  H17X 1059   2.453   3.068   8.880 -0.1559  0.6371 -3.7949
    8SAPS  H17Y 1060   2.550   3.224   8.893  0.0811  1.7879  1.1978
    8SAPS  C318 1061   2.384   3.238   8.765 -0.4954 -0.1140  0.3628
    8SAPS  H18X 1062   2.455   3.229   8.679  0.9688 -1.5444  1.6544
    8SAPS  H18Y 1063   2.374   3.349   8.771 -0.2607 -0.1734  2.7120
    8SAPS  H18Z 1064   2.282   3.200   8.742  0.1309 -0.6715 -1.7525
    9SAPS     N 1065   5.560   0.188   5.931  0.0637  0.0579  0.5587
    9SAPS   HN1 1066   5.574   0.139   6.022  1.4785 -1.7416 -0.5370
    9SAPS   HN2 1067   5.585   0.288   5.929  2.1619 -0.4276  0.1247
    9SAPS   HN3 1068   5.465   0.177   5.890  0.7059 -0.7070 -0.8363
    9SAPS   C12 1069   5.653   0.117   5.840  0.4667 -0.5255  0.1566
    9SAPS  H12A 1070   5.609   0.023   5.811 -0.5911  0.1718 -0.5969
    9SAPS   C13 1071   5.693   0.195   5.706  0.2730  0.0623 -1.1141
    9SAPS  O13A 1072   5.636   0.302   5.692 -0.0456 -0.0017  0.2702
    9SAPS  O13B 1073   5.764   0.135   5.621  0.1285  0.1926 -0.0665
    9SAPS   C11 1074   5.787   0.100   5.915  0.0332  0.9289 -0.1208
    9SAPS  H11A 1075   5.843   0.195   5.920  3.9983 -1.1757 -0.2057
    9SAPS  H11B 1076   5.840   0.025   5.853  0.2287 -0.1603  1.3165
    9SAPS     P 1077   5.877   0.002   6.142 -0.0433 -0.0904  0.0012
    9SAPS   O13 1078   5.836  -0.122   6.211  0.3961 -0.4660  0.3107
    9SAPS   O14 1079   6.011   0.018   6.071  0.1662 -0.1553 -0.1116
    9SAPS   O12 1080   5.761   0.043   6.049 -0.6338 -0.3636  0.3651
    9SAPS   O11 1081   5.858   0.116   6.254  0.4559  0.2220 -0.4502
    9SAPS    C1 1082   5.725   0.128   6.316  0.0369  0.2498  0.7505
    9SAPS    HA 1083   5.688   0.225   6.278  1.9344  0.4738 -0.7242
    9SAPS    HB 1084   5.659   0.043   6.290  1.5050 -0.5478 -0.5513
    9SAPS    C2 1085   5.742   0.136   6.468 -0.2882 -0.3374  0.3716
    9SAPS    HS 1086   5.653   0.175   6.521  0.1419  1.2382 -0.0158
    9SAPS   O21 1087   5.855   0.215   6.509 -0.3835  0.5469  0.3774
    9SAPS   C21 1088   5.834   0.285   6.619  0.0581 -0.7740  0.7246
    9SAPS   O22 1089   5.726   0.312   6.665  0.5342 -0.8340  0.2464
    9SAPS   C22 1090   5.966   0.337   6.676 -0.2669  0.0852  0.0975
    9SAPS   H2R 1091   6.029   0.249   6.699  0.1465  0.0369 -1.1662
    9SAPS   H2S 1092   6.024   0.401   6.606  1.1234  0.8263  1.8365
    9SAPS    C3 1093   5.768  -0.009   6.527 -0.8101  0.3094 -0.4267
    9SAPS    HX 1094   5.866  -0.021   6.478 -1.8977  0.8478 -2.8464
    9SAPS    HY 1095   5.713  -0.098   6.488 -0.6928 -0.0026  0.0999
    9SAPS   O31 1096   5.789  -0.003   6.673 -0.5634  0.4680  0.2190
    9SAPS   C31 1097   5.678  -0.038   6.743 -0.0660  0.0915 -0.2403
    9SAPS   O32 1098   5.572  -0.068   6.695 -0.0349  0.1790 -0.5651
    9SAPS   C32 1099   5.708   0.005   6.887  0.1085  0.1875  0.5701
    9SAPS   H2X 1100   5.789   0.081   6.891 -0.5243  0.8690  0.9266
    9SAPS   H2Y 1101   5.730  -0.087   6.946 -0.1141  0.4553  1.0793
    9SAPS   C23 1102   5.952   0.424   6.802 -0.3069  0.0789  0.4030
    9SAPS   H3R 1103   5.880   0.502   6.771 -0.5407  0.0960  0.9776
    9SAPS   H3S 1104   6.051   0.468   6.824  0.0897 -0.7439  0.2932
    9SAPS   C24 1105   5.892   0.344   6.922  0.6167 -0.1921  0.1354
    9SAPS   H4R 1106   5.961   0.257   6.929  0.8895 -0.1098 -1.3060
    9SAPS   H4S 1107   5.798   0.293   6.894 -0.3643  2.9985 -3.1145
    9SAPS   C25 1108   5.877   0.424   7.046 -0.0522  0.5221  0.7340
    9SAPS   H5R 1109   5.801   0.502   7.028 -0.7104 -0.0924  0.7732
    9SAPS   C26 1110   5.928   0.393   7.172 -0.1354 -0.0840 -0.0356
    9SAPS   H6R 1111   5.885   0.452   7.254 -1.5382 -0.3936 -0.5112
    9SAPS   C27 1112   6.015   0.275   7.203  0.5230 -0.2191 -0.2425
    9SAPS   H7R 1113   6.086   0.248   7.121  2.9868  0.5637  1.5197
    9SAPS   H7S 1114   5.946   0.191   7.225 -1.8375  1.7592  0.3517
    9SAPS   C28 1115   6.108   0.305   7.318  0.1230 -0.0775 -0.6298
    9SAPS   H8R 1116   6.197   0.358   7.283  0.7274 -1.2823 -0.9802
    9SAPS   C29 1117   6.080   0.285   7.448  0.3301  0.1866 -0.2549
    9SAPS   H9R 1118   6.151   0.309   7.528 -1.8284 -0.4655  1.9651
    9SAPS  C210 1119   5.952   0.217   7.506 -0.0674 -0.1507 -0.6744
    9SAPS  H10R 1120   5.870   0.217   7.431 -0.6636 -0.7239 -0.0394
    9SAPS  H10S 1121   5.914   0.295   7.575 -0.3899  0.9053 -2.0143
    9SAPS  C211 1122   5.972   0.083   7.569  0.6411  0.5685 -0.8601
    9SAPS  H11R 1123   5.994   0.003   7.497 -0.7470 -0.5966 -0.0507
    9SAPS  C212 1124   5.943   0.053   7.696 -0.2453  0.1679 -0.2315
    9SAPS  H12R 1125   5.977  -0.043   7.735  1.3600  1.2629  1.2098
    9SAPS  C213 1126   5.906   0.150   7.810  0.3214 -0.0642 -0.0491
    9SAPS  H13R 1127   5.858   0.089   7.890 -1.0263 -0.2289 -0.9476
    9SAPS  H13S 1128   5.827   0.217   7.769  0.8410  0.5646 -0.0331
    9SAPS  C214 1129   6.006   0.228   7.882 -0.1267  0.0453 -0.2423
    9SAPS  H14R 1130   6.108   0.190   7.868  0.4296  2.0762 -2.5051
    9SAPS  C215 1131   5.988   0.344   7.951 -0.4203  0.2247 -0.2166
    9SAPS  H15R 1132   6.074   0.393   7.999 -0.3834  1.6408 -1.6632
    9SAPS  C216 1133   5.863   0.430   7.965  0.0618  0.3164  0.2897
    9SAPS  H16R 1134   5.831   0.427   8.072  2.8415  0.1833  1.1958
    9SAPS  H16S 1135   5.780   0.396   7.899  2.8875  0.1051 -3.4650
    9SAPS  C217 1136   5.872   0.575   7.901  0.7489  0.3962 -0.4034
    9SAPS  H17R 1137   5.935   0.643   7.962  1.0431  0.6120 -0.9324
    9SAPS  H17S 1138   5.772   0.623   7.897  0.5261 -0.1013 -1.3037
    9SAPS  C218 1139   5.909   0.571   7.745 -1.1763 -0.0462 -0.9250
    9SAPS  H18R 1140   5.862   0.475   7.716  0.2232 -1.0333 -0.0376
    9SAPS  H18S 1141   6.020   0.564   7.737 -1.1012  1.2449 -1.2373
    9SAPS  C219 1142   5.862   0.691   7.662 -0.2649  0.4282  0.8396
    9SAPS  H19R 1143   5.923   0.784   7.673 -0.3141  0.4742  0.7287
    9SAPS  H19S 1144   5.756   0.713   7.686 -0.2717  0.1462  1.0589
    9SAPS  C220 1145   5.867   0.645   7.520 -0.2278 -0.4441  0.2953
    9SAPS  H20R 1146   5.971   0.648   7.482 -0.4858  1.5259 -0.4055
    9SAPS  H20S 1147   5.796   0.707   7.461  3.0757  3.9036  0.3572
    9SAPS  H20T 1148   5.832   0.541   7.505  1.7286 -0.7718 -2.9790
    9SAPS   C33 1149   5.573   0.072   6.949 -0.7953 -0.0705  0.3157
    9SAPS   H3X 1150   5.482   0.010   6.934 -1.3044  0.4656  1.1252
    9SAPS   H3Y 1151   5.555   0.165   6.891 -0.5091  0.3059  0.8306
    9SAPS   C34 1152   5.583   0.100   7.098 -0.4073  0.3418 -0.8113
    9SAPS   H4X 1153   5.488   0.149   7.130 -0.3052 -0.2923  0.5187
    9SAPS   H4Y 1154   5.656   0.182   7.117 -0.0579 -0.4601  1.6558
    9SAPS   C35 1155   5.613  -0.017   7.188 -0.1414  0.1933 -0.5923
    9SAPS   H5X 1156   5.704  -0.071   7.154  0.3112  0.9948 -0.6724
    9SAPS   H5Y 1157   5.528  -0.087   7.174  0.2698 -1.0296  2.3864
    9SAPS   C36 1158   5.620   0.009   7.336  0.2055 -0.4629  0.2525
    9SAPS   H6X 1159   5.540   0.082   7.360  1.5441  0.8045  1.0210
    9SAPS   H6Y 1160   5.722   0.045   7.360 -0.2043  1.5937 -0.8826
    9SAPS   C37 1161   5.602  -0.122   7.410 -0.5696 -0.1121 -0.4880
    9SAPS   H7X 1162   5.699  -0.176   7.398 -0.7848 -0.3145 -1.3801
    9SAPS   H7Y 1163   5.525  -0.188   7.365 -0.1740 -1.5433  0.8206
    9SAPS   C38 1164   5.563  -0.100   7.549  0.5165  0.3584  0.4650
    9SAPS   H8X 1165   5.472  -0.038   7.559  0.1649  0.1304 -1.0843
    9SAPS   H8Y 1166   5.654  -0.055   7.596  3.3282 -0.8509 -3.3032
    9SAPS   C39 1167   5.524  -0.237   7.622 -0.2623 -0.0383  0.0186
    9SAPS   H9X 1168   5.600  -0.317   7.607  0.7043  1.1739 -2.0369
    9SAPS   H9Y 1169   5.433  -0.268   7.566  1.6305 -1.6190 -2.3861
    9SAPS  C310 1170   5.498  -0.212   7.776  0.9321 -0.1020  0.0633
    9SAPS  H10X 1171   5.444  -0.300   7.816 -1.1350 -0.0874 -2.4122
    9SAPS  H10Y 1172   5.422  -0.132   7.763  0.2826 -0.8501 -0.7542
    9SAPS  C311 1173   5.618  -0.154   7.844  0.2562 -0.0136 -0.2668
    9SAPS  H11X 1174   5.638  -0.048   7.820 -0.5281  0.9441  2.8119
    9SAPS  H11Y 1175   5.713  -0.209   7.824 -0.1748  0.0143 -2.7135
    9SAPS  C312 1176   5.576  -0.145   7.993 -0.0346  0.1939  0.6908
    9SAPS  H12X 1177   5.540  -0.244   8.027 -0.8021  0.0380 -0.5053
    9SAPS  H12Y 1178   5.493  -0.074   8.015 -1.4035 -1.3021  0.5749
    9SAPS  C313 1179   5.697  -0.117   8.085 -0.3612 -0.4466  0.3062
    9SAPS  H13X 1180   5.746  -0.019   8.069  1.2299 -1.5772 -2.4071
    9SAPS  H13Y 1181   5.776  -0.192   8.060  0.7734  1.3527 -1.7971
    9SAPS  C314 1182   5.664  -0.133   8.241 -0.2297 -0.2228  0.7009
    9SAPS  H14X 1183   5.630  -0.237   8.264 -0.8793 -0.3847 -0.8495
    9SAPS  H14Y 1184   5.585  -0.059   8.261 -2.0628 -1.5778 -1.1207
    9SAPS  C315 1185   5.785  -0.107   8.323 -0.2337 -0.8979 -0.1433
    9SAPS  H15X 1186   5.837  -0.018   8.282  0.9814 -2.4218 -2.0678
    9SAPS  H15Y 1187   5.858  -0.189   8.305 -0.6501 -1.0164 -1.3256
    9SAPS  C316 1188   5.755  -0.113   8.472 -0.3093 -0.0666 -0.0561
    9SAPS  H16X 1189   5.724  -0.215   8.501 -2.0528  0.1878 -0.8616
    9SAPS  H16Y 1190   5.669  -0.051   8.505 -0.5643 -0.7433  0.5558
    9SAPS  C317 1191   5.866  -0.071   8.575  0.2530 -0.5051  0.8165
    9SAPS  H17X 1192   5.904   0.032   8.556 -0.3412 -0.7103 -1.6924
    9SAPS  H17Y 1193   5.957  -0.134   8.563  1.2264  0.7612  1.3092
    9SAPS  C318 1194   5.821  -0.080   8.723 -0.5508  0.5834  0.2008
    9SAPS  H18X 1195   5.906  -0.071   8.793 -1.7074  0.5444  1.6685
    9SAPS  H18Y 1196   5.769  -0.177   8.738  0.5404  0.0933  0.8402
    9SAPS  H18Z 1197   5.755   0.008   8.740  0.0523  1.4309 -1.6204
   10SAPS     N 1198   4.928   5.570   6.134  0.3928 -0.5740  0.5595
   10SAPS   HN1 1199   4.933   5.472   6.170 -2.7102 -0.4859  1.4562
   10SAPS   HN2 1200   4.959   5.562   6.035 -0.5134 -0.2941  0.2512
   10SAPS   HN3 1201   4.982   5.641   6.186  0.2414  0.1168 -0.2134
   10SAPS   C12 1202   4.778   5.604   6.129  0.4799  0.2711 -0.2267
   10SAPS  H12A 1203   4.770   5.707   6.095 -0.3642 -0.2001 -1.5600
   10SAPS   C13 1204   4.691   5.513   6.038  0.3153 -0.6436  0.3055
   10SAPS  O13A 1205   4.734   5.411   5.976 -0.2824 -0.2621  0.6543
   10SAPS  O13B 1206   4.572   5.548   6.019  0.1363  0.2636 -0.2505
   10SAPS   C11 1207   4.725   5.603   6.274  0.0425 -0.1368 -0.2936
   10SAPS  H11A 1208   4.733   5.499   6.312  0.4870 -0.1019 -0.2795
   10SAPS  H11B 1209   4.617   5.628   6.265  0.4562  1.6574 -0.7371
   10SAPS     P 1210   4.731   5.811   6.427 -0.0637 -0.0951  0.2103
   10SAPS   O13 1211   4.814   5.879   6.531 -0.1546  0.1733 -0.9746
   10SAPS   O14 1212   4.681   5.901   6.318  0.0937  0.3534 -0.0668
   10SAPS   O12 1213   4.808   5.688   6.361 -0.2963 -0.3028  0.3196
   10SAPS   O11 1214   4.603   5.734   6.488 -0.3597  0.1087 -0.3484
   10SAPS    C1 1215   4.625   5.641   6.586 -0.9073  0.6184  0.0368
   10SAPS    HA 1216   4.701   5.563   6.565 -2.1329 -0.8508  0.8967
   10SAPS    HB 1217   4.661   5.692   6.678 -1.0345  0.3213  0.2525
   10SAPS    C2 1218   4.498   5.564   6.602  0.4309  0.9388  0.2406
   10SAPS    HS 1219   4.464   5.528   6.503  0.3000  0.4707  0.4519
   10SAPS   O21 1220   4.410   5.655   6.669  0.1933  0.0531 -0.1084
   10SAPS   C21 1221   4.286   5.600   6.677 -0.0704  0.5275 -0.7951
   10SAPS   O22 1222   4.254   5.492   6.629 -0.1614  0.2509 -0.2423
   10SAPS   C22 1223   4.191   5.698   6.745 -0.0278  1.2807 -0.1339
   10SAPS   H2R 1224   4.174   5.657   6.846  0.3857  0.4947 -0.3687
   10SAPS   H2S 1225   4.245   5.792   6.766  2.4693  0.0847 -0.7726
   10SAPS    C3 1226   4.533   5.425   6.681 -0.1290 -0.3181 -0.1695
   10SAPS    HX 1227   4.592   5.351   6.623  0.1010 -0.2936  0.0337
   10SAPS    HY 1228   4.442   5.364   6.703 -0.9231  0.4436 -1.2340
   10SAPS   O31 1229   4.608   5.455   6.794 -0.2114  0.1378  0.0085
   10SAPS   C31 1230   4.543   5.479   6.904  0.0300 -0.1628  0.5492
   10SAPS   O32 1231   4.422   5.451   6.920 -0.3055  0.1248 -0.7534
   10SAPS   C32 1232   4.636   5.550   7.002 -0.1707 -0.0672  0.4967
   10SAPS   H2X 1233   4.669   5.647   6.959 -0.4378  0.4177  1.3715
   10SAPS   H2Y 1234   4.731   5.492   7.002  0.5832  1.1056  2.3321
   10SAPS   C23 1235   4.061   5.720   6.666 -0.4978  0.5420  0.5650
   10SAPS   H3R 1236   4.014   5.622   6.644 -0.6883  0.2606  2.0887
   10SAPS   H3S 1237   4.093   5.777   6.576  1.8222 -1.0296  0.3133
   10SAPS   C24 1238   3.951   5.805   6.737 -0.0729 -0.2905  0.2022
   10SAPS   H4R 1239   3.865   5.820   6.669  0.0269 -1.4835 -0.1966
   10SAPS   H4S 1240   3.979   5.910   6.761 -2.9898  0.7565 -0.4946
   10SAPS   C25 1241   3.903   5.748   6.875  0.3375 -0.0923  0.2448
   10SAPS   H5R 1242   3.935   5.643   6.878 -0.1277 -0.2263  0.5899
   10SAPS   C26 1243   3.846   5.806   6.981  0.0975  0.0796 -0.5859
   10SAPS   H6R 1244   3.821   5.747   7.071  0.5129 -0.2829 -0.7040
   10SAPS   C27 1245   3.806   5.951   6.998 -0.0044 -0.3205 -0.1867
   10SAPS   H7R 1246   3.787   5.986   6.894 -1.1812 -3.2794 -1.0792
   10SAPS   H7S 1247   3.893   6.006   7.040 -1.1048  1.8749 -0.6587
   10SAPS   C28 1248   3.679   5.972   7.077  0.3870 -0.0537  0.4398
   10SAPS   H8R 1249   3.583   5.958   7.025 -0.3606  1.6650  1.2622
   10SAPS   C29 1250   3.669   6.012   7.207 -0.4113  0.4271 -0.4955
   10SAPS   H9R 1251   3.568   6.035   7.243 -1.7708 -3.1872 -1.6161
   10SAPS  C210 1252   3.782   6.041   7.303  0.2110 -0.2671 -0.1750
   10SAPS  H10R 1253   3.872   5.986   7.269  0.4862  0.3567 -0.4876
   10SAPS  H10S 1254   3.748   5.995   7.398 -0.6648  0.9080  0.1028
   10SAPS  C211 1255   3.799   6.189   7.318 -0.0767 -0.5052  0.8725
   10SAPS  H11R 1256   3.735   6.254   7.257  0.6851 -0.6936 -0.1748
   10SAPS  C212 1257   3.880   6.247   7.412  0.5949 -0.1371 -0.1080
   10SAPS  H12R 1258   3.889   6.356   7.415  1.5153 -0.1966 -0.4871
   10SAPS  C213 1259   3.964   6.173   7.513 -0.1856 -0.2184 -0.4837
   10SAPS  H13R 1260   4.021   6.090   7.466  0.0088 -0.2494 -0.1971
   10SAPS  H13S 1261   3.893   6.122   7.581  0.5297  0.2189  0.6348
   10SAPS  C214 1262   4.064   6.254   7.597  0.5645  0.2053 -0.4574
   10SAPS  H14R 1263   4.139   6.316   7.545  1.9429 -0.2563  0.8990
   10SAPS  C215 1264   4.080   6.244   7.730 -0.7603  0.4337 -0.2432
   10SAPS  H15R 1265   4.163   6.298   7.776  0.2488 -0.3975 -1.0432
   10SAPS  C216 1266   3.998   6.159   7.826 -0.2993  0.1107  0.6447
   10SAPS  H16R 1267   4.010   6.051   7.801 -0.8800  0.2198 -0.1507
   10SAPS  H16S 1268   3.893   6.193   7.823 -0.0586  0.9939  1.7971
   10SAPS  C217 1269   4.034   6.178   7.981 -0.2711  0.0245  0.2386
   10SAPS  H17R 1270   4.044   6.284   8.013 -1.0157 -0.2432  1.4002
   10SAPS  H17S 1271   4.136   6.137   7.997 -0.2181 -0.2307 -0.6885
   10SAPS  C218 1272   3.948   6.097   8.076  0.7563 -0.3977 -0.2954
   10SAPS  H18R 1273   3.944   5.991   8.042  1.7544 -0.5324 -0.0454
   10SAPS  H18S 1274   3.844   6.135   8.088  1.1751  0.4793  0.7552
   10SAPS  C219 1275   4.003   6.083   8.227 -0.1344 -0.9826 -0.0815
   10SAPS  H19R 1276   4.108   6.051   8.209  1.1326  3.1315 -1.2199
   10SAPS  H19S 1277   3.939   6.010   8.281 -2.0857 -1.3205 -2.6580
   10SAPS  C220 1278   4.013   6.209   8.307  0.2999 -0.0053  0.7308
   10SAPS  H20R 1279   4.089   6.284   8.275 -0.1217  0.3501  0.5418
   10SAPS  H20S 1280   4.029   6.188   8.414 -3.3208  2.9586  2.0721
   10SAPS  H20T 1281   3.917   6.265   8.303  0.8035  0.9053 -3.3091
   10SAPS   C33 1282   4.579   5.569   7.141  0.5135 -0.2353  0.6507
   10SAPS   H3X 1283   4.522   5.480   7.174 -0.5637  0.6966  1.4144
   10SAPS   H3Y 1284   4.509   5.655   7.140  2.0100  1.0909  2.5802
   10SAPS   C34 1285   4.682   5.597   7.251 -0.5832 -0.0263  0.6113
   10SAPS   H4X 1286   4.733   5.694   7.234  0.9106 -1.1139 -1.6069
   10SAPS   H4Y 1287   4.762   5.520   7.252  1.4648  1.9543 -0.3898
   10SAPS   C35 1288   4.631   5.600   7.395  0.1046  0.2263 -0.0841
   10SAPS   H5X 1289   4.558   5.520   7.418  0.0512  0.4509  0.5536
   10SAPS   H5Y 1290   4.582   5.699   7.402 -1.2670 -0.5163  1.4482
   10SAPS   C36 1291   4.740   5.601   7.504  0.0382  0.6835  0.3645
   10SAPS   H6X 1292   4.806   5.685   7.474 -0.2198  1.3483  1.6381
   10SAPS   H6Y 1293   4.795   5.504   7.504 -0.7915  0.1757  2.1154
   10SAPS   C37 1294   4.696   5.613   7.650 -0.1755 -0.4949  0.3034
   10SAPS   H7X 1295   4.663   5.717   7.668  0.6898  0.1993 -1.8458
   10SAPS   H7Y 1296   4.781   5.600   7.721  0.1512 -0.9875 -0.1707
   10SAPS   C38 1297   4.586   5.514   7.698 -0.2286 -1.0510 -0.8731
   10SAPS   H8X 1298   4.595   5.409   7.665  0.0528 -1.7800  1.3556
   10SAPS   H8Y 1299   4.484   5.544   7.667 -0.5070 -0.3971  0.6037
   10SAPS   C39 1300   4.589   5.518   7.853  0.1671  0.5869 -0.4254
   10SAPS   H9X 1301   4.488   5.482   7.883  1.1591 -0.3782  1.9936
   10SAPS   H9Y 1302   4.597   5.621   7.895 -1.2090  0.3942  0.3533
   10SAPS  C310 1303   4.689   5.418   7.919 -0.0640 -0.1897  0.1350
   10SAPS  H10X 1304   4.793   5.438   7.884 -0.0415  1.0646  0.8841
   10SAPS  H10Y 1305   4.664   5.315   7.886  1.2200 -0.0594 -1.3943
   10SAPS  C311 1306   4.679   5.405   8.074  0.4880  0.0169  0.1104
   10SAPS  H11X 1307   4.581   5.353   8.081  0.7730 -0.5814 -0.2373
   10SAPS  H11Y 1308   4.665   5.504   8.121  1.3562 -0.3555  1.2081
   10SAPS  C312 1309   4.789   5.331   8.149 -0.5488 -0.4393  0.4287
   10SAPS  H12X 1310   4.880   5.395   8.156 -1.1320  0.2903  1.6850
   10SAPS  H12Y 1311   4.809   5.236   8.095  0.8838 -0.6551  1.2895
   10SAPS  C313 1312   4.748   5.286   8.286  0.8725  0.1892  0.6951
   10SAPS  H13X 1313   4.640   5.263   8.274  1.3030 -2.3338  1.1002
   10SAPS  H13Y 1314   4.740   5.371   8.357 -1.1874 -1.0606  2.1159
   10SAPS  C314 1315   4.837   5.171   8.337 -0.4755  0.1708 -1.0416
   10SAPS  H14X 1316   4.946   5.189   8.335 -0.3122 -0.1400  1.7806
   10SAPS  H14Y 1317   4.816   5.078   8.280 -1.1046 -0.9863  0.9850
   10SAPS  C315 1318   4.809   5.151   8.489 -0.2257  0.2919  0.4984
   10SAPS  H15X 1319   4.703   5.127   8.511 -0.0426 -2.6214 -1.2144
   10SAPS  H15Y 1320   4.835   5.245   8.543  0.3317  0.5022 -0.1288
   10SAPS  C316 1321   4.899   5.039   8.537  0.0493 -0.0545 -0.2583
   10SAPS  H16X 1322   5.006   5.067   8.522 -0.7938  2.0810 -3.1543
   10SAPS  H16Y 1323   4.880   4.944   8.481 -0.4363  0.8957 -1.7712
   10SAPS  C317 1324   4.880   5.011   8.685 -0.3272  0.8535 -1.1089
   10SAPS  H17X 1325   4.871   5.101   8.750 -0.3817 -0.2455  0.4450
   10SAPS  H17Y 1326   4.972   4.962   8.723  1.3198  2.6326 -2.5971
   10SAPS  C318 1327   4.764   4.909   8.702  0.1722 -1.0091  0.1581
   10SAPS  H18X 1328   4.669   4.960   8.674  0.2874 -0.3654  0.8997
   10SAPS  H18Y 1329   4.754   4.882   8.810 -0.7475  1.7254  0.8429
   10SAPS  H18Z 1330   4.782   4.817   8.643 -0.7526 -0.0103 -1.7383
   11SAPS     N 1331   0.709   2.555   5.441  0.2510 -0.0193  0.0938
   11SAPS   HN1 1332   0.743   2.488   5.512 -2.2163 -0.0476  1.3718
   11SAPS   HN2 1333   0.635   2.504   5.387  0.1501 -0.1523  0.3592
   11SAPS   HN3 1334   0.792   2.577   5.382  1.0418 -3.4572 -0.2748
   11SAPS   C12 1335   0.636   2.672   5.501 -0.0864  1.1052  0.0642
   11SAPS  H12A 1336   0.710   2.717   5.566  1.7106 -1.0880 -0.3406
   11SAPS   C13 1337   0.586   2.777   5.400 -0.4242 -0.1648 -0.6621
   11SAPS  O13A 1338   0.609   2.761   5.279  0.1558 -0.4448 -0.2282
   11SAPS  O13B 1339   0.533   2.881   5.450  0.4123 -0.0816  0.0046
   11SAPS   C11 1340   0.527   2.622   5.604 -1.3534  0.2145  0.9108
   11SAPS  H11A 1341   0.464   2.559   5.539 -1.8872  0.9390  0.7072
   11SAPS  H11B 1342   0.482   2.718   5.639  0.5774  1.8506 -0.8307
   11SAPS     P 1343   0.624   2.407   5.741  0.3473 -0.0685  0.3883
   11SAPS   O13 1344   0.502   2.323   5.732 -0.4973 -0.2879 -0.0710
   11SAPS   O14 1345   0.729   2.378   5.639  0.4618  0.8703 -0.3052
   11SAPS   O12 1346   0.577   2.558   5.718  0.2311 -0.0172  0.1243
   11SAPS   O11 1347   0.676   2.410   5.887  0.4683 -0.2309  0.1059
   11SAPS    C1 1348   0.677   2.535   5.966 -0.2541 -0.5483 -0.3034
   11SAPS    HA 1349   0.746   2.606   5.915  0.7320  0.0977  1.8230
   11SAPS    HB 1350   0.578   2.585   5.963  0.1959  0.3176 -1.9173
   11SAPS    C2 1351   0.744   2.522   6.100 -0.2682  0.6458 -0.3742
   11SAPS    HS 1352   0.836   2.464   6.077 -0.7091  0.2325 -1.1375
   11SAPS   O21 1353   0.659   2.446   6.192  0.0319 -0.3958  0.2186
   11SAPS   C21 1354   0.696   2.336   6.237  0.6696  0.5188 -0.1230
   11SAPS   O22 1355   0.805   2.289   6.239 -0.6266  0.1872 -0.1294
   11SAPS   C22 1356   0.566   2.276   6.270  0.5278  0.4439  0.0072
   11SAPS   H2R 1357   0.513   2.353   6.329  0.6483 -2.2790  4.0737
   11SAPS   H2S 1358   0.511   2.255   6.175  1.6376 -0.4005 -0.4689
   11SAPS    C3 1359   0.769   2.659   6.168 -0.4741  0.2828 -0.3971
   11SAPS    HX 1360   0.667   2.699   6.189 -0.7083  0.0800 -1.1310
   11SAPS    HY 1361   0.827   2.713   6.090  0.2268  0.6069  0.3390
   11SAPS   O31 1362   0.836   2.655   6.297 -0.5943  0.4403 -0.1543
   11SAPS   C31 1363   0.968   2.616   6.299  0.0851  0.0664  0.4827
   11SAPS   O32 1364   1.027   2.568   6.205 -0.3589 -0.2686  0.2314
   11SAPS   C32 1365   1.021   2.649   6.431 -0.1467  0.0680 -1.0968
   11SAPS   H2X 1366   0.964   2.720   6.495  2.1888 -0.4483  1.7259
   11SAPS   H2Y 1367   1.116   2.699   6.403  1.0092 -1.4288  0.0311
   11SAPS   C23 1368   0.589   2.150   6.359 -0.8406  0.0759 -1.0012
   11SAPS   H3R 1369   0.621   2.178   6.462 -1.5029  0.3969 -0.8792
   11SAPS   H3S 1370   0.654   2.075   6.307  0.0340  0.6870 -0.8141
   11SAPS   C24 1371   0.463   2.063   6.391 -0.0414  0.6723  0.5881
   11SAPS   H4R 1372   0.495   1.961   6.422 -0.2214  0.2854 -0.4563
   11SAPS   H4S 1373   0.421   2.044   6.291  0.3202 -0.9918  0.7252
   11SAPS   C25 1374   0.353   2.121   6.475  0.2749  0.2541  0.9640
   11SAPS   H5R 1375   0.265   2.136   6.410  1.5006  0.6928 -0.6807
   11SAPS   C26 1376   0.343   2.157   6.604  0.1851 -0.0432  0.1780
   11SAPS   H6R 1377   0.248   2.196   6.642 -1.8328 -0.5867 -3.8018
   11SAPS   C27 1378   0.458   2.137   6.713  0.3317 -0.4198  0.9302
   11SAPS   H7R 1379   0.538   2.214   6.713  0.2308 -0.3012 -0.2299
   11SAPS   H7S 1380   0.516   2.046   6.684  2.3382  0.6926  1.2211
   11SAPS   C28 1381   0.402   2.126   6.852  0.6221 -0.5792 -0.7170
   11SAPS   H8R 1382   0.301   2.082   6.857 -0.5038  1.6219 -2.2369
   11SAPS   C29 1383   0.461   2.174   6.968  0.2312  0.3346  0.1135
   11SAPS   H9R 1384   0.399   2.171   7.059  0.9765 -0.2475  0.6091
   11SAPS  C210 1385   0.584   2.256   6.989  0.1519  0.1181 -0.7547
   11SAPS  H10R 1386   0.563   2.329   7.071 -2.2738  2.0624 -2.9169
   11SAPS  H10S 1387   0.624   2.313   6.903  0.8948 -2.3953 -2.1662
   11SAPS  C211 1388   0.705   2.175   7.032 -0.4934  0.2162  0.3580
   11SAPS  H11R 1389   0.757   2.137   6.943  1.3818 -0.8533  1.8258
   11SAPS  C212 1390   0.747   2.141   7.153  0.3961 -0.4839  0.5229
   11SAPS  H12R 1391   0.836   2.076   7.150  0.7268 -0.0123 -1.9789
   11SAPS  C213 1392   0.686   2.165   7.285 -0.6809  0.2063 -0.1357
   11SAPS  H13R 1393   0.710   2.069   7.335  2.6068  0.7352 -0.4078
   11SAPS  H13S 1394   0.580   2.191   7.268 -1.0817 -0.4048  1.3129
   11SAPS  C214 1395   0.743   2.281   7.368  0.1674 -0.4276  0.8546
   11SAPS  H14R 1396   0.759   2.370   7.304 -1.0662 -0.5553  0.3325
   11SAPS  C215 1397   0.764   2.277   7.501 -0.7835  0.1727 -0.3765
   11SAPS  H15R 1398   0.823   2.359   7.543 -1.0630  1.0413 -1.6000
   11SAPS  C216 1399   0.736   2.156   7.593 -0.4408 -0.2741 -0.4099
   11SAPS  H16R 1400   0.709   2.065   7.536 -0.5851 -0.3101 -0.2852
   11SAPS  H16S 1401   0.644   2.160   7.654 -1.4178  0.9877 -1.8965
   11SAPS  C217 1402   0.856   2.126   7.677  0.7269 -0.2897  0.1296
   11SAPS  H17R 1403   0.868   2.210   7.749  1.2642  0.5689 -0.9183
   11SAPS  H17S 1404   0.949   2.119   7.617  2.1211 -0.1805  2.1748
   11SAPS  C218 1405   0.855   1.993   7.761  0.0958 -0.2664  0.3916
   11SAPS  H18R 1406   0.834   1.899   7.705 -3.3719  0.5643  0.1236
   11SAPS  H18S 1407   0.772   2.007   7.833  0.1129 -3.0288  1.0894
   11SAPS  C219 1408   0.979   1.985   7.853  0.3238  0.7691 -0.1755
   11SAPS  H19R 1409   1.069   1.993   7.788 -0.0410  2.5873 -0.5324
   11SAPS  H19S 1410   0.982   1.890   7.910 -3.7492  1.4374  1.4981
   11SAPS  C220 1411   0.995   2.099   7.951  0.0361 -0.9331 -0.5865
   11SAPS  H20R 1412   1.070   2.091   8.032 -0.2631  0.4559 -0.1427
   11SAPS  H20S 1413   0.895   2.119   7.995  0.3208 -1.0747  0.1242
   11SAPS  H20T 1414   1.028   2.192   7.899  1.4078 -1.0787 -0.0230
   11SAPS   C33 1415   1.070   2.535   6.526 -0.7306 -0.7559  0.2347
   11SAPS   H3X 1416   1.122   2.583   6.611 -0.3867 -1.0372  0.1849
   11SAPS   H3Y 1417   1.146   2.485   6.462 -1.6350 -2.5051  0.4724
   11SAPS   C34 1418   0.961   2.444   6.580 -0.4734  0.0508 -0.2766
   11SAPS   H4X 1419   1.015   2.371   6.644 -0.5238  0.1208 -0.1544
   11SAPS   H4Y 1420   0.916   2.384   6.498  0.9770 -3.0371  1.0140
   11SAPS   C35 1421   0.851   2.510   6.665  0.0600  0.2946  0.0564
   11SAPS   H5X 1422   0.779   2.434   6.703 -0.7577 -0.9607 -3.5772
   11SAPS   H5Y 1423   0.796   2.575   6.594  1.0149  0.2191 -0.7738
   11SAPS   C36 1424   0.917   2.612   6.762  0.5114  0.7871  0.2541
   11SAPS   H6X 1425   0.957   2.694   6.700  1.9893 -0.7519 -0.9348
   11SAPS   H6Y 1426   0.987   2.561   6.833  0.7155  0.6719 -0.0253
   11SAPS   C37 1427   0.807   2.678   6.845  0.1788  1.3526 -0.1585
   11SAPS   H7X 1428   0.739   2.595   6.875 -0.4835  2.3685  1.2587
   11SAPS   H7Y 1429   0.737   2.744   6.791 -1.6758 -1.2554 -1.1287
   11SAPS   C38 1430   0.844   2.738   6.989  0.4663 -0.2461  0.1016
   11SAPS   H8X 1431   0.755   2.759   7.052  0.8057 -1.3705  1.0042
   11SAPS   H8Y 1432   0.901   2.833   6.987  0.4521 -0.2123  0.9217
   11SAPS   C39 1433   0.925   2.636   7.072  0.0121  0.7587 -0.2674
   11SAPS   H9X 1434   1.029   2.633   7.033 -0.9073  2.4122 -3.1122
   11SAPS   H9Y 1435   0.875   2.537   7.065  0.5557  0.5808 -1.9612
   11SAPS  C310 1436   0.934   2.683   7.222  0.1003 -0.3994 -0.6827
   11SAPS  H10X 1437   0.833   2.685   7.268 -0.4905 -0.9213 -1.9202
   11SAPS  H10Y 1438   0.982   2.783   7.229  3.2218 -1.8454  0.9499
   11SAPS  C311 1439   1.014   2.591   7.308 -0.0372  0.0392 -0.3326
   11SAPS  H11X 1440   1.118   2.590   7.267 -0.5557 -1.1811 -1.7263
   11SAPS  H11Y 1441   0.975   2.488   7.324  1.9818 -0.6507  0.5814
   11SAPS  C312 1442   1.037   2.635   7.453 -0.1272 -0.9942  0.2701
   11SAPS  H12X 1443   0.949   2.672   7.510  0.5248 -2.2644  2.2175
   11SAPS  H12Y 1444   1.103   2.724   7.451  0.8793 -1.6656  1.9270
   11SAPS  C313 1445   1.097   2.538   7.552 -0.0251  0.3807 -0.6038
   11SAPS  H13X 1446   1.199   2.514   7.514  0.5319  1.5395  0.0840
   11SAPS  H13Y 1447   1.040   2.443   7.560  1.2475 -0.4690 -1.2549
   11SAPS  C314 1448   1.106   2.593   7.701  0.5503 -0.0420  0.5360
   11SAPS  H14X 1449   1.002   2.630   7.718  0.8488  1.5607 -0.8481
   11SAPS  H14Y 1450   1.170   2.684   7.693 -0.4046  0.6390  0.4701
   11SAPS  C315 1451   1.145   2.500   7.813  0.0610 -0.5867 -0.1926
   11SAPS  H15X 1452   1.240   2.446   7.793  0.9993  0.9518 -0.0774
   11SAPS  H15Y 1453   1.078   2.413   7.797  2.7568 -2.7568 -0.4790
   11SAPS  C316 1454   1.145   2.561   7.947 -0.0555  0.7411 -0.8579
   11SAPS  H16X 1455   1.049   2.611   7.971  0.4826  0.8249  1.3701
   11SAPS  H16Y 1456   1.223   2.640   7.939 -1.1114  1.8314 -0.7550
   11SAPS  C317 1457   1.189   2.474   8.065 -0.1390  0.2925  0.9636
   11SAPS  H17X 1458   1.279   2.418   8.031 -0.9893 -0.9416  0.6984
   11SAPS  H17Y 1459   1.111   2.398   8.087  0.6323 -1.4395 -1.8580
   11SAPS  C318 1460   1.230   2.553   8.189 -0.4083  0.6031 -0.1976
   11SAPS  H18X 1461   1.327   2.607   8.181 -0.8515  1.7406  1.4444
   11SAPS  H18Y 1462   1.242   2.477   8.269 -0.6360 -0.3465 -1.0438
   11SAPS  H18Z 1463   1.155   2.627   8.225  0.0301  0.1626  1.7191
   12SAPS     N 1464   6.405   2.282   6.304 -0.4671 -0.0435 -0.5269
   12SAPS   HN1 1465   6.371   2.378   6.323  0.2615 -0.0124  0.7733
   12SAPS   HN2 1466   6.355   2.214   6.365  1.3046 -1.7997 -0.8943
   12SAPS   HN3 1467   6.507   2.273   6.325 -0.7005 -2.5605 -0.1200
   12SAPS   C12 1468   6.375   2.261   6.160 -0.8945  0.8983  0.6301
   12SAPS  H12A 1469   6.402   2.165   6.120 -2.4070  0.5272  0.4279
   12SAPS   C13 1470   6.217   2.269   6.136 -0.1661 -0.6482 -0.1986
   12SAPS  O13A 1471   6.136   2.307   6.220 -0.1460 -0.1945  0.0088
   12SAPS  O13B 1472   6.189   2.236   6.016  0.2420  0.1587  0.1463
   12SAPS   C11 1473   6.431   2.384   6.076  0.2473 -0.3636  0.0317
   12SAPS  H11A 1474   6.382   2.477   6.111 -0.4013 -0.1751 -1.3213
   12SAPS  H11B 1475   6.423   2.361   5.968  1.1924 -1.2724  0.1386
   12SAPS     P 1476   6.690   2.388   6.008  0.1800 -0.3718 -0.1121
   12SAPS   O13 1477   6.699   2.249   5.965  0.5061 -0.1476  0.3901
   12SAPS   O14 1478   6.683   2.489   5.905  0.1485 -0.4329  0.5748
   12SAPS   O12 1479   6.569   2.390   6.107  0.9039  0.3040  0.2944
   12SAPS   O11 1480   6.813   2.424   6.100  0.0854 -0.3530  0.1268
   12SAPS    C1 1481   6.800   2.517   6.209  0.6636  0.5347 -0.0359
   12SAPS    HA 1482   6.898   2.569   6.220  0.9872  0.1868 -1.1776
   12SAPS    HB 1483   6.719   2.591   6.189 -1.6131 -2.0696 -1.0205
   12SAPS    C2 1484   6.774   2.449   6.346 -0.2915 -0.0218 -0.9057
   12SAPS    HS 1485   6.678   2.393   6.336 -0.9913  0.6346  1.4180
   12SAPS   O21 1486   6.765   2.542   6.452 -0.1350 -0.7289  0.5673
   12SAPS   C21 1487   6.676   2.526   6.545  0.3141  0.2728  0.1526
   12SAPS   O22 1488   6.585   2.447   6.552  0.2435 -0.2266  0.2696
   12SAPS   C22 1489   6.704   2.627   6.649  0.1811 -0.1859  0.0978
   12SAPS   H2R 1490   6.772   2.575   6.720  0.2602 -1.1046 -0.6242
   12SAPS   H2S 1491   6.760   2.711   6.602  2.3145 -2.1749 -1.1247
   12SAPS    C3 1492   6.880   2.339   6.376 -0.3171 -0.3136 -0.0123
   12SAPS    HX 1493   6.987   2.369   6.372 -0.6816  1.3925  1.6552
   12SAPS    HY 1494   6.866   2.261   6.299  1.8332 -1.8868  1.0897
   12SAPS   O31 1495   6.852   2.284   6.509  0.0935  0.0211  0.0746
   12SAPS   C31 1496   6.749   2.196   6.520 -0.3447  0.6199  0.5001
   12SAPS   O32 1497   6.663   2.177   6.435 -0.1115 -0.0927  0.3333
   12SAPS   C32 1498   6.741   2.135   6.662 -0.3359  0.6264  0.0527
   12SAPS   H2X 1499   6.794   2.038   6.651 -1.7798 -0.0662 -1.2561
   12SAPS   H2Y 1500   6.635   2.105   6.677 -0.1346 -1.5048 -2.1924
   12SAPS   C23 1501   6.567   2.695   6.700 -0.0012  0.2102 -0.3704
   12SAPS   H3R 1502   6.578   2.765   6.785 -1.8865  1.5739 -1.1899
   12SAPS   H3S 1503   6.504   2.616   6.746  2.7005 -0.0455  3.4104
   12SAPS   C24 1504   6.489   2.771   6.590 -0.2546  0.2513 -0.7177
   12SAPS   H4R 1505   6.477   2.697   6.508  0.9468 -2.1359  1.1478
   12SAPS   H4S 1506   6.550   2.856   6.554 -0.7828  0.7894 -0.3605
   12SAPS   C25 1507   6.359   2.835   6.625 -0.2376  0.4075  0.8906
   12SAPS   H5R 1508   6.278   2.802   6.559  0.4390  1.2723 -0.4015
   12SAPS   C26 1509   6.320   2.914   6.718  0.0503 -0.6049  0.5152
   12SAPS   H6R 1510   6.214   2.944   6.716 -0.1100 -1.1719 -1.3812
   12SAPS   C27 1511   6.413   2.982   6.824  0.1698 -0.9668 -0.0198
   12SAPS   H7R 1512   6.461   2.908   6.892 -0.6390 -1.1532  0.3566
   12SAPS   H7S 1513   6.359   3.051   6.892  1.4694  0.1273 -0.0675
   12SAPS   C28 1514   6.525   3.072   6.764 -0.5047 -0.3684  0.0731
   12SAPS   H8R 1515   6.560   3.043   6.664 -1.3443 -1.1982  0.0081
   12SAPS   C29 1516   6.570   3.190   6.817  0.5397 -0.0056  0.8363
   12SAPS   H9R 1517   6.636   3.256   6.758 -0.4299 -0.5508 -0.9304
   12SAPS  C210 1518   6.533   3.249   6.946 -0.5067  0.4395 -0.0721
   12SAPS  H10R 1519   6.423   3.242   6.964 -0.7445 -1.7801 -2.0411
   12SAPS  H10S 1520   6.549   3.359   6.947  1.0128  0.2343  0.7477
   12SAPS  C211 1521   6.624   3.192   7.055 -0.6228 -0.5467  0.5034
   12SAPS  H11R 1522   6.729   3.188   7.020 -0.6279  0.2288  0.3921
   12SAPS  C212 1523   6.602   3.138   7.177  0.2021  1.1122 -0.0417
   12SAPS  H12R 1524   6.684   3.120   7.248  1.5459  0.2524 -1.7405
   12SAPS  C213 1525   6.463   3.121   7.233  1.2516 -0.0169  0.3321
   12SAPS  H13R 1526   6.383   3.116   7.157 -1.3277  2.3882  2.6396
   12SAPS  H13S 1527   6.442   3.217   7.286  0.4840 -0.3955  0.7283
   12SAPS  C214 1528   6.432   3.012   7.331 -0.7495 -0.5433  0.7209
   12SAPS  H14R 1529   6.397   2.921   7.280  0.7691 -1.0048  0.4471
   12SAPS  C215 1530   6.478   2.994   7.454  0.5614  0.0920  0.6086
   12SAPS  H15R 1531   6.432   2.912   7.510 -0.2962  0.1926  0.0645
   12SAPS  C216 1532   6.560   3.094   7.537  0.4808 -0.8589 -1.0595
   12SAPS  H16R 1533   6.594   3.172   7.465 -1.5762  1.3243  0.1948
   12SAPS  H16S 1534   6.652   3.050   7.582 -0.8282 -0.0788  2.6866
   12SAPS  C217 1535   6.479   3.165   7.650  0.3776  0.0309  0.6511
   12SAPS  H17R 1536   6.391   3.217   7.607  1.0940 -0.7399 -1.9640
   12SAPS  H17S 1537   6.558   3.237   7.682  2.3173 -1.0939 -1.2612
   12SAPS  C218 1538   6.437   3.077   7.773  0.1723 -0.0817  0.2506
   12SAPS  H18R 1539   6.362   2.998   7.750  0.1338 -0.6710  2.2318
   12SAPS  H18S 1540   6.390   3.140   7.851  0.0448 -2.5718  2.3124
   12SAPS  C219 1541   6.562   3.016   7.849  0.8451 -0.3654  0.9012
   12SAPS  H19R 1542   6.627   3.105   7.863  0.0041  0.6206 -1.0720
   12SAPS  H19S 1543   6.601   2.953   7.766 -0.5993  0.3486 -0.3729
   12SAPS  C220 1544   6.537   2.936   7.970  0.4535  0.3171  0.7279
   12SAPS  H20R 1545   6.474   2.989   8.045 -0.3685 -0.8137  0.8444
   12SAPS  H20S 1546   6.625   2.890   8.021 -1.1200 -3.8989  0.0287
   12SAPS  H20T 1547   6.468   2.851   7.954  0.2610  0.2759  1.7142
   12SAPS   C33 1548   6.811   2.219   6.777  0.2633  0.0138 -0.0262
   12SAPS   H3X 1549   6.755   2.310   6.807 -0.2025 -0.5900  1.0044
   12SAPS   H3Y 1550   6.910   2.256   6.741  0.5788  0.7501  1.5179
   12SAPS   C34 1551   6.822   2.134   6.902 -0.8687 -0.4246 -0.6136
   12SAPS   H4X 1552   6.883   2.045   6.875  0.4669  0.3194 -0.1635
   12SAPS   H4Y 1553   6.721   2.093   6.925 -0.8852  0.0028  0.1250
   12SAPS   C35 1554   6.867   2.203   7.037  0.1395 -0.6759  0.4476
   12SAPS   H5X 1555   6.797   2.285   7.066  1.8317  0.2052  2.3088
   12SAPS   H5Y 1556   6.973   2.234   7.021  0.4117 -2.4094 -1.5201
   12SAPS   C36 1557   6.875   2.127   7.168 -0.6954  0.0669  0.7691
   12SAPS   H6X 1558   6.903   2.022   7.143 -2.1664 -0.2163  0.2090
   12SAPS   H6Y 1559   6.773   2.114   7.209 -1.6759 -4.3028 -2.2860
   12SAPS   C37 1560   6.960   2.206   7.261 -0.0208 -0.8415 -0.7070
   12SAPS   H7X 1561   6.897   2.294   7.284  1.1260 -0.3699  0.8334
   12SAPS   H7Y 1562   7.053   2.241   7.210 -1.0547  2.8440 -0.2985
   12SAPS   C38 1563   6.998   2.132   7.392 -0.0894 -0.6192  0.1527
   12SAPS   H8X 1564   7.076   2.193   7.442 -1.1765  0.9126  0.0653
   12SAPS   H8Y 1565   7.042   2.033   7.368 -0.4985 -0.4549 -1.3289
   12SAPS   C39 1566   6.891   2.108   7.501 -0.0665  0.2064 -0.4941
   12SAPS   H9X 1567   6.804   2.061   7.451  1.5992 -1.6431 -1.8538
   12SAPS   H9Y 1568   6.857   2.204   7.544 -2.0403 -0.0714 -1.3243
   12SAPS  C310 1569   6.938   2.026   7.621  0.2459 -0.0520  0.3445
   12SAPS  H10X 1570   7.031   2.075   7.656  0.1774 -0.9558  1.8731
   12SAPS  H10Y 1571   6.975   1.924   7.599  0.8273 -0.6707  3.6781
   12SAPS  C311 1572   6.831   2.017   7.722 -0.9085  0.5657 -0.4102
   12SAPS  H11X 1573   6.744   1.963   7.677 -0.7546 -0.3377  0.3354
   12SAPS  H11Y 1574   6.814   2.124   7.744  1.4438  0.5786  1.7998
   12SAPS  C312 1575   6.876   1.944   7.851 -0.0596  0.2864  0.3548
   12SAPS  H12X 1576   6.970   1.994   7.881  1.4083 -0.3231 -2.8010
   12SAPS  H12Y 1577   6.910   1.840   7.832 -1.4649 -0.4556  1.6911
   12SAPS  C313 1578   6.764   1.946   7.954 -0.3622 -0.0808 -0.3117
   12SAPS  H13X 1579   6.799   1.888   8.042 -0.4777  1.2650  0.6529
   12SAPS  H13Y 1580   6.678   1.893   7.909 -0.0136 -1.9673  1.1525
   12SAPS  C314 1581   6.723   2.088   8.003 -0.2771  0.1460  0.0153
   12SAPS  H14X 1582   6.635   2.061   8.066  0.0535  1.0699  0.8894
   12SAPS  H14Y 1583   6.686   2.154   7.922  0.8154 -0.5161 -1.0555
   12SAPS  C315 1584   6.815   2.166   8.109  0.0670 -0.3314 -0.0798
   12SAPS  H15X 1585   6.856   2.096   8.185 -1.6909 -0.3273  0.9285
   12SAPS  H15Y 1586   6.752   2.241   8.161  1.7378  1.0219  0.0563
   12SAPS  C316 1587   6.928   2.250   8.046  0.2723  0.0490  0.2623
   12SAPS  H16X 1588   6.885   2.314   7.966 -3.3275  1.0532  2.7300
   12SAPS  H16Y 1589   7.012   2.194   8.000  2.1905  1.7352  1.5030
   12SAPS  C317 1590   6.982   2.345   8.155  0.7365 -0.4002 -0.0529
   12SAPS  H17X 1591   6.981   2.285   8.249  0.8839 -1.7356 -0.8854
   12SAPS  H17Y 1592   6.908   2.426   8.174  1.1395  0.2331 -1.1155
   12SAPS  C318 1593   7.111   2.427   8.123  0.1569  0.2509  0.1831
   12SAPS  H18X 1594   7.123   2.495   8.210  1.3917 -1.5344  1.4841
   12SAPS  H18Y 1595   7.111   2.480   8.025 -2.0777 -0.2310 -0.1361
   12SAPS  H18Z 1596   7.190   2.350   8.137 -0.3372 -0.2081  0.4820
   13SAPS     N 1597   0.816   6.462   6.296  0.2833  0.4964  0.2325
   13SAPS   HN1 1598   0.894   6.457   6.364 -0.2778 -0.3360  0.8368
   13SAPS   HN2 1599   0.732   6.454   6.357  0.0044  0.7806 -0.1109
   13SAPS   HN3 1600   0.819   6.375   6.238 -0.4891 -0.1015  1.0660
   13SAPS   C12 1601   0.819   6.577   6.203 -0.2050  0.5431  0.0564
   13SAPS  H12A 1602   0.821   6.665   6.266  1.0745 -0.5835  1.6681
   13SAPS   C13 1603   0.933   6.570   6.104 -0.2269  0.4704  0.2626
   13SAPS  O13A 1604   0.981   6.454   6.073  0.4107 -0.2175  0.1717
   13SAPS  O13B 1605   0.961   6.667   6.034 -0.2796 -0.5951  0.0783
   13SAPS   C11 1606   0.690   6.595   6.121 -0.4592 -0.3367 -0.2461
   13SAPS  H11A 1607   0.676   6.505   6.058  0.2939  0.8781 -2.2531
   13SAPS  H11B 1608   0.706   6.684   6.056  1.0602  0.0069  0.5586
   13SAPS     P 1609   0.430   6.604   6.169  0.0219  0.2735 -0.0886
   13SAPS   O13 1610   0.438   6.601   6.022 -0.2394  0.0055  0.2180
   13SAPS   O14 1611   0.359   6.488   6.235 -0.3296  0.4290 -0.3310
   13SAPS   O12 1612   0.579   6.610   6.212  0.0670 -0.1083 -0.5520
   13SAPS   O11 1613   0.381   6.744   6.212  0.2884 -0.1245 -0.2309
   13SAPS    C1 1614   0.423   6.808   6.332 -0.1556  0.7500  0.6758
   13SAPS    HA 1615   0.534   6.813   6.337  0.0058 -0.4751 -0.7092
   13SAPS    HB 1616   0.382   6.911   6.325  0.2191  0.9906  1.8769
   13SAPS    C2 1617   0.361   6.753   6.463 -0.0965  0.3250  0.5408
   13SAPS    HS 1618   0.368   6.642   6.460  0.5873  0.3653  0.4734
   13SAPS   O21 1619   0.230   6.807   6.482 -0.0173  0.0771  0.2157
   13SAPS   C21 1620   0.137   6.720   6.532  0.3663  0.1088  0.1901
   13SAPS   O22 1621   0.148   6.599   6.526 -0.1809  0.0208 -0.1431
   13SAPS   C22 1622   0.033   6.796   6.604  0.2723 -0.9148  0.2734
   13SAPS   H2R 1623   0.075   6.892   6.641 -1.2650  0.8091 -2.1771
   13SAPS   H2S 1624  -0.046   6.824   6.530  0.6430 -2.5275 -0.7806
   13SAPS    C3 1625   0.443   6.798   6.584  0.1492  0.8092 -0.5307
   13SAPS    HX 1626   0.461   6.907   6.592  3.3373  0.3135  0.4703
   13SAPS    HY 1627   0.546   6.756   6.591 -0.1660 -0.1052 -1.1636
   13SAPS   O31 1628   0.388   6.744   6.707  0.4191  0.3462  0.1952
   13SAPS   C31 1629   0.405   6.618   6.742  0.1961  0.4219 -0.6725
   13SAPS   O32 1630   0.445   6.527   6.674  0.7084  0.7623  0.1649
   13SAPS   C32 1631   0.354   6.601   6.886  0.5079 -0.1002  0.4044
   13SAPS   H2X 1632   0.377   6.494   6.904  0.1977 -0.1895  0.2816
   13SAPS   H2Y 1633   0.243   6.605   6.880  0.5309 -0.6608 -0.6045
   13SAPS   C23 1634  -0.034   6.709   6.711 -0.4764  0.0015 -0.3783
   13SAPS   H3R 1635   0.041   6.681   6.788  0.1389  1.5042 -0.4001
   13SAPS   H3S 1636  -0.093   6.623   6.672 -0.0117 -1.4782  2.0050
   13SAPS   C24 1637  -0.145   6.795   6.781  0.1389  0.2011 -0.4915
   13SAPS   H4R 1638  -0.222   6.815   6.703 -2.1499 -0.1033  1.5750
   13SAPS   H4S 1639  -0.111   6.898   6.807  2.9282 -0.5587 -0.7752
   13SAPS   C25 1640  -0.204   6.710   6.889  0.3983  0.2628 -0.4779
   13SAPS   H5R 1641  -0.274   6.632   6.856 -0.5704  0.0962  1.7631
   13SAPS   C26 1642  -0.196   6.730   7.019 -0.2789  0.5081 -0.3162
   13SAPS   H6R 1643  -0.249   6.666   7.090 -1.4324  0.7902 -0.8794
   13SAPS   C27 1644  -0.112   6.835   7.083 -0.9422  0.1062 -0.4822
   13SAPS   H7R 1645  -0.170   6.883   7.165  1.7275 -0.8790  2.1620
   13SAPS   H7S 1646  -0.086   6.922   7.018  2.4954  0.3490  1.0302
   13SAPS   C28 1647   0.018   6.781   7.146 -0.3275  0.2916 -0.2358
   13SAPS   H8R 1648   0.098   6.746   7.080  0.3565 -1.8790  1.5926
   13SAPS   C29 1649   0.041   6.762   7.281 -0.1295  0.6395  0.2390
   13SAPS   H9R 1650   0.136   6.713   7.308 -1.0448 -0.4504  1.6490
   13SAPS  C210 1651  -0.066   6.776   7.387 -0.1596  0.8418  0.5986
   13SAPS  H10R 1652  -0.164   6.730   7.362 -0.9133  0.3507  3.9628
   13SAPS  H10S 1653  -0.093   6.883   7.403 -0.7272  0.7267  0.4266
   13SAPS  C211 1654  -0.037   6.706   7.516  1.0153  0.4157 -0.3028
   13SAPS  H11R 1655  -0.088   6.610   7.523 -0.7482  1.0343 -2.9953
   13SAPS  C212 1656   0.039   6.761   7.615  0.1912 -0.3669  0.1864
   13SAPS  H12R 1657   0.069   6.701   7.703  0.8409 -0.7610 -0.2914
   13SAPS  C213 1658   0.122   6.890   7.594  0.6677  0.4382 -0.2584
   13SAPS  H13R 1659   0.132   6.921   7.488 -1.5373 -2.8876 -1.6200
   13SAPS  H13S 1660   0.223   6.861   7.631 -0.3105 -1.4781  1.0680
   13SAPS  C214 1661   0.061   7.006   7.673 -0.1210  0.6659 -0.9358
   13SAPS  H14R 1662  -0.019   7.060   7.620  1.5555  1.1251 -3.1440
   13SAPS  C215 1663   0.091   7.035   7.799 -0.1013 -0.2783  0.3367
   13SAPS  H15R 1664   0.070   7.130   7.851  3.9402  2.1165 -1.9316
   13SAPS  C216 1665   0.200   6.961   7.878 -0.4392  0.4552  0.3443
   13SAPS  H16R 1666   0.223   6.857   7.845  0.5702 -0.0209  2.3426
   13SAPS  H16S 1667   0.162   6.941   7.981  1.0421 -0.7631  0.6946
   13SAPS  C217 1668   0.339   7.028   7.899  0.3279 -0.4028 -0.0906
   13SAPS  H17R 1669   0.324   7.130   7.940 -0.1282 -0.0844 -1.0125
   13SAPS  H17S 1670   0.389   7.043   7.800 -1.2632 -0.9014 -1.0056
   13SAPS  C218 1671   0.431   6.933   7.976  0.5137 -0.6239  0.7050
   13SAPS  H18R 1672   0.533   6.972   7.956 -0.0680  1.3988  1.3537
   13SAPS  H18S 1673   0.415   6.832   7.933 -2.4154 -0.8083  1.9837
   13SAPS  C219 1674   0.414   6.928   8.122 -0.0008 -0.1864 -0.4617
   13SAPS  H19R 1675   0.451   6.832   8.164  0.1927  0.6594  1.3919
   13SAPS  H19S 1676   0.306   6.923   8.147  0.0807 -0.5710 -0.1733
   13SAPS  C220 1677   0.470   7.043   8.196  1.0187 -0.8247  1.1993
   13SAPS  H20R 1678   0.432   7.142   8.162  3.2046  0.5172  2.4921
   13SAPS  H20S 1679   0.580   7.046   8.182  0.9256 -3.4663 -1.1376
   13SAPS  H20T 1680   0.444   7.037   8.304  0.2163 -0.6175  1.0282
   13SAPS   C33 1681   0.409   6.711   6.977  0.7697 -0.0993 -0.0080
   13SAPS   H3X 1682   0.353   6.805   6.958 -0.9854 -1.3263 -1.2897
   13SAPS   H3Y 1683   0.518   6.735   6.974  1.3229 -2.1690  1.2302
   13SAPS   C34 1684   0.398   6.661   7.118  0.6483  0.1961  0.6801
   13SAPS   H4X 1685   0.455   6.567   7.132 -0.7487 -0.5254  1.7390
   13SAPS   H4Y 1686   0.289   6.648   7.138 -0.4384  4.1191 -1.6121
   13SAPS   C35 1687   0.463   6.759   7.217 -0.0864 -0.3234  0.3510
   13SAPS   H5X 1688   0.411   6.856   7.222 -0.3927 -0.4791  0.1805
   13SAPS   H5Y 1689   0.562   6.792   7.178 -1.5557  2.3635 -1.3637
   13SAPS   C36 1690   0.477   6.699   7.363  0.9250 -0.3945  0.4353
   13SAPS   H6X 1691   0.568   6.635   7.369  0.9687 -0.5361 -1.3931
   13SAPS   H6Y 1692   0.380   6.647   7.374 -0.7882  2.5405  0.4842
   13SAPS   C37 1693   0.478   6.807   7.474 -0.1261  0.0104  0.2408
   13SAPS   H7X 1694   0.379   6.858   7.474 -0.8015 -1.2660 -0.5284
   13SAPS   H7Y 1695   0.551   6.884   7.441  0.5443 -0.9896 -0.6798
   13SAPS   C38 1696   0.515   6.749   7.609 -0.1112  0.4851 -0.1053
   13SAPS   H8X 1697   0.469   6.648   7.610  0.7241  0.0669 -1.6214
   13SAPS   H8Y 1698   0.460   6.798   7.692  2.1557  1.1228  1.0946
   13SAPS   C39 1699   0.659   6.727   7.648 -0.0273 -0.3221  0.1914
   13SAPS   H9X 1700   0.705   6.826   7.629 -0.8241 -0.2222 -1.2820
   13SAPS   H9Y 1701   0.709   6.655   7.579  0.0430 -0.6382  0.5671
   13SAPS  C310 1702   0.682   6.685   7.797 -0.7976  0.6746  0.1605
   13SAPS  H10X 1703   0.628   6.594   7.831 -1.3049  1.0257  0.3047
   13SAPS  H10Y 1704   0.624   6.755   7.862 -2.6636 -0.7334  0.0575
   13SAPS  C311 1705   0.834   6.675   7.833  0.0548 -0.6257 -0.2985
   13SAPS  H11X 1706   0.836   6.672   7.944  0.4923  0.4914 -0.2745
   13SAPS  H11Y 1707   0.891   6.764   7.801 -1.4383  0.1884 -0.7656
   13SAPS  C312 1708   0.900   6.555   7.771  0.1342  0.9027  0.4321
   13SAPS  H12X 1709   1.006   6.565   7.804  0.2683 -0.5574  0.4958
   13SAPS  H12Y 1710   0.895   6.568   7.661 -0.1379 -0.3905  0.2805
   13SAPS  C313 1711   0.840   6.424   7.819 -0.1505  0.1573 -0.6578
   13SAPS  H13X 1712   0.876   6.337   7.760 -0.2923  0.3567 -1.0397
   13SAPS  H13Y 1713   0.729   6.420   7.815 -0.2155 -1.3491  1.2214
   13SAPS  C314 1714   0.879   6.390   7.967  0.4569 -0.3821  0.6025
   13SAPS  H14X 1715   0.814   6.447   8.036  0.1376 -1.5288  1.2698
   13SAPS  H14Y 1716   0.981   6.428   7.987  0.1828  0.6563  0.0719
   13SAPS  C315 1717   0.861   6.238   7.995  0.3919 -0.6676  0.9515
   13SAPS  H15X 1718   0.905   6.190   7.906 -1.7354  1.5169 -1.4454
   13SAPS  H15Y 1719   0.751   6.235   7.982  0.3836  1.0550  0.3016
   13SAPS  C316 1720   0.923   6.192   8.123 -0.1202 -0.9515  0.2166
   13SAPS  H16X 1721   1.024   6.237   8.136 -0.5943  0.0322  0.6419
   13SAPS  H16Y 1722   0.927   6.081   8.128 -0.6395 -0.9741  0.1537
   13SAPS  C317 1723   0.843   6.253   8.245 -0.1512  0.1992  0.1770
   13SAPS  H17X 1724   0.740   6.220   8.219 -0.7429 -0.1572  2.7281
   13SAPS  H17Y 1725   0.853   6.363   8.239 -0.9954  0.3665  1.4904
   13SAPS  C318 1726   0.888   6.208   8.386 -0.0184  0.1061 -0.0954
   13SAPS  H18X 1727   0.824   6.263   8.458 -0.8146 -0.5832 -0.2567
   13SAPS  H18Y 1728   0.994   6.237   8.404 -0.0745 -0.3529  1.0634
   13SAPS  H18Z 1729   0.877   6.099   8.403  0.5020 -0.6135 -3.5999
   14SAPS     N 1730   6.273   3.087   5.477 -0.2251  0.3045 -0.3827
   14SAPS   HN1 1731   6.267   3.062   5.376 -0.3493 -0.3900 -0.2072
   14SAPS   HN2 1732   6.332   3.173   5.478 -0.2499  0.3140  0.2429
   14SAPS   HN3 1733   6.311   3.006   5.530 -0.9120 -0.8690 -1.6174
   14SAPS   C12 1734   6.138   3.123   5.528  0.2908 -0.2168  0.3887
   14SAPS  H12A 1735   6.097   3.210   5.478  1.3154 -0.4146 -0.8521
   14SAPS   C13 1736   6.017   3.029   5.497 -0.4047  0.1226 -0.0241
   14SAPS  O13A 1737   6.040   2.929   5.422  0.8099  0.1875 -0.5775
   14SAPS  O13B 1738   5.909   3.058   5.548 -0.5550  0.3730  0.2807
   14SAPS   C11 1739   6.151   3.157   5.676 -0.5914  0.0477 -0.3773
   14SAPS  H11A 1740   6.214   3.079   5.723 -0.9854  0.0637  0.1840
   14SAPS  H11B 1741   6.047   3.158   5.715 -0.5634 -0.2596 -0.2966
   14SAPS     P 1742   6.290   3.347   5.807 -0.8009  0.4331 -0.3726
   14SAPS   O13 1743   6.385   3.432   5.734  0.3263  0.3124  0.1771
   14SAPS   O14 1744   6.196   3.404   5.900 -0.2769 -0.2753  0.3198
   14SAPS   O12 1745   6.209   3.289   5.689 -0.0562 -0.0843 -0.2884
   14SAPS   O11 1746   6.364   3.216   5.864  0.6060 -0.1713  0.0360
   14SAPS    C1 1747   6.329   3.144   5.974  0.7874  0.4036 -0.1821
   14SAPS    HA 1748   6.220   3.127   5.981  0.9127 -0.9068 -1.1564
   14SAPS    HB 1749   6.377   3.045   5.962  0.6865  0.2302  0.7474
   14SAPS    C2 1750   6.389   3.219   6.104  0.3335  0.1729 -0.1959
   14SAPS    HS 1751   6.340   3.319   6.110 -1.4965 -0.7122  0.4337
   14SAPS   O21 1752   6.531   3.219   6.080  0.0693  0.4790 -0.1784
   14SAPS   C21 1753   6.604   3.320   6.142 -0.3142 -0.8836 -0.7215
   14SAPS   O22 1754   6.554   3.396   6.226  0.0260  0.0587  0.3753
   14SAPS   C22 1755   6.756   3.292   6.130  0.2852 -0.4256 -0.2166
   14SAPS   H2R 1756   6.775   3.296   6.021 -1.9175  3.8865 -0.6593
   14SAPS   H2S 1757   6.830   3.362   6.173  1.9616 -1.1158 -1.8383
   14SAPS    C3 1758   6.341   3.143   6.227 -0.2336  0.5474  0.3163
   14SAPS    HX 1759   6.394   3.046   6.221 -2.3771 -0.8693  2.1948
   14SAPS    HY 1760   6.235   3.109   6.217 -0.3103  0.5707  0.9665
   14SAPS   O31 1761   6.366   3.196   6.356 -0.3771  0.5753  0.4158
   14SAPS   C31 1762   6.300   3.308   6.389  0.6370 -0.2397  0.4626
   14SAPS   O32 1763   6.215   3.366   6.318 -0.1314 -0.2952  0.4335
   14SAPS   C32 1764   6.329   3.365   6.524 -0.5004  0.8643  0.6524
   14SAPS   H2X 1765   6.321   3.474   6.507  4.1598  1.3153  0.1210
   14SAPS   H2Y 1766   6.431   3.328   6.547 -0.7010  0.4129  0.8268
   14SAPS   C23 1767   6.806   3.156   6.186  0.3501 -0.0505 -0.2365
   14SAPS   H3R 1768   6.913   3.134   6.164  0.3668 -0.6160  0.3931
   14SAPS   H3S 1769   6.755   3.085   6.118 -1.4797  1.0555 -0.0887
   14SAPS   C24 1770   6.768   3.120   6.330  0.1871  0.4023  0.0893
   14SAPS   H4R 1771   6.793   3.012   6.334  0.9474  0.5807  0.2557
   14SAPS   H4S 1772   6.659   3.111   6.347  0.0132 -1.5601 -1.6560
   14SAPS   C25 1773   6.827   3.215   6.427  0.1087 -0.2910 -0.6932
   14SAPS   H5R 1774   6.812   3.323   6.411 -2.0268 -0.3894  0.2683
   14SAPS   C26 1775   6.884   3.171   6.543  0.0438  0.1885 -0.1887
   14SAPS   H6R 1776   6.911   3.239   6.625  2.2381  0.5354 -1.1327
   14SAPS   C27 1777   6.902   3.024   6.576 -0.0330  0.0184  0.8450
   14SAPS   H7R 1778   6.899   2.963   6.483 -1.8926  0.6095  0.4866
   14SAPS   H7S 1779   6.818   3.000   6.644 -0.0350 -1.4037  0.3717
   14SAPS   C28 1780   7.027   2.993   6.651  0.3375 -0.2658 -0.4880
   14SAPS   H8R 1781   7.113   2.978   6.583 -0.6413 -1.6789 -1.4875
   14SAPS   C29 1782   7.038   2.982   6.783 -0.6452 -0.0011 -0.3870
   14SAPS   H9R 1783   7.133   2.947   6.825 -0.1790 -0.7473 -1.9762
   14SAPS  C210 1784   6.937   3.008   6.890  0.5097 -0.1554 -0.1234
   14SAPS  H10R 1785   6.885   3.103   6.865 -1.8370 -1.1204  0.8456
   14SAPS  H10S 1786   6.984   3.011   6.990 -1.8112 -2.7923  1.1845
   14SAPS  C211 1787   6.826   2.908   6.906  0.0022  0.0320  0.7027
   14SAPS  H11R 1788   6.760   2.904   6.819 -2.0827 -2.0915  2.2718
   14SAPS  C212 1789   6.811   2.821   7.001  0.0879  0.2587  0.6541
   14SAPS  H12R 1790   6.722   2.761   6.979  1.1828 -0.9269 -0.7631
   14SAPS  C213 1791   6.886   2.787   7.129 -0.0090  0.0326  0.0707
   14SAPS  H13R 1792   6.975   2.852   7.133 -0.6682  0.9900 -0.4066
   14SAPS  H13S 1793   6.924   2.683   7.127  2.6164  0.9463 -0.8549
   14SAPS  C214 1794   6.801   2.806   7.253 -1.1691 -1.1996 -0.5999
   14SAPS  H14R 1795   6.752   2.904   7.258 -0.7319 -0.6798 -4.2899
   14SAPS  C215 1796   6.788   2.725   7.360 -0.4058 -0.5652  1.1012
   14SAPS  H15R 1797   6.717   2.742   7.443 -0.6014  1.3515  0.5768
   14SAPS  C216 1798   6.854   2.591   7.375  0.7295  0.6023 -0.4085
   14SAPS  H16R 1799   6.912   2.560   7.286 -0.6807 -2.6294 -0.3431
   14SAPS  H16S 1800   6.782   2.507   7.385  1.8593 -0.2516  0.8264
   14SAPS  C217 1801   6.946   2.601   7.496  0.7189 -0.0594  0.5129
   14SAPS  H17R 1802   6.887   2.604   7.590  0.4156 -0.6554  0.3430
   14SAPS  H17S 1803   7.004   2.696   7.496 -1.5136  1.3826 -0.2927
   14SAPS  C218 1804   7.030   2.472   7.504 -0.1693  0.3659  0.5596
   14SAPS  H18R 1805   7.098   2.468   7.416  1.7105 -0.0613  1.9446
   14SAPS  H18S 1806   6.958   2.388   7.507 -1.9149  1.7328 -1.1994
   14SAPS  C219 1807   7.124   2.482   7.629  0.0829 -0.0541  0.2010
   14SAPS  H19R 1808   7.147   2.588   7.652 -0.0857 -0.4173  2.1651
   14SAPS  H19S 1809   7.216   2.425   7.607  0.3127 -0.3055  1.7273
   14SAPS  C220 1810   7.056   2.413   7.750  0.6051  0.7895 -0.4154
   14SAPS  H20R 1811   6.978   2.481   7.790 -1.1037 -1.0649 -0.4154
   14SAPS  H20S 1812   7.136   2.406   7.828 -0.3821 -0.3114  0.5373
   14SAPS  H20T 1813   7.026   2.311   7.717 -0.5826  1.6311 -1.9982
   14SAPS   C33 1814   6.236   3.310   6.634 -0.3111 -0.4233  0.1044
   14SAPS   H3X 1815   6.255   3.204   6.662 -1.2640 -0.2553  1.5178
   14SAPS   H3Y 1816   6.132   3.319   6.595  0.9215  0.7288 -3.2858
   14SAPS   C34 1817   6.257   3.398   6.749  0.5836 -0.5493  0.3020
   14SAPS   H4X 1818   6.248   3.503   6.714  2.7467 -0.4606 -0.1185
   14SAPS   H4Y 1819   6.364   3.393   6.778  0.8429 -2.9816 -0.7803
   14SAPS   C35 1820   6.176   3.385   6.871 -0.0035  0.2727  0.4275
   14SAPS   H5X 1821   6.184   3.281   6.909  1.2771  0.6523  1.2478
   14SAPS   H5Y 1822   6.071   3.413   6.846  0.0548 -0.6455 -0.9909
   14SAPS   C36 1823   6.219   3.484   6.979  0.0468 -0.3790  0.7010
   14SAPS   H6X 1824   6.184   3.587   6.956 -2.2400 -1.3163 -0.3065
   14SAPS   H6Y 1825   6.330   3.486   6.971 -0.0006 -2.0361 -1.1625
   14SAPS   C37 1826   6.186   3.424   7.118 -0.5116  0.0648  0.3684
   14SAPS   H7X 1827   6.237   3.325   7.127 -0.3474  0.3134  2.8466
   14SAPS   H7Y 1828   6.078   3.401   7.114 -0.5820  0.5328 -0.7724
   14SAPS   C38 1829   6.232   3.510   7.233 -0.2358 -0.2287 -0.1353
   14SAPS   H8X 1830   6.192   3.612   7.212 -0.4835 -0.3666 -0.3276
   14SAPS   H8Y 1831   6.343   3.507   7.236 -0.0499  0.6207 -2.9509
   14SAPS   C39 1832   6.172   3.459   7.358 -0.2092  0.3162  0.1270
   14SAPS   H9X 1833   6.219   3.363   7.389  0.9132  1.0950  0.8948
   14SAPS   H9Y 1834   6.064   3.448   7.333  0.0407 -0.5167 -0.6257
   14SAPS  C310 1835   6.185   3.555   7.479 -0.0246  0.6808  0.0407
   14SAPS  H10X 1836   6.133   3.643   7.436  0.1439  0.1980 -1.2136
   14SAPS  H10Y 1837   6.293   3.577   7.493 -0.0105  0.9893 -0.4874
   14SAPS  C311 1838   6.114   3.507   7.602 -0.1956 -0.1803 -0.2645
   14SAPS  H11X 1839   6.055   3.415   7.580  0.9417 -1.3051  1.1760
   14SAPS  H11Y 1840   6.040   3.586   7.627  0.4600  1.2462 -2.5474
   14SAPS  C312 1841   6.212   3.474   7.716 -0.1398 -0.2952 -0.3442
   14SAPS  H12X 1842   6.293   3.399   7.702  0.2851  0.1008 -0.0639
   14SAPS  H12Y 1843   6.146   3.430   7.794 -0.4842 -3.2344 -2.1512
   14SAPS  C313 1844   6.275   3.609   7.762 -0.4627 -0.3752 -0.0843
   14SAPS  H13X 1845   6.203   3.694   7.756 -1.1050 -0.8536  0.6138
   14SAPS  H13Y 1846   6.359   3.623   7.691  1.3522 -0.5809  1.9251
   14SAPS  C314 1847   6.341   3.612   7.904  0.0308 -0.1223  0.3415
   14SAPS  H14X 1848   6.273   3.584   7.987  0.2805  1.2328  1.0343
   14SAPS  H14Y 1849   6.385   3.712   7.925 -0.0636  0.2165 -1.0425
   14SAPS  C315 1850   6.466   3.519   7.917 -0.0140  0.2610 -0.8950
   14SAPS  H15X 1851   6.522   3.553   7.827 -1.4421  0.2442 -1.8158
   14SAPS  H15Y 1852   6.444   3.412   7.901  0.8635 -0.1218  0.2738
   14SAPS  C316 1853   6.538   3.541   8.048  0.2456 -0.5725 -0.6663
   14SAPS  H16X 1854   6.521   3.644   8.087 -1.8536 -0.9432 -0.4707
   14SAPS  H16Y 1855   6.648   3.543   8.033  0.6154  2.0468  1.5109
   14SAPS  C317 1856   6.498   3.457   8.168  0.5626 -0.3294 -0.1782
   14SAPS  H17X 1857   6.531   3.352   8.152 -2.9398 -1.3351 -1.8688
   14SAPS  H17Y 1858   6.387   3.461   8.166  0.4480 -2.4490 -1.8879
   14SAPS  C318 1859   6.554   3.513   8.297  0.6081 -0.2288 -0.1849
   14SAPS  H18X 1860   6.511   3.466   8.388 -1.1945 -1.3654 -1.5534
   14SAPS  H18Y 1861   6.521   3.619   8.303  1.5568  0.0989 -0.5222
   14SAPS  H18Z 1862   6.665   3.512   8.300  0.6077  0.5521  0.5345
   15SAPS     N 1863   0.535   3.136   5.516  0.3157 -0.6506  0.0005
   15SAPS   HN1 1864   0.534   3.034   5.501  1.0553 -0.7255  0.4020
   15SAPS   HN2 1865   0.520   3.161   5.616 -0.2933  0.0742 -0.2544
   15SAPS   HN3 1866   0.455   3.180   5.466  0.8098  1.7976  1.1767
   15SAPS   C12 1867   0.659   3.202   5.450 -0.4555  0.5305  0.1939
   15SAPS  H12A 1868   0.670   3.178   5.345  1.7726 -1.1686  0.7276
   15SAPS   C13 1869   0.660   3.358   5.460 -0.5845 -0.0538  0.2741
   15SAPS  O13A 1870   0.553   3.409   5.491 -0.0593 -0.0858  1.0033
   15SAPS  O13B 1871   0.746   3.421   5.395 -0.2416  0.0655  0.1341
   15SAPS   C11 1872   0.779   3.160   5.544  0.5176 -0.2783  0.4511
   15SAPS  H11A 1873   0.867   3.222   5.517 -0.2888  0.9930  0.6643
   15SAPS  H11B 1874   0.789   3.053   5.515  0.0891  0.0069 -0.8292
   15SAPS     P 1875   0.833   3.089   5.782  0.2866  0.1258 -0.2988
   15SAPS   O13 1876   0.827   2.951   5.735 -0.4113  0.7634  0.2807
   15SAPS   O14 1877   0.964   3.153   5.797  0.2090  0.6944  0.1442
   15SAPS   O12 1878   0.743   3.175   5.683  0.3326  0.0088  0.1385
   15SAPS   O11 1879   0.741   3.112   5.914 -0.4803  0.4456 -0.0218
   15SAPS    C1 1880   0.639   3.015   5.943  0.0355  0.2112  0.3021
   15SAPS    HA 1881   0.560   3.026   5.865  0.4202 -0.1416 -0.1473
   15SAPS    HB 1882   0.672   2.909   5.934 -0.3865  0.0648  0.4601
   15SAPS    C2 1883   0.582   3.033   6.082 -1.3503  0.2639 -0.2201
   15SAPS    HS 1884   0.555   3.141   6.081 -2.9910 -0.1002 -2.3651
   15SAPS   O21 1885   0.677   3.002   6.185 -0.1767 -0.4487  0.5599
   15SAPS   C21 1886   0.635   3.026   6.307 -0.8687  0.7522 -0.3196
   15SAPS   O22 1887   0.535   3.095   6.338  0.3135  0.5352 -0.0704
   15SAPS   C22 1888   0.727   2.964   6.413  0.5185  0.9779  0.3573
   15SAPS   H2R 1889   0.790   2.892   6.356  0.7890  2.0343 -0.7009
   15SAPS   H2S 1890   0.798   3.046   6.437 -1.7738  2.9126  0.8472
   15SAPS    C3 1891   0.439   2.968   6.106 -0.4776  0.6292 -0.3723
   15SAPS    HX 1892   0.399   2.964   6.002  1.0148  0.8309 -0.9727
   15SAPS    HY 1893   0.383   3.051   6.154 -0.3173  0.7490 -0.3938
   15SAPS   O31 1894   0.434   2.845   6.183 -0.1791 -0.0764  0.3445
   15SAPS   C31 1895   0.313   2.814   6.215 -0.1504 -0.7606 -0.5037
   15SAPS   O32 1896   0.210   2.876   6.188 -0.6720 -0.1811 -0.4317
   15SAPS   C32 1897   0.317   2.685   6.291  1.2486 -0.4445 -0.1658
   15SAPS   H2X 1898   0.413   2.635   6.265  0.6667 -0.6012 -2.1700
   15SAPS   H2Y 1899   0.230   2.624   6.256  0.2456  0.6786  0.3094
   15SAPS   C23 1900   0.664   2.902   6.541 -0.2749 -0.4031 -0.2601
   15SAPS   H3R 1901   0.745   2.837   6.579  0.2998 -1.6408 -3.3004
   15SAPS   H3S 1902   0.572   2.840   6.527  0.3020 -0.9415 -1.7854
   15SAPS   C24 1903   0.628   3.022   6.642 -0.3562  0.3321  0.0429
   15SAPS   H4R 1904   0.546   3.073   6.587  0.4895 -1.5084 -3.2011
   15SAPS   H4S 1905   0.716   3.090   6.647 -0.6472  0.7777 -0.7706
   15SAPS   C25 1906   0.573   2.969   6.772 -0.0626  0.7530  0.1110
   15SAPS   H5R 1907   0.525   2.871   6.765 -1.8154  1.4132  1.8558
   15SAPS   C26 1908   0.601   3.028   6.895 -0.0263  0.5654 -0.1413
   15SAPS   H6R 1909   0.579   2.980   6.991  0.8581  0.8235  0.1992
   15SAPS   C27 1910   0.685   3.149   6.912 -0.9477 -1.3602  0.0821
   15SAPS   H7R 1911   0.628   3.226   6.967 -1.5214 -0.1541 -2.0620
   15SAPS   H7S 1912   0.696   3.196   6.811 -1.6747 -0.9882  0.1732
   15SAPS   C28 1913   0.828   3.117   6.962  0.1052 -0.3394  0.3842
   15SAPS   H8R 1914   0.894   3.090   6.878  1.3479  3.3267 -0.0023
   15SAPS   C29 1915   0.857   3.117   7.093 -0.1654 -0.4145  0.3538
   15SAPS   H9R 1916   0.963   3.109   7.122 -0.2432 -0.9379  0.5105
   15SAPS  C210 1917   0.766   3.176   7.200 -0.2242  0.3648 -0.2331
   15SAPS  H10R 1918   0.661   3.166   7.164 -0.0423  0.3341 -0.7616
   15SAPS  H10S 1919   0.784   3.285   7.214 -1.0909  0.5731 -0.6551
   15SAPS  C211 1920   0.783   3.110   7.336  0.3707 -0.3703 -0.6095
   15SAPS  H11R 1921   0.887   3.080   7.357  0.2188 -0.8086 -0.4751
   15SAPS  C212 1922   0.681   3.056   7.414 -0.1882 -0.2738 -0.1693
   15SAPS  H12R 1923   0.707   3.009   7.510 -1.8010  0.6754  0.7882
   15SAPS  C213 1924   0.534   3.064   7.395  0.2637 -0.0858 -0.6178
   15SAPS  H13R 1925   0.503   3.007   7.304 -1.1396 -0.3861  0.0338
   15SAPS  H13S 1926   0.515   3.171   7.373  0.0307 -0.0872 -0.4164
   15SAPS  C214 1927   0.444   3.029   7.511 -0.0640  0.6807 -0.0852
   15SAPS  H14R 1928   0.362   2.959   7.486 -0.7675  1.7201 -0.7739
   15SAPS  C215 1929   0.454   3.076   7.638 -0.0651 -0.7707  0.0211
   15SAPS  H15R 1930   0.373   3.046   7.707  0.7650 -0.8596  0.9786
   15SAPS  C216 1931   0.547   3.171   7.705 -0.3893  0.6649  0.0369
   15SAPS  H16R 1932   0.614   3.226   7.636 -0.1558  1.1734  0.6583
   15SAPS  H16S 1933   0.606   3.107   7.774 -1.3188 -0.5420 -0.2588
   15SAPS  C217 1934   0.462   3.259   7.798 -0.1500  0.1003  0.1783
   15SAPS  H17R 1935   0.417   3.185   7.868 -2.5181  4.3926  3.6517
   15SAPS  H17S 1936   0.385   3.323   7.749  1.0762 -0.1239 -2.2285
   15SAPS  C218 1937   0.553   3.352   7.877  0.1100 -0.3861  0.0469
   15SAPS  H18R 1938   0.587   3.433   7.808 -1.4792 -0.1031 -0.4283
   15SAPS  H18S 1939   0.649   3.308   7.912  1.2523  0.2963 -2.0010
   15SAPS  C219 1940   0.474   3.422   7.991 -0.0620  0.3269  0.1375
   15SAPS  H19R 1941   0.376   3.455   7.953  0.8253  1.5650 -1.1823
   15SAPS  H19S 1942   0.537   3.508   8.023 -0.0861 -0.3754  2.2546
   15SAPS  C220 1943   0.460   3.322   8.112  0.8465  0.0751  0.5558
   15SAPS  H20R 1944   0.444   3.378   8.207  0.8668  0.1741  0.5014
   15SAPS  H20S 1945   0.554   3.262   8.115  1.1327  0.4229 -0.8394
   15SAPS  H20T 1946   0.371   3.258   8.093  0.4459  0.9483 -0.5541
   15SAPS   C33 1947   0.294   2.699   6.449 -0.3752 -0.2484  0.6489
   15SAPS   H3X 1948   0.193   2.735   6.478  0.0133  0.3117  1.3486
   15SAPS   H3Y 1949   0.367   2.776   6.482 -0.0211  0.3959 -1.4608
   15SAPS   C34 1950   0.333   2.581   6.544 -0.2002  0.4154 -0.0574
   15SAPS   H4X 1951   0.435   2.543   6.522 -0.5092  0.0674 -0.9151
   15SAPS   H4Y 1952   0.269   2.497   6.509  0.8745 -0.1244 -0.7905
   15SAPS   C35 1953   0.294   2.586   6.690 -0.1823 -0.3565  0.4556
   15SAPS   H5X 1954   0.289   2.482   6.729  0.8563 -0.5704  0.0517
   15SAPS   H5Y 1955   0.200   2.642   6.713  0.8276  0.4084  3.1020
   15SAPS   C36 1956   0.398   2.643   6.788 -0.1286  0.2222 -1.0249
   15SAPS   H6X 1957   0.396   2.752   6.767 -1.5089  0.6446  0.9276
   15SAPS   H6Y 1958   0.505   2.615   6.773 -0.1824  0.1719 -1.3044
   15SAPS   C37 1959   0.362   2.622   6.939 -0.2029 -0.2058  0.3145
   15SAPS   H7X 1960   0.354   2.512   6.953  0.0507 -0.4568 -1.3189
   15SAPS   H7Y 1961   0.255   2.650   6.956 -0.0320  1.3778 -1.0022
   15SAPS   C38 1962   0.453   2.686   7.037 -0.0170  0.3697  0.0395
   15SAPS   H8X 1963   0.431   2.795   7.049  2.2437  1.2398 -2.6532
   15SAPS   H8Y 1964   0.562   2.676   7.020  0.3651  1.4591  1.5356
   15SAPS   C39 1965   0.446   2.612   7.178  0.5338 -0.0364 -0.1744
   15SAPS   H9X 1966   0.511   2.522   7.174  2.2673  0.9446  2.6883
   15SAPS   H9Y 1967   0.341   2.583   7.200 -0.0250  1.5951 -0.4905
   15SAPS  C310 1968   0.511   2.697   7.286  0.8004  0.7482  0.6942
   15SAPS  H10X 1969   0.436   2.774   7.314 -0.9812 -0.7696  0.3341
   15SAPS  H10Y 1970   0.603   2.743   7.245  1.7531 -1.2417  0.4444
   15SAPS  C311 1971   0.546   2.615   7.407 -0.1772  0.4209  0.8656
   15SAPS  H11X 1972   0.622   2.540   7.376 -0.7960  0.3474 -0.5762
   15SAPS  H11Y 1973   0.465   2.552   7.452 -0.9065  1.9452  1.7556
   15SAPS  C312 1974   0.584   2.713   7.521 -0.2674  0.4627  0.0733
   15SAPS  H12X 1975   0.490   2.770   7.535 -1.1626 -1.1197  0.8671
   15SAPS  H12Y 1976   0.667   2.780   7.490  0.1638  0.3559  0.9641
   15SAPS  C313 1977   0.607   2.643   7.655 -0.9757  0.0553 -0.2098
   15SAPS  H13X 1978   0.685   2.564   7.654  0.8838  1.8055 -0.4335
   15SAPS  H13Y 1979   0.511   2.595   7.685 -1.1513 -0.0634 -0.9384
   15SAPS  C314 1980   0.634   2.735   7.782 -0.3967  0.2137  0.5442
   15SAPS  H14X 1981   0.544   2.775   7.833 -1.6133  0.9949 -2.0278
   15SAPS  H14Y 1982   0.697   2.822   7.754 -0.4416 -0.4381 -1.8110
   15SAPS  C315 1983   0.716   2.660   7.882  0.5702 -0.0657 -0.2443
   15SAPS  H15X 1984   0.751   2.721   7.968  2.4742  0.4684 -1.3421
   15SAPS  H15Y 1985   0.813   2.635   7.834  2.1760  1.1588  2.1708
   15SAPS  C316 1986   0.648   2.527   7.943  0.2334  0.3204  0.2952
   15SAPS  H16X 1987   0.619   2.459   7.860 -1.0593  0.5748  0.5076
   15SAPS  H16Y 1988   0.554   2.548   7.999  0.4476  1.9551  0.0780
   15SAPS  C317 1989   0.739   2.442   8.027 -0.3801  0.1856  0.5564
   15SAPS  H17X 1990   0.770   2.516   8.104  0.4115  2.3722 -1.7487
   15SAPS  H17Y 1991   0.828   2.399   7.977  2.1155  3.2010  2.0869
   15SAPS  C318 1992   0.661   2.341   8.100 -0.2536 -0.2180 -0.7231
   15SAPS  H18X 1993   0.730   2.282   8.164  2.3926  2.3616 -1.0062
   15SAPS  H18Y 1994   0.615   2.279   8.020 -1.2775  1.0505 -1.1394
   15SAPS  H18Z 1995   0.578   2.373   8.167 -0.4653 -0.2494 -0.9650
   16SAPS     N 1996   1.626   5.520   6.374  0.1119 -0.6252  0.0342
   16SAPS   HN1 1997   1.721   5.486   6.399  1.7021  1.1892 -2.9539
   16SAPS   HN2 1998   1.631   5.621   6.348 -0.3313 -0.4430  0.6178
   16SAPS   HN3 1999   1.565   5.516   6.458 -0.9603  1.0560 -0.6102
   16SAPS   C12 2000   1.557   5.435   6.275 -0.0010  0.2846 -1.0697
   16SAPS  H12A 2001   1.466   5.482   6.243 -2.2158 -1.2647  2.3689
   16SAPS   C13 2002   1.648   5.419   6.157 -0.2272  0.4309 -0.1557
   16SAPS  O13A 2003   1.770   5.451   6.156 -0.3826  0.3153  0.5189
   16SAPS  O13B 2004   1.601   5.347   6.060  0.8311 -1.0755 -0.2394
   16SAPS   C11 2005   1.531   5.297   6.338  0.1552  0.3123 -0.4163
   16SAPS  H11A 2006   1.625   5.240   6.358  1.1221  2.3363  1.2665
   16SAPS  H11B 2007   1.476   5.255   6.252  0.9231  1.6457 -1.6034
   16SAPS     P 2008   1.387   5.173   6.520 -0.3789  0.1044 -0.0002
   16SAPS   O13 2009   1.283   5.220   6.611  0.0368 -0.0821  0.5027
   16SAPS   O14 2010   1.346   5.080   6.415  0.1189 -0.1961 -0.7560
   16SAPS   O12 2011   1.446   5.303   6.451 -0.1077 -0.0493  0.3635
   16SAPS   O11 2012   1.505   5.107   6.601 -0.5064  0.0161  0.2371
   16SAPS    C1 2013   1.600   5.180   6.686 -0.0287  0.6789  0.6961
   16SAPS    HA 2014   1.700   5.162   6.641 -0.8695  0.6617 -1.2361
   16SAPS    HB 2015   1.577   5.289   6.688  1.4830  1.0264  0.4081
   16SAPS    C2 2016   1.592   5.134   6.839  0.1804  0.0495  0.0465
   16SAPS    HS 2017   1.600   5.024   6.846  0.6524 -0.0039 -1.1410
   16SAPS   O21 2018   1.463   5.183   6.899  0.3629  0.3685  0.3670
   16SAPS   C21 2019   1.366   5.096   6.898  0.1794  0.2299 -0.5921
   16SAPS   O22 2020   1.369   4.985   6.849  0.1958 -0.1845  0.2124
   16SAPS   C22 2021   1.248   5.144   6.976 -0.0232  0.1659  0.3547
   16SAPS   H2R 2022   1.210   5.235   6.925 -1.1624  0.6426  1.9707
   16SAPS   H2S 2023   1.175   5.061   6.964 -0.1675  0.2662  0.5273
   16SAPS    C3 2024   1.707   5.201   6.917  0.9773 -0.6999 -0.0573
   16SAPS    HX 2025   1.691   5.311   6.910 -0.6186 -0.9248 -0.2660
   16SAPS    HY 2026   1.801   5.178   6.863  0.6600 -1.2424 -0.3915
   16SAPS   O31 2027   1.713   5.171   7.061 -0.1040  0.0135  0.0217
   16SAPS   C31 2028   1.761   5.047   7.089 -0.1509 -0.1088 -0.8010
   16SAPS   O32 2029   1.812   4.965   7.013  0.0774  0.1373 -0.2403
   16SAPS   C32 2030   1.742   5.034   7.239 -0.4616 -0.1678 -0.1507
   16SAPS   H2X 2031   1.638   5.064   7.268 -0.1434 -0.4732  1.4208
   16SAPS   H2Y 2032   1.802   5.114   7.289 -1.9091  1.3619 -0.7382
   16SAPS   C23 2033   1.278   5.176   7.127  0.4275 -1.1348 -0.4444
   16SAPS   H3R 2034   1.204   5.251   7.165  2.2021  0.4250  0.1137
   16SAPS   H3S 2035   1.374   5.232   7.135 -0.1622 -0.2455  0.7253
   16SAPS   C24 2036   1.280   5.058   7.225 -0.2961 -0.4012 -0.4646
   16SAPS   H4R 2037   1.360   4.987   7.196 -0.1953 -0.7008  0.5000
   16SAPS   H4S 2038   1.190   4.996   7.206  0.0210 -0.2519 -2.7723
   16SAPS   C25 2039   1.310   5.077   7.376  0.7690 -0.8916 -0.0004
   16SAPS   H5R 2040   1.399   5.134   7.406  0.7706 -0.4775 -0.7521
   16SAPS   C26 2041   1.222   5.062   7.481 -0.4827 -0.4625  0.1669
   16SAPS   H6R 2042   1.258   5.084   7.583  0.8127  0.2673 -0.4250
   16SAPS   C27 2043   1.089   4.992   7.463  0.6677  1.1641 -0.4202
   16SAPS   H7R 2044   1.083   4.948   7.361  2.7023 -1.6611  0.5678
   16SAPS   H7S 2045   1.004   5.063   7.462 -0.0350  0.4489  2.2076
   16SAPS   C28 2046   1.057   4.866   7.547 -0.2733 -0.4021 -0.2651
   16SAPS   H8R 2047   1.072   4.772   7.492  1.3273 -1.5603  1.9532
   16SAPS   C29 2048   1.039   4.863   7.681  0.4093  0.8658 -0.1043
   16SAPS   H9R 2049   1.017   4.775   7.744  1.6062 -0.5366 -1.5687
   16SAPS  C210 2050   1.038   4.984   7.766 -0.4820 -0.2693 -0.1142
   16SAPS  H10R 2051   0.940   4.992   7.817 -0.7057 -1.2645 -0.3704
   16SAPS  H10S 2052   1.041   5.081   7.710  0.2656  1.2141  2.3284
   16SAPS  C211 2053   1.150   4.993   7.863 -0.1306  0.0146 -0.0866
   16SAPS  H11R 2054   1.239   4.946   7.819 -0.0864  1.1698 -1.2743
   16SAPS  C212 2055   1.155   5.019   7.998  0.5100 -0.4679 -0.7228
   16SAPS  H12R 2056   1.247   5.014   8.057 -0.6339  0.2556  1.2251
   16SAPS  C213 2057   1.033   5.054   8.075 -0.0940  0.0060 -0.2853
   16SAPS  H13R 2058   0.962   5.108   8.010  3.6649  3.4319 -1.9644
   16SAPS  H13S 2059   1.057   5.123   8.159  1.2160 -2.2293  1.3147
   16SAPS  C214 2060   0.964   4.933   8.138 -0.1026 -0.3039 -0.1561
   16SAPS  H14R 2061   0.924   4.866   8.060 -0.4889 -1.8591  1.3184
   16SAPS  C215 2062   0.957   4.892   8.264  0.1732 -0.8666 -0.0647
   16SAPS  H15R 2063   0.906   4.797   8.285 -1.7166 -0.3606 -1.9963
   16SAPS  C216 2064   1.024   4.953   8.388 -0.0514 -0.4867  0.1703
   16SAPS  H16R 2065   1.106   5.024   8.362  0.2964 -0.0662  2.2606
   16SAPS  H16S 2066   1.077   4.870   8.441  1.3302  0.0345 -0.3485
   16SAPS  C217 2067   0.925   5.005   8.489 -0.3215 -0.3320  0.2345
   16SAPS  H17R 2068   0.842   4.939   8.522 -1.0931 -0.0250 -1.0479
   16SAPS  H17S 2069   0.878   5.094   8.444  0.6815 -0.7417 -1.7214
   16SAPS  C218 2070   1.000   5.065   8.613 -0.0111  0.6347  0.5247
   16SAPS  H18R 2071   0.933   5.139   8.662 -1.4082  0.6577 -1.3015
   16SAPS  H18S 2072   1.085   5.115   8.563  0.7813 -0.8200  0.3690
   16SAPS  C219 2073   1.053   4.963   8.716  0.2972  0.5379  0.7868
   16SAPS  H19R 2074   1.124   4.897   8.661 -0.6587  0.3785 -0.2807
   16SAPS  H19S 2075   0.965   4.901   8.740 -1.0343  2.4062  1.0057
   16SAPS  C220 2076   1.121   5.040   8.836  0.0891  0.1814 -0.1359
   16SAPS  H20R 2077   1.169   4.967   8.905  0.2936  1.9070  1.6628
   16SAPS  H20S 2078   1.042   5.084   8.900 -1.6393 -1.1204 -1.2967
   16SAPS  H20T 2079   1.196   5.112   8.796  0.4208  0.1439  0.4116
   16SAPS   C33 2080   1.766   4.885   7.279 -0.2869 -0.0593  0.0787
   16SAPS   H3X 2081   1.868   4.872   7.237 -0.1027 -0.3739  0.6204
   16SAPS   H3Y 2082   1.695   4.813   7.234 -1.4973  2.1325 -1.7510
   16SAPS   C34 2083   1.750   4.862   7.431 -0.2007 -0.1436 -0.3879
   16SAPS   H4X 2084   1.832   4.913   7.486 -0.1760 -3.3983  2.9737
   16SAPS   H4Y 2085   1.759   4.754   7.457 -1.0024 -0.0355  0.3818
   16SAPS   C35 2086   1.611   4.906   7.488  0.1963 -0.2689  0.2906
   16SAPS   H5X 2087   1.540   4.894   7.403  1.0951 -0.1201 -0.5052
   16SAPS   H5Y 2088   1.612   5.014   7.512 -2.5179  0.2686 -1.5842
   16SAPS   C36 2089   1.562   4.815   7.598  0.3454  0.1616 -0.3287
   16SAPS   H6X 2090   1.570   4.708   7.569 -0.1694 -0.5665  1.9948
   16SAPS   H6Y 2091   1.458   4.842   7.623  0.2802 -0.5181  0.1890
   16SAPS   C37 2092   1.638   4.816   7.732 -0.3892  0.0425  0.0788
   16SAPS   H7X 2093   1.748   4.804   7.720  0.0559  2.5743  1.0806
   16SAPS   H7Y 2094   1.608   4.716   7.769 -0.4800  0.0480  0.0196
   16SAPS   C38 2095   1.611   4.924   7.838 -0.0253 -0.4846  0.0655
   16SAPS   H8X 2096   1.502   4.942   7.852  0.1906  0.2623  0.8167
   16SAPS   H8Y 2097   1.645   5.023   7.801 -0.4809 -0.0563  0.7664
   16SAPS   C39 2098   1.662   4.886   7.975  0.1041 -0.1956 -0.1973
   16SAPS   H9X 2099   1.765   4.927   7.984  0.1515  0.0560 -1.7093
   16SAPS   H9Y 2100   1.664   4.776   7.990  0.1510 -0.1340  0.2840
   16SAPS  C310 2101   1.574   4.951   8.092 -0.2944  0.2497  0.4271
   16SAPS  H10X 2102   1.485   4.886   8.085  0.2435 -0.7309  2.1228
   16SAPS  H10Y 2103   1.543   5.052   8.059 -1.6609 -0.6689 -1.2295
   16SAPS  C311 2104   1.620   4.946   8.237 -0.4403  0.3776  0.2961
   16SAPS  H11X 2105   1.708   5.012   8.254  1.0054 -1.8161  1.8051
   16SAPS  H11Y 2106   1.662   4.844   8.249 -2.3953 -0.2965  1.9508
   16SAPS  C312 2107   1.503   4.972   8.331 -0.1627  0.0234  0.4486
   16SAPS  H12X 2108   1.439   4.884   8.309  0.3615 -0.2253 -0.1276
   16SAPS  H12Y 2109   1.461   5.071   8.304  1.8972  1.4518  2.1426
   16SAPS  C313 2110   1.553   4.976   8.475 -0.2469  0.0955 -0.0825
   16SAPS  H13X 2111   1.477   5.028   8.536  1.0626  2.0258 -0.0261
   16SAPS  H13Y 2112   1.637   5.046   8.491 -0.6378  0.7924 -0.9872
   16SAPS  C314 2113   1.566   4.831   8.537 -0.8633  0.4338 -0.5437
   16SAPS  H14X 2114   1.646   4.775   8.484  0.6116  0.5832  1.4463
   16SAPS  H14Y 2115   1.473   4.771   8.524 -0.2957 -1.4474  2.8926
   16SAPS  C315 2116   1.612   4.836   8.684 -0.6340 -0.3140  0.8638
   16SAPS  H15X 2117   1.599   4.732   8.720  1.6708  0.2144  3.4849
   16SAPS  H15Y 2118   1.544   4.906   8.738 -0.2061  0.7304  0.0861
   16SAPS  C316 2119   1.761   4.866   8.705  0.7241 -0.7289 -0.1746
   16SAPS  H16X 2120   1.789   4.962   8.656 -1.8258  0.1549 -0.0737
   16SAPS  H16Y 2121   1.817   4.787   8.651  1.8379 -0.5773  0.7001
   16SAPS  C317 2122   1.804   4.867   8.853  0.6383  0.2655  0.6773
   16SAPS  H17X 2123   1.772   4.768   8.892 -2.0018 -0.6305 -3.1748
   16SAPS  H17Y 2124   1.741   4.946   8.900 -0.2901  2.2460 -3.4255
   16SAPS  C318 2125   1.953   4.892   8.857 -0.3853 -0.1358 -0.2137
   16SAPS  H18X 2126   1.971   4.895   8.966  1.1617 -2.1040 -0.3640
   16SAPS  H18Y 2127   1.977   4.989   8.809  0.3809 -0.3038 -0.1724
   16SAPS  H18Z 2128   2.014   4.815   8.806 -0.2426 -0.7989  0.9325
   17SAPC     N 2129   0.201   1.320  10.618 -0.5657  0.8625 -0.5121
   17SAPC   C12 2130   0.190   1.440  10.520  0.2272  0.3286 -0.2769
   17SAPC  H12A 2131   0.287   1.466  10.480  1.4816 -1.8571  1.1046
   17SAPC  H12B 2132   0.157   1.519  10.586 -0.4954 -0.9365  0.9268
   17SAPC   C13 2133   0.249   1.191  10.546  0.2227 -0.2384 -0.5028
   17SAPC  H13A 2134   0.246   1.107  10.615  0.3714  0.2114  0.0569
   17SAPC  H13B 2135   0.195   1.181  10.453 -0.5572  0.4607 -0.1385
   17SAPC  H13C 2136   0.352   1.211  10.519  0.4262  3.2278  2.1338
   17SAPC   C14 2137   0.282   1.354  10.735  0.6108 -0.0100  0.3465
   17SAPC  H14A 2138   0.252   1.440  10.792  1.8076  1.5332 -1.2407
   17SAPC  H14B 2139   0.293   1.267  10.798  0.3643 -0.0310  0.3613
   17SAPC  H14C 2140   0.371   1.395  10.689 -0.7594  0.6047 -1.9590
   17SAPC   C15 2141   0.068   1.302  10.686 -0.0660 -0.0040  0.0373
   17SAPC  H15A 2142   0.054   1.212  10.743 -1.0291  0.1710  0.0968
   17SAPC  H15B 2143   0.047   1.392  10.742 -0.5084  1.0372 -1.7048
   17SAPC  H15C 2144  -0.007   1.285  10.610 -0.5305  1.3920  0.1462
   17SAPC   C11 2145   0.094   1.431  10.401 -0.0955 -0.1638  0.2865
   17SAPC  H11A 2146   0.128   1.350  10.333  1.1035 -0.7352  1.5187
   17SAPC  H11B 2147   0.112   1.525  10.345  4.1239 -0.6641  0.4985
   17SAPC     P 2148  -0.125   1.529  10.501 -0.1220  0.2062 -0.4417
   17SAPC   O13 2149  -0.239   1.463  10.567  0.1802 -0.0271  0.4466
   17SAPC   O14 2150  -0.038   1.621  10.582  0.2596  0.5575  0.3556
   17SAPC   O12 2151  -0.044   1.412  10.439  0.1906  0.0492  0.0116
   17SAPC   O11 2152  -0.184   1.606  10.383  0.4028  0.1696  0.1917
   17SAPC    C1 2153  -0.201   1.519  10.268  0.3392  0.6188  0.1623
   17SAPC    HA 2154  -0.104   1.488  10.223 -0.3529  0.7747 -1.4704
   17SAPC    HB 2155  -0.269   1.432  10.279  0.6430  0.1362 -1.5775
   17SAPC    C2 2156  -0.279   1.603  10.158  0.8064 -0.2217  0.4660
   17SAPC    HS 2157  -0.309   1.530  10.080  0.1392  1.1186 -0.5754
   17SAPC   O21 2158  -0.203   1.710  10.098 -0.3237  0.9312 -0.2899
   17SAPC   C21 2159  -0.110   1.661  10.016 -0.0245 -0.7719  0.5602
   17SAPC   O22 2160  -0.086   1.542  10.000  0.0195  0.5484 -0.1784
   17SAPC   C22 2161  -0.052   1.764   9.920 -0.0683  0.5676  0.6121
   17SAPC   H2R 2162  -0.005   1.846   9.979  0.9240  1.8325 -1.8056
   17SAPC   H2S 2163   0.026   1.715   9.859 -0.4901  1.2714 -0.5147
   17SAPC    C3 2164  -0.403   1.668  10.221  0.0822  0.5101 -0.0411
   17SAPC    HX 2165  -0.371   1.753  10.286 -1.8635  2.2741 -1.2360
   17SAPC    HY 2166  -0.456   1.602  10.293 -1.5176  2.4240  0.6554
   17SAPC   O31 2167  -0.500   1.709  10.117 -0.4129  0.2498 -0.0203
   17SAPC   C31 2168  -0.469   1.825  10.063 -0.6411  0.2429 -0.1762
   17SAPC   O32 2169  -0.377   1.903  10.100 -0.0470  0.7051  0.7382
   17SAPC   C32 2170  -0.547   1.841   9.941  0.0136 -0.0685 -0.5809
   17SAPC   H2X 2171  -0.655   1.838   9.966  0.1186 -0.7989 -0.1792
   17SAPC   H2Y 2172  -0.534   1.765   9.861 -1.2094 -0.2224 -0.6506
   17SAPC   C23 2173  -0.164   1.834   9.832 -0.5200  0.1205 -0.3089
   17SAPC   H3R 2174  -0.112   1.898   9.757  1.1831 -2.9656 -1.9575
   17SAPC   H3S 2175  -0.232   1.900   9.889 -1.7752 -0.2899 -1.2676
   17SAPC   C24 2176  -0.242   1.745   9.738 -0.7650  0.4463  0.1071
   17SAPC   H4R 2177  -0.313   1.816   9.690 -1.5526  0.5766  1.4226
   17SAPC   H4S 2178  -0.304   1.683   9.807 -0.4600  1.1364  1.0144
   17SAPC   C25 2179  -0.151   1.671   9.640 -0.2910 -0.5233  1.3290
   17SAPC   H5R 2180  -0.090   1.584   9.668 -0.1254 -0.8678 -0.0318
   17SAPC   C26 2181  -0.131   1.707   9.510 -0.1777 -0.0545  0.3099
   17SAPC   H6R 2182  -0.051   1.652   9.458 -1.3724 -1.2696 -0.2986
   17SAPC   C27 2183  -0.175   1.833   9.452  0.0381 -0.8166 -0.1105
   17SAPC   H7R 2184  -0.210   1.900   9.534  0.6893 -1.7001  0.9108
   17SAPC   H7S 2185  -0.265   1.824   9.387 -0.7571 -0.7573  0.9571
   17SAPC   C28 2186  -0.071   1.903   9.375 -0.3562 -0.4799  0.0718
   17SAPC   H8R 2187  -0.035   1.997   9.420  0.2700 -0.6549 -0.0460
   17SAPC   C29 2188  -0.051   1.877   9.247  0.4638 -0.1318  0.3495
   17SAPC   H9R 2189   0.012   1.940   9.182 -1.0386 -0.1505 -1.1920
   17SAPC  C210 2190  -0.122   1.769   9.166  0.5304 -0.5570  0.3023
   17SAPC  H10R 2191  -0.173   1.806   9.075 -0.4406 -0.2530  0.9572
   17SAPC  H10S 2192  -0.210   1.718   9.210  0.4178 -2.3794 -1.8968
   17SAPC  C211 2193  -0.014   1.675   9.131 -0.4910  0.3901 -0.7159
   17SAPC  H11R 2194   0.041   1.624   9.211  0.8770  1.5656 -0.8673
   17SAPC  C212 2195   0.035   1.660   9.004  0.6938 -0.0816 -0.3038
   17SAPC  H12R 2196   0.122   1.593   8.998  1.5954  0.3975  4.1228
   17SAPC  C213 2197  -0.008   1.729   8.875  1.4159  0.0636  0.1561
   17SAPC  H13R 2198  -0.116   1.749   8.857  1.7112 -0.1750 -2.2002
   17SAPC  H13S 2199   0.019   1.656   8.796  0.3814  0.0704 -0.2098
   17SAPC  C214 2200   0.058   1.867   8.852 -0.4555  0.1900 -0.2307
   17SAPC  H14R 2201   0.109   1.897   8.944 -1.2923 -3.6768  1.6954
   17SAPC  C215 2202   0.052   1.944   8.739 -0.2616  0.8066 -0.0116
   17SAPC  H15R 2203   0.116   2.034   8.733  0.3442  0.5779  2.0263
   17SAPC  C216 2204  -0.013   1.917   8.610 -0.1861  0.4862 -1.2420
   17SAPC  H16R 2205  -0.046   2.017   8.577 -0.2547  1.1245  0.6306
   17SAPC  H16S 2206  -0.103   1.851   8.620  0.7409 -1.0432 -2.5037
   17SAPC  C217 2207   0.082   1.851   8.514  0.5470 -0.4999 -0.3192
   17SAPC  H17R 2208   0.024   1.791   8.440 -3.7284  0.9298  1.5775
   17SAPC  H17S 2209   0.149   1.778   8.564 -2.1802 -2.3640  0.8465
   17SAPC  C218 2210   0.157   1.943   8.419  0.2293 -0.2865 -0.6082
   17SAPC  H18R 2211   0.239   1.998   8.471  0.5295 -3.2952  2.4546
   17SAPC  H18S 2212   0.079   2.009   8.376 -0.7055 -1.6397 -1.0634
   17SAPC  C219 2213   0.211   1.864   8.300  0.4158  0.4781 -0.2692
   17SAPC  H19R 2214   0.124   1.814   8.251  1.3049 -1.2175 -0.1642
   17SAPC  H19S 2215   0.280   1.783   8.332 -0.6715  0.3031  1.8038
   17SAPC  C220 2216   0.291   1.958   8.209 -0.1840 -0.6881 -0.4053
   17SAPC  H20R 2217   0.317   1.901   8.116 -0.7592 -0.6965 -0.5642
   17SAPC  H20S 2218   0.380   2.001   8.258 -0.4184  0.6264 -1.0889
   17SAPC  H20T 2219   0.226   2.039   8.169 -0.9901 -1.1817 -0.1181
   17SAPC   C33 2220  -0.532   1.984   9.874  0.0696  0.7016 -0.2157
   17SAPC   H3X 2221  -0.430   2.008   9.835  1.0313 -0.9950  1.1416
   17SAPC   H3Y 2222  -0.553   2.062   9.950 -0.5295 -0.4167  0.7828
   17SAPC   C34 2223  -0.637   1.988   9.760 -0.0698 -0.4251  0.0487
   17SAPC   H4X 2224  -0.636   2.089   9.713  2.6389 -0.5805 -0.3493
   17SAPC   H4Y 2225  -0.739   1.956   9.790 -0.2182 -1.3667 -1.3504
   17SAPC   C35 2226  -0.593   1.917   9.631  0.5732  0.2286 -0.0156
   17SAPC   H5X 2227  -0.600   1.812   9.666 -0.7708  0.9508  2.0290
   17SAPC   H5Y 2228  -0.492   1.953   9.604  1.1151 -1.7840 -0.8652
   17SAPC   C36 2229  -0.694   1.935   9.511 -0.4515  1.0362  0.8234
   17SAPC   H6X 2230  -0.724   2.041   9.504  2.3246  2.0347  2.5655
   17SAPC   H6Y 2231  -0.780   1.869   9.536 -0.6218  0.2105 -1.6328
   17SAPC   C37 2232  -0.636   1.905   9.372  0.1215  0.3411  0.3648
   17SAPC   H7X 2233  -0.720   1.921   9.301 -0.2366 -1.0977  0.4208
   17SAPC   H7Y 2234  -0.603   1.799   9.367  0.9761  0.4085  3.1120
   17SAPC   C38 2235  -0.509   1.989   9.332 -0.7533 -0.1981  0.2256
   17SAPC   H8X 2236  -0.424   1.976   9.402  0.6612  3.4849 -0.6173
   17SAPC   H8Y 2237  -0.524   2.099   9.335  3.0999  0.5086 -0.9386
   17SAPC   C39 2238  -0.461   1.942   9.196  0.7143  0.0118  0.5355
   17SAPC   H9X 2239  -0.452   1.831   9.194  0.4116 -0.0422  1.7534
   17SAPC   H9Y 2240  -0.363   1.991   9.179  0.2097  1.3727  1.4172
   17SAPC  C310 2241  -0.566   1.976   9.085 -0.1875  0.2645 -0.2278
   17SAPC  H10X 2242  -0.584   2.083   9.110 -0.8425 -0.1140  1.0367
   17SAPC  H10Y 2243  -0.660   1.918   9.079  1.1596 -2.1948  1.1004
   17SAPC  C311 2244  -0.509   1.963   8.939  0.0995  0.1731 -0.0874
   17SAPC  H11X 2245  -0.478   1.856   8.933 -1.0427 -0.4257  2.9050
   17SAPC  H11Y 2246  -0.418   2.024   8.921 -0.6145  1.7097  1.2096
   17SAPC  C312 2247  -0.614   1.995   8.828 -0.5282 -0.2020  0.1193
   17SAPC  H12X 2248  -0.666   2.085   8.866 -0.7605  0.1077 -0.9095
   17SAPC  H12Y 2249  -0.688   1.912   8.821 -0.0941 -0.5174 -0.8984
   17SAPC  C313 2250  -0.553   1.993   8.691 -0.1072 -0.8879 -0.3419
   17SAPC  H13X 2251  -0.460   2.054   8.688 -0.0805 -0.9462 -2.2926
   17SAPC  H13Y 2252  -0.625   2.038   8.619  0.6321 -0.6735 -0.9602
   17SAPC  C314 2253  -0.540   1.855   8.630  0.7680 -0.1264 -0.4159
   17SAPC  H14X 2254  -0.643   1.828   8.596  0.5227  0.2415  0.0173
   17SAPC  H14Y 2255  -0.518   1.776   8.705  1.0629  0.8952  0.6016
   17SAPC  C315 2256  -0.434   1.845   8.525 -0.0733 -0.5132 -0.2040
   17SAPC  H15X 2257  -0.417   1.738   8.500  0.2258 -0.9068  1.5314
   17SAPC  H15Y 2258  -0.340   1.882   8.572 -0.4656  0.9605 -0.5533
   17SAPC  C316 2259  -0.471   1.928   8.405  0.6088  0.1520  0.6685
   17SAPC  H16X 2260  -0.467   2.035   8.437  0.5765 -0.0322  1.3037
   17SAPC  H16Y 2261  -0.578   1.915   8.375 -0.4399 -0.0883  4.1232
   17SAPC  C317 2262  -0.374   1.897   8.287 -0.1464  0.2051 -1.2193
   17SAPC  H17X 2263  -0.388   1.972   8.206  0.3275  0.0400 -1.4599
   17SAPC  H17Y 2264  -0.394   1.795   8.248  0.0086 -0.3320  0.0368
   17SAPC  C318 2265  -0.223   1.900   8.321  0.3070 -0.2694 -0.1053
   17SAPC  H18X 2266  -0.203   1.824   8.400  1.3745  0.7126  0.6183
   17SAPC  H18Y 2267  -0.161   1.881   8.231 -0.2189  1.5050 -0.8778
   17SAPC  H18Z 2268  -0.199   2.004   8.352 -3.5254  0.6507  0.2582
   18SAPC     N 2269   0.375   2.019  10.816 -0.3563  0.3421  0.2902
   18SAPC   C12 2270   0.336   1.928  10.703  0.5796  1.0831 -0.1849
   18SAPC  H12A 2271   0.385   1.960  10.613  1.6166  0.9498  0.3109
   18SAPC  H12B 2272   0.231   1.952  10.697  0.2931 -0.0016  0.1584
   18SAPC   C13 2273   0.316   2.156  10.795  0.3614  0.1172 -0.1428
   18SAPC  H13A 2274   0.361   2.201  10.708 -0.9751 -0.2716 -1.0791
   18SAPC  H13B 2275   0.209   2.143  10.790  0.6976 -3.0484 -1.2843
   18SAPC  H13C 2276   0.341   2.215  10.881  1.0993 -0.5501  0.1103
   18SAPC   C14 2277   0.319   1.974  10.946  0.0509 -0.1023  0.1275
   18SAPC  H14A 2278   0.212   1.962  10.940  0.1765 -1.2362 -0.1938
   18SAPC  H14B 2279   0.359   1.875  10.966  1.9223  0.1757 -1.8609
   18SAPC  H14C 2280   0.340   2.039  11.030 -0.5393  0.2375  0.0143
   18SAPC   C15 2281   0.521   2.035  10.825  0.1704 -0.6067  0.4150
   18SAPC  H15A 2282   0.565   2.102  10.896 -1.4585 -1.3882  2.2543
   18SAPC  H15B 2283   0.578   1.943  10.829  0.8419 -0.3299 -1.5042
   18SAPC  H15C 2284   0.563   2.073  10.733  0.6260 -1.0300  0.4420
   18SAPC   C11 2285   0.367   1.779  10.716 -0.1828 -0.1857  0.8660
   18SAPC  H11A 2286   0.312   1.734  10.630  0.1033  1.5846 -0.2906
   18SAPC  H11B 2287   0.327   1.744  10.814 -1.0944 -3.7632 -0.5938
   18SAPC     P 2288   0.560   1.639  10.621 -0.1709 -0.1673  0.0691
   18SAPC   O13 2289   0.706   1.668  10.598 -0.2146 -0.7188 -0.7155
   18SAPC   O14 2290   0.533   1.507  10.686  0.8090  0.0671  0.4021
   18SAPC   O12 2291   0.501   1.751  10.708  0.2359 -0.6664  0.3012
   18SAPC   O11 2292   0.478   1.644  10.488 -0.5827 -0.0631 -0.1703
   18SAPC    C1 2293   0.530   1.714  10.375 -0.1274  0.6933 -0.2391
   18SAPC    HA 2294   0.486   1.815  10.373  1.4946  1.4413  0.0819
   18SAPC    HB 2295   0.641   1.716  10.370 -0.1703  0.3355 -2.0074
   18SAPC    C2 2296   0.492   1.630  10.247  0.0457 -0.2038 -0.4087
   18SAPC    HS 2297   0.406   1.569  10.280  0.7294 -1.2611 -0.5178
   18SAPC   O21 2298   0.611   1.548  10.217 -0.4220 -0.0038  0.3563
   18SAPC   C21 2299   0.594   1.428  10.170 -0.1720 -0.4386 -0.4525
   18SAPC   O22 2300   0.494   1.360  10.181 -0.8019  0.2278 -0.1225
   18SAPC   C22 2301   0.731   1.388  10.113  0.2129  0.0312 -0.0838
   18SAPC   H2R 2302   0.744   1.439  10.015  1.5917  0.8882  0.5220
   18SAPC   H2S 2303   0.811   1.429  10.179 -0.9375  0.9670  0.7922
   18SAPC    C3 2304   0.449   1.719  10.130 -0.0856 -0.3446 -0.0759
   18SAPC    HX 2305   0.535   1.782  10.098 -0.6112 -0.1004 -1.0883
   18SAPC    HY 2306   0.373   1.793  10.164  1.7270  1.9666 -0.7332
   18SAPC   O31 2307   0.421   1.640  10.012 -0.1071  0.0973  0.6692
   18SAPC   C31 2308   0.294   1.608   9.995 -0.3224  0.5026  0.3361
   18SAPC   O32 2309   0.198   1.643  10.062 -0.0610  0.0614  0.7049
   18SAPC   C32 2310   0.267   1.534   9.858  0.0947 -0.0317 -0.2967
   18SAPC   H2X 2311   0.164   1.493   9.864  0.6773 -1.5856 -0.6195
   18SAPC   H2Y 2312   0.343   1.454   9.843  1.7031  1.3815  0.0429
   18SAPC   C23 2313   0.749   1.242  10.085 -0.5790  0.0579  0.6674
   18SAPC   H3R 2314   0.681   1.208  10.004 -1.5455 -0.6607  1.7550
   18SAPC   H3S 2315   0.722   1.188  10.178 -1.5179 -1.7430 -0.5937
   18SAPC   C24 2316   0.898   1.202  10.060  0.1939  0.0538 -0.0643
   18SAPC   H4R 2317   0.957   1.212  10.154  0.1805  0.6809 -0.1215
   18SAPC   H4S 2318   0.942   1.280   9.993 -0.1799  0.0399 -0.3267
   18SAPC   C25 2319   0.886   1.054  10.018  0.2330  0.2550  0.1514
   18SAPC   H5R 2320   0.857   0.998  10.108  1.9895  0.0613  0.6448
   18SAPC   C26 2321   0.921   0.995   9.902 -0.1332 -0.3184  0.4618
   18SAPC   H6R 2322   0.927   0.885   9.902  0.6781 -0.2882  1.3586
   18SAPC   C27 2323   0.982   1.058   9.775  0.2256  0.4927 -0.5227
   18SAPC   H7R 2324   0.991   1.169   9.784 -0.7885  0.4597  1.2131
   18SAPC   H7S 2325   0.907   1.048   9.694 -1.0621  3.1193  0.2475
   18SAPC   C28 2326   1.117   0.990   9.752 -0.4565 -0.1239  0.3101
   18SAPC   H8R 2327   1.189   0.978   9.834 -0.0225 -2.2395 -0.3310
   18SAPC   C29 2328   1.159   0.931   9.637  0.5981 -0.2679  0.1911
   18SAPC   H9R 2329   1.265   0.902   9.630  0.8032  0.4586  0.1828
   18SAPC  C210 2330   1.093   0.911   9.511 -0.4475 -0.1682  0.4389
   18SAPC  H10R 2331   0.985   0.892   9.529  0.2596 -1.8337  3.7223
   18SAPC  H10S 2332   1.137   0.817   9.469 -0.3842 -0.1665  0.5019
   18SAPC  C211 2333   1.102   1.033   9.425 -0.2792  0.3942  0.4677
   18SAPC  H11R 2334   1.069   1.115   9.490 -1.9539 -1.1586  1.6853
   18SAPC  C212 2335   1.128   1.054   9.293 -0.1255  0.3974  0.8780
   18SAPC  H12R 2336   1.135   1.153   9.247 -1.0147 -0.6175 -1.6540
   18SAPC  C213 2337   1.150   0.949   9.185 -0.2975 -0.0766 -0.1005
   18SAPC  H13R 2338   1.057   0.939   9.126  0.6902 -1.6128 -1.4892
   18SAPC  H13S 2339   1.171   0.852   9.236  0.4765  0.0544 -0.1533
   18SAPC  C214 2340   1.253   0.981   9.087 -0.3171 -0.7416  0.2200
   18SAPC  H14R 2341   1.357   0.960   9.115 -0.7485 -2.4204  0.6421
   18SAPC  C215 2342   1.245   1.038   8.969  0.8402 -0.4129  0.8415
   18SAPC  H15R 2343   1.327   1.037   8.895  0.5718  1.1740  0.4832
   18SAPC  C216 2344   1.116   1.085   8.906 -0.5549  0.0521 -0.1606
   18SAPC  H16R 2345   1.121   1.180   8.849  1.1369 -1.2911 -2.4156
   18SAPC  H16S 2346   1.047   1.107   8.990  0.0945 -1.4311  0.8117
   18SAPC  C217 2347   1.057   0.975   8.812  0.2113 -1.4267 -0.0492
   18SAPC  H17R 2348   1.130   0.941   8.735 -0.7204 -0.2590 -1.5127
   18SAPC  H17S 2349   0.988   1.039   8.753  0.0024 -1.5002  0.1178
   18SAPC  C218 2350   0.996   0.850   8.871  0.0721  0.4233 -0.9330
   18SAPC  H18R 2351   0.917   0.875   8.944 -0.3766 -0.2327 -1.1877
   18SAPC  H18S 2352   1.082   0.800   8.921 -0.5742  0.5627  0.3482
   18SAPC  C219 2353   0.946   0.760   8.757  0.3710  0.3504  0.5096
   18SAPC  H19R 2354   0.923   0.656   8.790 -1.6213 -0.2917 -2.5364
   18SAPC  H19S 2355   1.030   0.760   8.685  0.8849  1.0346  1.0919
   18SAPC  C220 2356   0.821   0.809   8.682 -0.7213 -0.0845 -0.5485
   18SAPC  H20R 2357   0.786   0.728   8.613  0.3799 -1.4964  0.4997
   18SAPC  H20S 2358   0.842   0.895   8.615  2.4441  0.5551  1.0803
   18SAPC  H20T 2359   0.732   0.841   8.741  0.6565  1.3073  0.8541
   18SAPC   C33 2360   0.280   1.635   9.738 -0.5714 -0.0636  0.1952
   18SAPC   H3X 2361   0.382   1.680   9.735 -1.8613  3.0581  0.2814
   18SAPC   H3Y 2362   0.215   1.720   9.767 -1.3904 -1.1098  1.5211
   18SAPC   C34 2363   0.263   1.564   9.606 -0.2652 -1.0215 -0.8280
   18SAPC   H4X 2364   0.162   1.519   9.607 -0.8850  0.2705  1.3820
   18SAPC   H4Y 2365   0.330   1.475   9.616  1.8575  0.6363  0.6197
   18SAPC   C35 2366   0.287   1.650   9.478 -0.5442  0.7015  0.1248
   18SAPC   H5X 2367   0.385   1.700   9.493 -0.2085 -0.0895  0.6230
   18SAPC   H5Y 2368   0.203   1.722   9.467 -0.3332  1.0226  0.5959
   18SAPC   C36 2369   0.301   1.555   9.360 -0.8844 -0.5238  0.2527
   18SAPC   H6X 2370   0.223   1.478   9.342  0.4532 -2.5986  2.6471
   18SAPC   H6Y 2371   0.387   1.485   9.374 -0.1562 -0.0641 -1.5692
   18SAPC   C37 2372   0.350   1.629   9.237 -0.0236 -0.4719  0.1486
   18SAPC   H7X 2373   0.431   1.702   9.259 -1.3038  2.4608 -3.7154
   18SAPC   H7Y 2374   0.270   1.701   9.207  1.5107  0.5645 -1.6831
   18SAPC   C38 2375   0.385   1.554   9.107 -0.0949 -0.6436 -0.0325
   18SAPC   H8X 2376   0.296   1.494   9.081  0.7105 -1.5997 -0.6623
   18SAPC   H8Y 2377   0.475   1.489   9.118  0.5585  0.4413  1.3591
   18SAPC   C39 2378   0.426   1.652   8.993  0.0685  0.4719  0.7980
   18SAPC   H9X 2379   0.536   1.665   9.008  0.5691 -1.8285 -0.4232
   18SAPC   H9Y 2380   0.363   1.744   9.001  0.9254  1.1513 -0.0038
   18SAPC  C310 2381   0.425   1.605   8.850  0.4483  0.5320 -0.0528
   18SAPC  H10X 2382   0.322   1.564   8.835  0.8818 -0.5903 -0.1106
   18SAPC  H10Y 2383   0.501   1.524   8.850  0.6006  0.6266 -1.6737
   18SAPC  C311 2384   0.454   1.712   8.744  1.0002 -0.4556 -0.1183
   18SAPC  H11X 2385   0.554   1.759   8.758  0.3205  1.2288 -0.7141
   18SAPC  H11Y 2386   0.378   1.790   8.763  1.8756  0.9726 -2.1028
   18SAPC  C312 2387   0.428   1.656   8.605  0.0233 -0.3298  0.2972
   18SAPC  H12X 2388   0.393   1.731   8.531 -3.3098 -2.4938 -0.5248
   18SAPC  H12Y 2389   0.350   1.577   8.603  0.7908 -1.1342  1.2040
   18SAPC  C313 2390   0.558   1.599   8.545  0.0439 -0.7965 -1.0007
   18SAPC  H13X 2391   0.566   1.495   8.582  1.2045  0.3440  2.3045
   18SAPC  H13Y 2392   0.646   1.661   8.573 -1.0364 -0.1243  1.1277
   18SAPC  C314 2393   0.546   1.600   8.394 -0.6730  0.7255  0.7918
   18SAPC  H14X 2394   0.496   1.695   8.365  0.0779  1.3375  1.4549
   18SAPC  H14Y 2395   0.485   1.508   8.379  0.1046  0.2095  0.7259
   18SAPC  C315 2396   0.684   1.575   8.330 -0.2048  0.3757 -0.2658
   18SAPC  H15X 2397   0.680   1.521   8.233 -0.4558 -1.3155  0.6518
   18SAPC  H15Y 2398   0.746   1.512   8.398 -0.6038  1.3873  1.0702
   18SAPC  C316 2399   0.759   1.710   8.318  0.5914  0.0337 -0.3505
   18SAPC  H16X 2400   0.868   1.690   8.305  0.4907 -0.1155 -0.9659
   18SAPC  H16Y 2401   0.746   1.769   8.412  1.5307 -0.8849  0.3892
   18SAPC  C317 2402   0.716   1.804   8.201  0.0854  0.3992 -0.3846
   18SAPC  H17X 2403   0.609   1.832   8.212  0.3163  0.7554  1.2551
   18SAPC  H17Y 2404   0.734   1.748   8.107  1.6505 -0.1495  0.2143
   18SAPC  C318 2405   0.809   1.928   8.198 -0.2030  0.0107  0.2749
   18SAPC  H18X 2406   0.764   1.998   8.125  3.0296  3.5793  1.3548
   18SAPC  H18Y 2407   0.911   1.900   8.164 -1.1558 -1.7317 -1.3546
   18SAPC  H18Z 2408   0.819   1.978   8.297 -0.3239  2.6016 -0.9466
   19SAPC     N 2409   5.430   2.739  10.416  0.3993 -0.4640 -0.7302
   19SAPC   C12 2410   5.291   2.783  10.393 -0.3913 -0.3229 -0.4540
   19SAPC  H12A 2411   5.236   2.725  10.320 -1.6485 -0.7340  0.7898
   19SAPC  H12B 2412   5.288   2.889  10.372  0.7794 -0.1108  0.3223
   19SAPC   C13 2413   5.504   2.851  10.484  0.1714  0.5467  0.0983
   19SAPC  H13A 2414   5.538   2.919  10.407  2.4184  0.3890  0.8792
   19SAPC  H13B 2415   5.464   2.905  10.568 -1.0671 -0.4819  0.1972
   19SAPC  H13C 2416   5.596   2.826  10.535  1.2084  2.7401 -0.5409
   19SAPC   C14 2417   5.446   2.610  10.497 -0.1348  0.1195 -0.2573
   19SAPC  H14A 2418   5.408   2.620  10.598  0.0873  2.0537 -0.3379
   19SAPC  H14B 2419   5.393   2.528  10.451  0.0168 -1.2803  1.8952
   19SAPC  H14C 2420   5.547   2.573  10.512 -1.0401 -2.0847  0.9497
   19SAPC   C15 2421   5.497   2.707  10.287 -0.4260 -0.6250 -0.4728
   19SAPC  H15A 2422   5.438   2.627  10.244 -1.1562 -1.5467  2.0922
   19SAPC  H15B 2423   5.501   2.791  10.218 -0.2370 -0.5100 -0.3223
   19SAPC  H15C 2424   5.595   2.671  10.315  0.3778  0.9130 -1.1696
   19SAPC   C11 2425   5.196   2.767  10.517  0.6294 -0.7069 -0.2568
   19SAPC  H11A 2426   5.219   2.673  10.572 -1.6934  0.8510  3.7979
   19SAPC  H11B 2427   5.090   2.756  10.486  1.1348 -0.4262 -2.1933
   19SAPC     P 2428   5.169   3.008  10.606  0.1314 -0.4593  0.4539
   19SAPC   O13 2429   5.028   3.002  10.657 -0.3899 -0.0734 -0.3374
   19SAPC   O14 2430   5.259   3.101  10.679  0.0452  0.0567  0.6062
   19SAPC   O12 2431   5.236   2.868  10.604  0.8689  0.2003 -0.0690
   19SAPC   O11 2432   5.166   3.041  10.450 -0.0258 -0.4344  0.4496
   19SAPC    C1 2433   5.119   3.171  10.410 -0.2086  0.0266 -0.2863
   19SAPC    HA 2434   5.026   3.195  10.466 -0.3722  1.9254 -1.2855
   19SAPC    HB 2435   5.193   3.243  10.450 -0.4509  0.6168 -0.8880
   19SAPC    C2 2436   5.109   3.186  10.258 -0.6263  0.3436 -0.0459
   19SAPC    HS 2437   5.215   3.200  10.229 -0.0625 -1.9977  0.6188
   19SAPC   O21 2438   5.024   3.290  10.224 -0.0233 -0.1393  0.8132
   19SAPC   C21 2439   5.080   3.389  10.161 -0.7280  0.4480  0.5931
   19SAPC   O22 2440   5.196   3.400  10.122 -0.6253  0.1631 -0.0111
   19SAPC   C22 2441   4.978   3.496  10.146  0.5495  0.1121 -0.1153
   19SAPC   H2R 2442   4.909   3.483  10.232 -0.4842  0.6859 -0.8454
   19SAPC   H2S 2443   5.028   3.593  10.170 -0.0149  0.4031 -0.1189
   19SAPC    C3 2444   5.070   3.062  10.179  0.6839  0.8294 -0.1017
   19SAPC    HX 2445   4.985   3.008  10.227  1.9226 -0.9491  0.1998
   19SAPC    HY 2446   5.146   2.982  10.195 -1.2350 -0.8631  1.1259
   19SAPC   O31 2447   5.026   3.084  10.041  0.0305 -0.3068 -0.0428
   19SAPC   C31 2448   5.121   3.074   9.950  0.3918  0.5082  0.0976
   19SAPC   O32 2449   5.239   3.065   9.981 -0.5373 -0.1372  0.6295
   19SAPC   C32 2450   5.067   3.082   9.805 -0.4401 -0.2746  0.0707
   19SAPC   H2X 2451   4.992   3.164   9.791  0.5831  0.5126 -0.9303
   19SAPC   H2Y 2452   5.007   2.989   9.794 -1.2927  0.0359  1.7393
   19SAPC   C23 2453   4.902   3.502  10.012  0.7569  0.0112  0.1099
   19SAPC   H3R 2454   4.875   3.399   9.979  1.9768 -0.5707  0.8465
   19SAPC   H3S 2455   4.948   3.559   9.930  1.0549 -0.2243  0.1126
   19SAPC   C24 2456   4.760   3.564  10.035  0.1553  0.3584 -0.8804
   19SAPC   H4R 2457   4.703   3.502  10.107  0.3378  1.5598  0.3358
   19SAPC   H4S 2458   4.699   3.559   9.942 -3.8326  0.4816  1.5135
   19SAPC   C25 2459   4.766   3.707  10.079  0.7174  0.7714 -0.2505
   19SAPC   H5R 2460   4.799   3.731  10.181  1.6390 -1.3581  0.0083
   19SAPC   C26 2461   4.726   3.812  10.008  0.4261  0.3779 -0.1895
   19SAPC   H6R 2462   4.744   3.913  10.049 -0.3002  0.7020 -0.6437
   19SAPC   C27 2463   4.667   3.811   9.868  0.2257 -0.2695  0.5607
   19SAPC   H7R 2464   4.600   3.722   9.859  0.4762 -0.4944  0.8920
   19SAPC   H7S 2465   4.753   3.792   9.801  0.6883  0.6279  0.8899
   19SAPC   C28 2466   4.605   3.946   9.827  0.3348 -0.3893  0.2957
   19SAPC   H8R 2467   4.643   4.027   9.891  0.2760  0.8766 -1.2061
   19SAPC   C29 2468   4.538   3.959   9.718  0.3580 -0.2443 -0.0721
   19SAPC   H9R 2469   4.498   4.059   9.698 -1.0762 -0.2371  2.3879
   19SAPC  C210 2470   4.496   3.848   9.623 -0.1641  0.1124 -0.2467
   19SAPC  H10R 2471   4.508   3.748   9.669  1.0783  0.8027  1.0315
   19SAPC  H10S 2472   4.581   3.846   9.552  1.0863 -1.7673  1.2123
   19SAPC  C211 2473   4.362   3.877   9.562 -0.6406  0.5838  0.0593
   19SAPC  H11R 2474   4.342   3.973   9.512 -0.1042  0.5916 -0.1485
   19SAPC  C212 2475   4.265   3.784   9.549  0.1119 -0.8913  0.5966
   19SAPC  H12R 2476   4.171   3.813   9.502 -0.8899 -0.9259  2.4710
   19SAPC  C213 2477   4.261   3.640   9.590 -0.1818  0.2413 -0.3488
   19SAPC  H13R 2478   4.338   3.585   9.531 -0.0570 -2.3878  2.0424
   19SAPC  H13S 2479   4.166   3.594   9.554  1.0032 -0.1392 -3.2359
   19SAPC  C214 2480   4.282   3.606   9.731 -0.0076 -0.1436 -0.2281
   19SAPC  H14R 2481   4.380   3.556   9.739 -0.0508 -0.7229 -2.5466
   19SAPC  C215 2482   4.199   3.628   9.835  0.2435  0.0789 -0.4581
   19SAPC  H15R 2483   4.230   3.589   9.933  0.8757  2.2153  0.2509
   19SAPC  C216 2484   4.065   3.694   9.821  1.1165  0.7399  0.5464
   19SAPC  H16R 2485   4.071   3.769   9.739  1.3808 -0.2354 -0.3544
   19SAPC  H16S 2486   4.044   3.752   9.913  0.7977  1.1416  0.2266
   19SAPC  C217 2487   3.943   3.602   9.802 -0.2298 -0.1086 -0.6016
   19SAPC  H17R 2488   3.974   3.508   9.752  2.1751  0.8685 -1.0841
   19SAPC  H17S 2489   3.862   3.641   9.737 -1.0486 -0.0966  0.4059
   19SAPC  C218 2490   3.876   3.568   9.934 -0.0477 -0.4564 -0.4135
   19SAPC  H18R 2491   3.809   3.655   9.954 -0.0031 -0.4299 -0.3807
   19SAPC  H18S 2492   3.955   3.559  10.012 -0.2984 -1.3363 -0.2591
   19SAPC  C219 2493   3.816   3.431   9.948  0.3012 -0.3373 -0.7058
   19SAPC  H19R 2494   3.884   3.344   9.934  0.3150 -0.3750 -0.4156
   19SAPC  H19S 2495   3.739   3.416   9.869 -1.0065  3.1832 -0.2582
   19SAPC  C220 2496   3.768   3.402  10.090 -0.4721  0.2372 -0.3003
   19SAPC  H20R 2497   3.851   3.381  10.162 -0.8017 -0.1825 -0.0371
   19SAPC  H20S 2498   3.713   3.307  10.099 -2.7288  1.5148  0.2698
   19SAPC  H20T 2499   3.703   3.485  10.125  1.8282  1.8302  0.4568
   19SAPC   C33 2500   5.176   3.091   9.693  0.0823  0.1272 -0.4152
   19SAPC   H3X 2501   5.129   3.116   9.595 -0.5899 -0.3300 -0.2191
   19SAPC   H3Y 2502   5.231   2.994   9.692  1.0168  0.6276  0.6252
   19SAPC   C34 2503   5.272   3.209   9.713 -0.8088  0.4581  0.3708
   19SAPC   H4X 2504   5.338   3.213   9.624 -2.1105 -2.5796 -0.8700
   19SAPC   H4Y 2505   5.338   3.190   9.800 -0.2923  1.1822  0.1515
   19SAPC   C35 2506   5.190   3.336   9.733  0.6665  0.2957 -0.0221
   19SAPC   H5X 2507   5.260   3.417   9.762 -0.1299  0.8620  0.3429
   19SAPC   H5Y 2508   5.128   3.321   9.824  0.8716 -1.6586 -0.1730
   19SAPC   C36 2509   5.102   3.372   9.607  0.4098 -0.2025 -0.0266
   19SAPC   H6X 2510   5.019   3.300   9.592  0.5382  0.0452 -2.2087
   19SAPC   H6Y 2511   5.168   3.377   9.518 -1.6442 -1.5253 -1.7277
   19SAPC   C37 2512   5.047   3.515   9.621 -0.3324 -0.0163 -1.2304
   19SAPC   H7X 2513   5.040   3.555   9.725 -1.4387  0.7344 -1.5655
   19SAPC   H7Y 2514   4.943   3.523   9.583 -1.9754  1.8340  3.0045
   19SAPC   C38 2515   5.121   3.617   9.543  0.6634  0.2478 -0.7462
   19SAPC   H8X 2516   5.226   3.599   9.573  0.1646 -1.3459  0.1920
   19SAPC   H8Y 2517   5.082   3.717   9.576  0.9916 -0.2829  1.4212
   19SAPC   C39 2518   5.108   3.614   9.388  0.2082  0.3882  0.3732
   19SAPC   H9X 2519   5.004   3.646   9.366  0.5630  0.6901 -0.9341
   19SAPC   H9Y 2520   5.120   3.508   9.356 -1.0395 -0.2158  1.7714
   19SAPC  C310 2521   5.193   3.706   9.308  0.3287 -0.4785  0.1101
   19SAPC  H10X 2522   5.302   3.694   9.329  0.0096 -1.2575  1.4423
   19SAPC  H10Y 2523   5.175   3.811   9.340 -2.9238  0.0822 -3.0035
   19SAPC  C311 2524   5.155   3.687   9.159 -0.3147  0.4315 -0.6353
   19SAPC  H11X 2525   5.050   3.723   9.154 -0.0650  2.1509  2.9164
   19SAPC  H11Y 2526   5.158   3.580   9.131 -1.6302 -0.3674  1.8926
   19SAPC  C312 2527   5.243   3.770   9.064 -0.5313  0.2015  0.3544
   19SAPC  H12X 2528   5.350   3.739   9.066 -0.6875 -0.3522  0.3420
   19SAPC  H12Y 2529   5.235   3.877   9.093  0.5313 -0.2654  2.5371
   19SAPC  C313 2530   5.183   3.750   8.922  0.2759 -0.4823  0.0246
   19SAPC  H13X 2531   5.076   3.777   8.933  0.3392 -0.8251  1.6409
   19SAPC  H13Y 2532   5.195   3.649   8.878  2.0162 -0.4853  0.4390
   19SAPC  C314 2533   5.243   3.853   8.822 -0.1100 -0.6117  0.3994
   19SAPC  H14X 2534   5.351   3.829   8.811 -0.0777 -0.0653 -0.6633
   19SAPC  H14Y 2535   5.238   3.950   8.875  2.9656 -0.0218 -0.1828
   19SAPC  C315 2536   5.184   3.856   8.674  0.1902 -0.0448  0.4593
   19SAPC  H15X 2537   5.168   3.963   8.648 -0.2756 -0.1226  0.4167
   19SAPC  H15Y 2538   5.089   3.799   8.672  0.0709  0.1589  0.0846
   19SAPC  C316 2539   5.283   3.783   8.585  0.9785  0.0798 -0.2252
   19SAPC  H16X 2540   5.290   3.677   8.617 -0.0060 -0.2918 -1.1798
   19SAPC  H16Y 2541   5.386   3.823   8.599  1.7585 -2.4018  1.9096
   19SAPC  C317 2542   5.265   3.811   8.436  1.0682 -0.1761 -0.4550
   19SAPC  H17X 2543   5.361   3.778   8.392  2.4298  1.0956  1.4541
   19SAPC  H17Y 2544   5.244   3.920   8.426 -0.4983 -0.4324 -0.1877
   19SAPC  C318 2545   5.151   3.733   8.371 -0.3249  0.4397  0.1062
   19SAPC  H18X 2546   5.055   3.778   8.406 -0.0499 -0.6913  2.5364
   19SAPC  H18Y 2547   5.160   3.625   8.393  0.1462  0.2899 -0.7610
   19SAPC  H18Z 2548   5.151   3.742   8.260  0.1021  1.3511  0.1665
   20SAPC     N 2549   4.059   5.695  10.938 -0.3898  0.7723 -0.2964
   20SAPC   C12 2550   4.013   5.756  10.812 -0.4379 -0.3394  0.4387
   20SAPC  H12A 2551   3.914   5.797  10.826 -0.7504 -0.4100 -1.2510
   20SAPC  H12B 2552   4.006   5.678  10.738  0.1891  0.4792 -0.5183
   20SAPC   C13 2553   3.964   5.577  10.951  0.0797 -0.3527 -0.4343
   20SAPC  H13A 2554   3.864   5.601  10.919  0.4909 -2.7756 -4.2676
   20SAPC  H13B 2555   3.986   5.488  10.894 -0.0919 -0.6089 -0.1073
   20SAPC  H13C 2556   3.962   5.534  11.051 -0.9762 -0.5949 -0.5487
   20SAPC   C14 2557   4.202   5.644  10.934  0.3567 -0.5894 -0.0574
   20SAPC  H14A 2558   4.214   5.582  10.847 -0.2773 -1.3882  0.4082
   20SAPC  H14B 2559   4.265   5.731  10.920 -1.2281  0.9876  1.9951
   20SAPC  H14C 2560   4.228   5.594  11.026 -2.0790  0.9815  1.6260
   20SAPC   C15 2561   4.038   5.791  11.052 -0.7107  0.1760  0.5670
   20SAPC  H15A 2562   3.936   5.816  11.076  0.2515  1.6719  3.4554
   20SAPC  H15B 2563   4.073   5.756  11.147 -0.1149  0.2228  0.3658
   20SAPC  H15C 2564   4.090   5.883  11.033 -1.1684  0.2672 -0.3528
   20SAPC   C11 2565   4.110   5.868  10.751 -0.1231 -0.0402  0.1286
   20SAPC  H11A 2566   4.124   5.945  10.830  0.7405  1.4648 -1.4182
   20SAPC  H11B 2567   4.055   5.925  10.672  1.9363 -0.5356 -1.7672
   20SAPC     P 2568   4.373   5.867  10.712  0.1091 -0.4517 -0.0921
   20SAPC   O13 2569   4.369   6.005  10.760  0.3464  0.3707  0.0198
   20SAPC   O14 2570   4.441   5.767  10.801  0.1779 -0.5944  0.2071
   20SAPC   O12 2571   4.230   5.813  10.686 -0.3124 -0.4077  0.1383
   20SAPC   O11 2572   4.438   5.852  10.572  0.8861  0.1196 -0.0388
   20SAPC    C1 2573   4.388   5.935  10.466  0.0695  0.8623 -0.1233
   20SAPC    HA 2574   4.383   5.870  10.376  0.0371  0.5073  0.1334
   20SAPC    HB 2575   4.289   5.980  10.490 -0.9559 -1.9472  1.2870
   20SAPC    C2 2576   4.497   6.043  10.440  0.2650  0.5474 -0.2756
   20SAPC    HS 2577   4.498   6.101  10.534 -3.4315 -1.7702  1.4168
   20SAPC   O21 2578   4.453   6.119  10.325 -0.3978 -0.4213  0.0019
   20SAPC   C21 2579   4.517   6.232  10.292 -0.6303  0.0563 -1.0491
   20SAPC   O22 2580   4.610   6.286  10.354  0.7530  0.1816 -0.8924
   20SAPC   C22 2581   4.461   6.280  10.156  0.1402 -0.5996 -0.0079
   20SAPC   H2R 2582   4.486   6.199  10.084  0.9746 -0.2749 -0.0895
   20SAPC   H2S 2583   4.351   6.299  10.161 -0.2046 -1.0780 -3.3066
   20SAPC    C3 2584   4.642   5.982  10.418  0.0248  0.0120 -0.2541
   20SAPC    HX 2585   4.678   5.940  10.514 -0.1894  0.8447  0.2040
   20SAPC    HY 2586   4.712   6.064  10.388  2.8576 -1.7992  0.9323
   20SAPC   O31 2587   4.641   5.881  10.317  0.1336  0.2541  0.4047
   20SAPC   C31 2588   4.664   5.912  10.196 -0.0800 -0.3661 -0.2720
   20SAPC   O32 2589   4.708   6.018  10.153 -0.8276 -0.4196 -0.2492
   20SAPC   C32 2590   4.612   5.795  10.117  0.2868  0.0263 -0.0901
   20SAPC   H2X 2591   4.504   5.781  10.140  0.3602  2.6423  2.3763
   20SAPC   H2Y 2592   4.660   5.697  10.139 -2.2108 -0.9786  1.3123
   20SAPC   C23 2593   4.532   6.402  10.109  0.4879  0.2285  0.1009
   20SAPC   H3R 2594   4.634   6.377  10.071 -0.8823 -2.9580 -1.8875
   20SAPC   H3S 2595   4.557   6.476  10.188  0.0276 -0.6718  1.1163
   20SAPC   C24 2596   4.464   6.486   9.991 -0.3859 -0.1213 -0.4741
   20SAPC   H4R 2597   4.534   6.570   9.970 -0.7335  0.7092  1.4723
   20SAPC   H4S 2598   4.370   6.521  10.039  1.7122  3.6793  1.3335
   20SAPC   C25 2599   4.434   6.409   9.865  0.3983  0.0968 -0.3234
   20SAPC   H5R 2600   4.339   6.355   9.875  0.0413  0.6876 -0.4832
   20SAPC   C26 2601   4.503   6.403   9.749  0.3858  0.2788  0.0853
   20SAPC   H6R 2602   4.450   6.345   9.672 -3.2217  0.7145  2.0010
   20SAPC   C27 2603   4.637   6.468   9.723  0.0652  0.3168  0.8296
   20SAPC   H7R 2604   4.690   6.472   9.820 -0.1266 -0.9023  0.9989
   20SAPC   H7S 2605   4.616   6.567   9.679 -0.7917 -0.6427 -1.0496
   20SAPC   C28 2606   4.728   6.380   9.633 -0.3396 -0.3192  0.3422
   20SAPC   H8R 2607   4.726   6.272   9.652 -3.8143 -0.2492  1.0261
   20SAPC   C29 2608   4.821   6.426   9.542 -0.0935  0.2241  0.1339
   20SAPC   H9R 2609   4.888   6.348   9.502  1.1623  0.5420  1.5284
   20SAPC  C210 2610   4.867   6.562   9.511 -0.3707 -0.6123  0.1019
   20SAPC  H10R 2611   4.855   6.616   9.608  0.5255  1.0670 -0.6727
   20SAPC  H10S 2612   4.797   6.609   9.439 -1.3270 -0.9577  0.7870
   20SAPC  C211 2613   5.008   6.554   9.453 -0.6598  0.2508  0.7048
   20SAPC  H11R 2614   5.067   6.476   9.503  0.1548  0.8781  0.7438
   20SAPC  C212 2615   5.055   6.603   9.336  0.0848 -0.4384 -0.1641
   20SAPC  H12R 2616   5.163   6.598   9.316 -0.1224 -0.3414 -1.4248
   20SAPC  C213 2617   4.983   6.690   9.237  0.4760  0.1012 -0.1111
   20SAPC  H13R 2618   4.878   6.711   9.267  0.5648  1.3857 -0.6301
   20SAPC  H13S 2619   4.979   6.636   9.141 -0.3855 -1.6152  0.8576
   20SAPC  C214 2620   5.051   6.825   9.224 -0.2161 -0.5152  0.8191
   20SAPC  H14R 2621   5.069   6.882   9.316  1.3057  0.0491  0.2072
   20SAPC  C215 2622   5.089   6.887   9.109 -0.3545  0.7514  0.1992
   20SAPC  H15R 2623   5.130   6.989   9.122  1.0438  0.5749 -2.2632
   20SAPC  C216 2624   5.071   6.838   8.967  0.2002 -0.2592 -0.5188
   20SAPC  H16R 2625   5.034   6.734   8.954 -1.5177  0.3767 -0.9929
   20SAPC  H16S 2626   5.159   6.843   8.900  1.9858 -1.2632  1.6510
   20SAPC  C217 2627   4.955   6.923   8.901 -0.0379 -0.2472  0.5175
   20SAPC  H17R 2628   4.968   7.033   8.911 -1.1297  0.2653 -2.6370
   20SAPC  H17S 2629   4.861   6.891   8.951 -0.9994  1.6775  0.0409
   20SAPC  C218 2630   4.924   6.879   8.756  0.3227 -0.3365  0.5179
   20SAPC  H18R 2631   4.870   6.782   8.752 -1.7310  0.7566 -0.1389
   20SAPC  H18S 2632   5.026   6.861   8.716  0.0479  1.7549 -1.3598
   20SAPC  C219 2633   4.839   6.975   8.671 -0.0800  0.2663  0.5279
   20SAPC  H19R 2634   4.875   7.079   8.660 -0.3764  0.3942  0.7767
   20SAPC  H19S 2635   4.742   6.971   8.724  1.2951  0.1410  3.1786
   20SAPC  C220 2636   4.804   6.919   8.525 -0.4542  0.3434  0.6335
   20SAPC  H20R 2637   4.781   6.810   8.531 -0.3204  0.3427  1.1753
   20SAPC  H20S 2638   4.891   6.927   8.456  0.9228 -1.2479  2.0919
   20SAPC  H20T 2639   4.720   6.974   8.476  0.3572  0.2289 -0.9664
   20SAPC   C33 2640   4.606   5.814   9.965 -1.3468  0.0546  0.0788
   20SAPC   H3X 2641   4.567   5.716   9.931  1.8369 -0.8294 -1.3357
   20SAPC   H3Y 2642   4.709   5.836   9.930 -1.8344  0.9070 -0.8602
   20SAPC   C34 2643   4.524   5.924   9.884 -0.3420  0.1918 -0.2368
   20SAPC   H4X 2644   4.583   6.018   9.881  3.2620 -1.8919 -1.1231
   20SAPC   H4Y 2645   4.420   5.924   9.922 -0.8412  2.7410 -1.3735
   20SAPC   C35 2646   4.527   5.893   9.738 -0.5418  0.1082 -0.2518
   20SAPC   H5X 2647   4.470   5.800   9.718  2.1251 -1.6830 -0.0273
   20SAPC   H5Y 2648   4.637   5.880   9.729 -0.2745  0.5230  2.0187
   20SAPC   C36 2649   4.480   6.001   9.647 -0.1434  0.3361  0.4145
   20SAPC   H6X 2650   4.505   6.099   9.691 -1.2795  1.4848 -1.3402
   20SAPC   H6Y 2651   4.371   5.992   9.623 -0.9917  2.4786  3.0675
   20SAPC   C37 2652   4.544   5.984   9.505 -0.1239 -0.2182  0.4393
   20SAPC   H7X 2653   4.497   5.901   9.449 -0.1233  0.0793 -0.0077
   20SAPC   H7Y 2654   4.648   5.951   9.527 -0.3960 -0.6286  1.1481
   20SAPC   C38 2655   4.542   6.108   9.417 -0.1410  1.0291 -0.6433
   20SAPC   H8X 2656   4.576   6.203   9.464  1.0178  0.1317  0.3981
   20SAPC   H8Y 2657   4.435   6.113   9.388 -0.3849 -0.3462 -0.0388
   20SAPC   C39 2658   4.623   6.083   9.289  0.2155 -0.1663  0.6833
   20SAPC   H9X 2659   4.608   5.986   9.238 -0.3758  0.1082  0.3244
   20SAPC   H9Y 2660   4.729   6.071   9.319 -0.5168 -2.8761  2.5673
   20SAPC  C310 2661   4.616   6.201   9.188  0.0889 -0.1618  0.2562
   20SAPC  H10X 2662   4.508   6.227   9.181 -0.2850 -1.8384 -0.8289
   20SAPC  H10Y 2663   4.645   6.166   9.087 -1.0013 -0.7555  0.1283
   20SAPC  C311 2664   4.697   6.331   9.228 -0.3834  0.3647  0.9340
   20SAPC  H11X 2665   4.802   6.293   9.234 -0.7951 -0.7676  1.1714
   20SAPC  H11Y 2666   4.654   6.369   9.323 -2.9916 -1.3399  0.5404
   20SAPC  C312 2667   4.694   6.433   9.113 -0.8385  0.2499  0.1949
   20SAPC  H12X 2668   4.694   6.537   9.152 -0.3148 -0.7849  3.2164
   20SAPC  H12Y 2669   4.601   6.418   9.054 -1.9345  0.2174  1.8412
   20SAPC  C313 2670   4.812   6.395   9.021  0.0207 -0.3865 -0.3452
   20SAPC  H13X 2671   4.801   6.286   9.005 -0.0274 -0.2543 -1.2652
   20SAPC  H13Y 2672   4.919   6.412   9.044  0.1841 -0.2110 -1.1827
   20SAPC  C314 2673   4.784   6.465   8.889  0.0813 -0.3047  0.1536
   20SAPC  H14X 2674   4.875   6.512   8.845  0.9689 -0.7551  1.4660
   20SAPC  H14Y 2675   4.714   6.551   8.891  1.0431  0.5858 -1.5167
   20SAPC  C315 2676   4.719   6.363   8.779 -0.1211 -0.0473 -0.1963
   20SAPC  H15X 2677   4.653   6.283   8.817 -0.3044  0.8132  1.3840
   20SAPC  H15Y 2678   4.792   6.302   8.721  0.6094 -0.2474  0.9094
   20SAPC  C316 2679   4.658   6.439   8.659  0.0997 -0.9060 -0.0834
   20SAPC  H16X 2680   4.578   6.508   8.694 -0.2348 -1.4808  0.2871
   20SAPC  H16Y 2681   4.615   6.366   8.587 -2.2817 -0.1828  0.4896
   20SAPC  C317 2682   4.761   6.522   8.574  0.1044 -0.0871 -0.6644
   20SAPC  H17X 2683   4.834   6.438   8.574 -0.9305 -1.0316  0.4848
   20SAPC  H17Y 2684   4.812   6.600   8.633  0.4822 -0.0410 -1.0492
   20SAPC  C318 2685   4.720   6.547   8.428 -0.3066 -0.0626  0.1731
   20SAPC  H18X 2686   4.655   6.466   8.390  0.0667 -1.0011  1.4218
   20SAPC  H18Y 2687   4.810   6.556   8.363 -0.3882  1.0323  0.2050
   20SAPC  H18Z 2688   4.658   6.638   8.422  0.8098  0.9274  2.3481
   21SAPC     N 2689   4.306   4.244  11.030  0.6114 -0.3749 -0.0222
   21SAPC   C12 2690   4.267   4.282  10.886  0.4699 -1.0167  0.4204
   21SAPC  H12A 2691   4.173   4.335  10.897 -0.0927 -2.0816  0.8874
   21SAPC  H12B 2692   4.251   4.193  10.828 -1.2479  0.4601 -1.5256
   21SAPC   C13 2693   4.427   4.172  11.051  0.3495 -0.1917  0.1328
   21SAPC  H13A 2694   4.417   4.130  11.150  1.6135 -1.0607 -0.0797
   21SAPC  H13B 2695   4.437   4.087  10.984 -0.1808 -1.0669  1.1406
   21SAPC  H13C 2696   4.510   4.238  11.033 -1.3808  2.4084  1.1593
   21SAPC   C14 2697   4.318   4.369  11.116 -0.2072  0.3789 -0.2348
   21SAPC  H14A 2698   4.399   4.430  11.079 -1.3824  0.2437 -3.3064
   21SAPC  H14B 2699   4.235   4.437  11.114 -0.2373  0.3773 -3.0975
   21SAPC  H14C 2700   4.336   4.339  11.219 -0.3702 -0.9878 -0.5892
   21SAPC   C15 2701   4.195   4.155  11.091  0.4565 -0.0856  0.1985
   21SAPC  H15A 2702   4.155   4.091  11.013  1.5402  0.0367 -0.4772
   21SAPC  H15B 2703   4.231   4.086  11.165 -0.0560 -0.8462 -0.2447
   21SAPC  H15C 2704   4.108   4.208  11.127 -0.8610 -0.2380 -2.5023
   21SAPC   C11 2705   4.371   4.366  10.811  0.0890 -0.7117  0.2372
   21SAPC  H11A 2706   4.375   4.462  10.868 -2.7232 -0.7619  0.6290
   21SAPC  H11B 2707   4.323   4.394  10.715 -2.3022 -1.2514  1.2198
   21SAPC     P 2708   4.525   4.178  10.718  0.1735 -0.1094  0.2660
   21SAPC   O13 2709   4.596   4.090  10.816 -0.1002  0.7270  0.5243
   21SAPC   O14 2710   4.395   4.126  10.662 -0.0660  0.0366 -0.7173
   21SAPC   O12 2711   4.501   4.306  10.794 -0.1264 -0.2364 -0.3948
   21SAPC   O11 2712   4.630   4.216  10.603 -0.6658 -0.4525  0.2233
   21SAPC    C1 2713   4.666   4.350  10.588 -0.2955 -0.5947 -0.4010
   21SAPC    HA 2714   4.582   4.414  10.553  1.9719  3.1458  0.4691
   21SAPC    HB 2715   4.698   4.398  10.683 -1.6668 -0.6431  0.1064
   21SAPC    C2 2716   4.773   4.365  10.479  0.0009  0.3830  1.1531
   21SAPC    HS 2717   4.829   4.461  10.483 -0.6654  0.8245  0.2310
   21SAPC   O21 2718   4.712   4.358  10.348 -0.5942  0.5876  0.0907
   21SAPC   C21 2719   4.660   4.461  10.297  0.1771 -0.7628  0.0049
   21SAPC   O22 2720   4.645   4.567  10.358  0.3767 -1.1318  0.0730
   21SAPC   C22 2721   4.625   4.439  10.154 -0.1178 -0.0285 -1.0488
   21SAPC   H2R 2722   4.715   4.444  10.089  0.0912  2.7484 -0.6558
   21SAPC   H2S 2723   4.573   4.343  10.135 -0.1192 -0.0884 -0.7471
   21SAPC    C3 2724   4.876   4.245  10.493 -0.5083 -1.0169 -0.2153
   21SAPC    HX 2725   4.823   4.147  10.491 -1.5612 -0.4764  0.3731
   21SAPC    HY 2726   4.918   4.249  10.596  0.2828  2.6946 -0.5597
   21SAPC   O31 2727   4.984   4.264  10.403 -0.1781  0.7137 -0.2364
   21SAPC   C31 2728   5.038   4.149  10.358 -0.5687  1.0580  0.3124
   21SAPC   O32 2729   5.009   4.034  10.391 -0.0236  0.1552 -0.0018
   21SAPC   C32 2730   5.159   4.194  10.269  0.9619 -0.2740 -0.5728
   21SAPC   H2X 2731   5.190   4.102  10.215 -1.0206 -1.0387 -0.4810
   21SAPC   H2Y 2732   5.239   4.219  10.343 -0.8673 -1.4903  1.9513
   21SAPC   C23 2733   4.530   4.548  10.108  0.1026  0.1324  0.3585
   21SAPC   H3R 2734   4.573   4.649  10.128  0.9223  0.2788 -1.8808
   21SAPC   H3S 2735   4.437   4.544  10.170 -0.3299 -2.3670 -0.3642
   21SAPC   C24 2736   4.503   4.536   9.961 -0.1665 -0.1859  0.1097
   21SAPC   H4R 2737   4.587   4.545   9.888 -1.5020 -0.1297 -1.4944
   21SAPC   H4S 2738   4.443   4.626   9.935  1.3929  0.3739 -1.8085
   21SAPC   C25 2739   4.414   4.419   9.923  0.5165  0.7419  0.1296
   21SAPC   H5R 2740   4.358   4.380  10.009 -0.9812  0.2528 -1.0274
   21SAPC   C26 2741   4.423   4.338   9.816 -0.5784  0.0656 -0.0600
   21SAPC   H6R 2742   4.344   4.264   9.799  0.3725 -1.0033  0.0031
   21SAPC   C27 2743   4.515   4.358   9.692  0.2219  0.2878 -0.7358
   21SAPC   H7R 2744   4.561   4.259   9.670  0.3425 -0.0802  1.0475
   21SAPC   H7S 2745   4.598   4.428   9.713 -0.6185  1.1389 -0.1898
   21SAPC   C28 2746   4.428   4.418   9.584 -0.7960 -0.0867 -0.2471
   21SAPC   H8R 2747   4.374   4.510   9.610 -0.8259  0.0958 -0.9360
   21SAPC   C29 2748   4.400   4.368   9.464 -0.2501 -0.8182 -0.0304
   21SAPC   H9R 2749   4.344   4.435   9.397  0.1183 -1.8362 -1.3918
   21SAPC  C210 2750   4.454   4.243   9.391 -0.0150 -0.1872 -0.4051
   21SAPC  H10R 2751   4.365   4.178   9.378  0.1922 -0.4711 -0.4096
   21SAPC  H10S 2752   4.531   4.191   9.452 -0.2998 -1.1288 -0.8307
   21SAPC  C211 2753   4.523   4.265   9.256  0.3313  0.0555 -0.4827
   21SAPC  H11R 2754   4.597   4.346   9.252  0.9774 -0.4910  0.0947
   21SAPC  C212 2755   4.523   4.186   9.143 -0.5751 -0.5240 -0.1470
   21SAPC  H12R 2756   4.576   4.213   9.050  0.6938  1.3166  1.0321
   21SAPC  C213 2757   4.451   4.056   9.133  0.6558  0.2388 -0.3059
   21SAPC  H13R 2758   4.389   4.039   9.223  2.6078  0.1081  1.0833
   21SAPC  H13S 2759   4.528   3.976   9.131  2.4694  1.9054 -0.1687
   21SAPC  C214 2760   4.382   4.035   9.003 -0.0927  0.0396  0.0078
   21SAPC  H14R 2761   4.403   4.106   8.921  0.1800  2.3028  1.9285
   21SAPC  C215 2762   4.286   3.942   8.987 -0.1539 -0.3617  0.1402
   21SAPC  H15R 2763   4.239   3.931   8.888 -1.2048 -0.8254  0.6724
   21SAPC  C216 2764   4.236   3.847   9.090  0.1513  0.5482 -0.2087
   21SAPC  H16R 2765   4.301   3.837   9.179  0.4127  0.1999 -0.4350
   21SAPC  H16S 2766   4.225   3.741   9.060  1.3346  0.1131  0.7797
   21SAPC  C217 2767   4.097   3.886   9.132 -0.3362 -0.8898  0.8040
   21SAPC  H17R 2768   4.018   3.872   9.055 -1.6443 -0.8516  2.0922
   21SAPC  H17S 2769   4.095   3.996   9.149  1.0196 -0.2293 -2.6224
   21SAPC  C218 2770   4.050   3.830   9.256 -0.4362  0.2333 -0.0856
   21SAPC  H18R 2771   4.048   3.911   9.332  0.7938  0.6179 -0.4380
   21SAPC  H18S 2772   4.113   3.745   9.289 -1.8684 -0.6014  0.5980
   21SAPC  C219 2773   3.912   3.746   9.239 -0.4500 -0.7223 -0.2497
   21SAPC  H19R 2774   3.932   3.658   9.174  0.4860 -0.1995 -0.6923
   21SAPC  H19S 2775   3.859   3.829   9.187  1.7295  1.3462  0.6634
   21SAPC  C220 2776   3.831   3.699   9.373 -0.4813  0.6453 -0.6237
   21SAPC  H20R 2777   3.787   3.780   9.435  0.9915 -0.6057  2.2380
   21SAPC  H20S 2778   3.901   3.647   9.442 -1.3224 -1.6257 -1.3632
   21SAPC  H20T 2779   3.754   3.625   9.341 -2.4107  1.4353  1.9239
   21SAPC   C33 2780   5.140   4.318  10.185 -0.2938 -0.1024 -0.2358
   21SAPC   H3X 2781   5.232   4.358  10.139 -0.4094 -1.1831 -1.4647
   21SAPC   H3Y 2782   5.112   4.407  10.246  3.2342  0.3474  0.9388
   21SAPC   C34 2783   5.039   4.305  10.070 -0.9276  0.6181  0.4513
   21SAPC   H4X 2784   5.029   4.405  10.021 -0.3835  0.9049  0.9196
   21SAPC   H4Y 2785   4.942   4.272  10.114 -1.7568 -0.3474 -1.9236
   21SAPC   C35 2786   5.070   4.183   9.979  0.6436  0.0290 -0.5792
   21SAPC   H5X 2787   5.058   4.090  10.038 -1.5457  0.4653 -0.2218
   21SAPC   H5Y 2788   5.166   4.192   9.925 -0.0995  0.0282 -1.9488
   21SAPC   C36 2789   4.964   4.185   9.869 -0.1659  0.3444  0.5488
   21SAPC   H6X 2790   5.000   4.260   9.796 -0.3564 -0.2663 -0.1882
   21SAPC   H6Y 2791   4.865   4.221   9.905  1.1329  1.3122  3.3979
   21SAPC   C37 2792   4.950   4.050   9.797  0.8022  0.2929  0.0313
   21SAPC   H7X 2793   4.880   3.992   9.861  1.3414 -0.3800  0.0292
   21SAPC   H7Y 2794   5.039   3.985   9.808  1.2335  0.7784 -0.5739
   21SAPC   C38 2795   4.903   4.061   9.650 -1.0633 -0.9819 -0.3280
   21SAPC   H8X 2796   4.967   4.141   9.607 -0.3139 -0.9729  0.7529
   21SAPC   H8Y 2797   4.802   4.105   9.650 -0.3588  0.7183 -0.7067
   21SAPC   C39 2798   4.906   3.939   9.561  0.4852 -0.4605 -0.5181
   21SAPC   H9X 2799   4.842   3.861   9.608  0.8780 -0.4741  0.0031
   21SAPC   H9Y 2800   5.006   3.892   9.561  0.2702 -0.9339 -1.5089
   21SAPC  C310 2801   4.871   3.976   9.413 -0.5525  0.3031  0.5298
   21SAPC  H10X 2802   4.765   4.010   9.423 -1.5294 -1.2761 -2.7475
   21SAPC  H10Y 2803   4.863   3.883   9.353 -3.4078 -0.3991  1.8011
   21SAPC  C311 2804   4.950   4.090   9.343  0.2442  0.3184  0.0250
   21SAPC  H11X 2805   5.043   4.089   9.403  1.6757 -1.3439 -2.0766
   21SAPC  H11Y 2806   4.894   4.183   9.365 -1.6520 -0.8822  0.6323
   21SAPC  C312 2807   4.990   4.062   9.195 -0.1190 -0.7083  0.6149
   21SAPC  H12X 2808   5.039   3.963   9.180 -1.1458 -1.2553  0.7599
   21SAPC  H12Y 2809   5.069   4.133   9.167 -0.1395 -0.5477  0.9529
   21SAPC  C313 2810   4.867   4.080   9.099  0.7611 -0.3264 -0.1089
   21SAPC  H13X 2811   4.811   4.174   9.120 -0.1480 -1.0689  0.9215
   21SAPC  H13Y 2812   4.792   4.001   9.122  0.2871 -0.0239 -0.5847
   21SAPC  C314 2813   4.907   4.080   8.948  0.2081 -0.2127  0.6161
   21SAPC  H14X 2814   4.955   3.985   8.915 -0.5464  0.2087 -1.9686
   21SAPC  H14Y 2815   4.984   4.158   8.933 -0.5684  0.0171 -3.4624
   21SAPC  C315 2816   4.788   4.104   8.847  0.5155 -0.1036 -0.6775
   21SAPC  H15X 2817   4.757   4.210   8.850  2.6546  0.5408  0.2248
   21SAPC  H15Y 2818   4.697   4.049   8.879 -0.2694  0.6358 -1.5606
   21SAPC  C316 2819   4.821   4.069   8.698  0.0698  0.4982  0.3944
   21SAPC  H16X 2820   4.885   3.978   8.700  2.0077  1.8250  0.7443
   21SAPC  H16Y 2821   4.877   4.149   8.646 -0.0719 -0.1468 -0.8042
   21SAPC  C317 2822   4.710   4.035   8.605 -0.0593 -0.2109 -0.8996
   21SAPC  H17X 2823   4.644   4.123   8.624  1.1160  0.2425  1.4970
   21SAPC  H17Y 2824   4.662   3.941   8.638 -0.0330 -0.5029 -1.6739
   21SAPC  C318 2825   4.752   4.007   8.458 -0.2544  0.3320 -0.2654
   21SAPC  H18X 2826   4.670   4.025   8.385  0.9339  1.9254 -1.2607
   21SAPC  H18Y 2827   4.792   3.904   8.457 -0.3242  0.1934  2.7030
   21SAPC  H18Z 2828   4.833   4.072   8.419  1.0592 -1.6300 -0.9532
   22SAPC     N 2829   4.876   2.546  11.018  0.3233 -0.5469 -0.0480
   22SAPC   C12 2830   4.844   2.611  10.886  0.5406  0.1491 -0.5959
   22SAPC  H12A 2831   4.857   2.717  10.899 -2.2778  0.5874 -0.6541
   22SAPC  H12B 2832   4.738   2.596  10.869 -0.0302  0.9017  1.8510
   22SAPC   C13 2833   4.786   2.613  11.117  0.0199  0.1905  0.5794
   22SAPC  H13A 2834   4.685   2.582  11.095 -0.4057  0.7367  1.7050
   22SAPC  H13B 2835   4.811   2.592  11.219  2.5643  2.4987  0.5767
   22SAPC  H13C 2836   4.794   2.721  11.113  1.4376  0.2027  2.6487
   22SAPC   C14 2837   4.844   2.395  11.040  0.9520  1.0655  0.3460
   22SAPC  H14A 2838   4.854   2.365  11.143 -0.3019  2.0650  0.7701
   22SAPC  H14B 2839   4.745   2.378  11.002  1.2745 -0.0049 -0.0619
   22SAPC  H14C 2840   4.903   2.343  10.965 -2.7652 -1.3512 -1.2064
   22SAPC   C15 2841   5.015   2.572  11.047 -0.2254  0.9118 -0.1316
   22SAPC  H15A 2842   5.037   2.676  11.066 -2.1929  0.9987  2.0070
   22SAPC  H15B 2843   5.042   2.529  11.142 -1.4628  0.8356  0.1938
   22SAPC  H15C 2844   5.082   2.539  10.969  3.5661  3.3660  1.7617
   22SAPC   C11 2845   4.912   2.566  10.758 -0.0943 -0.2868 -0.2526
   22SAPC  H11A 2846   5.020   2.587  10.771  0.0245 -0.4064 -1.0141
   22SAPC  H11B 2847   4.884   2.622  10.667 -2.4988 -0.5289  0.2682
   22SAPC     P 2848   4.779   2.384  10.642 -0.3898  0.6649  0.5565
   22SAPC   O13 2849   4.763   2.237  10.658 -0.3754  0.0936 -0.0660
   22SAPC   O14 2850   4.661   2.462  10.681 -0.0500 -0.0138 -0.1045
   22SAPC   O12 2851   4.896   2.426  10.738 -0.8392  0.6451  0.0263
   22SAPC   O11 2852   4.822   2.425  10.491 -0.3731  0.3115  0.0793
   22SAPC    C1 2853   4.960   2.417  10.450 -0.4179  0.5032 -0.3385
   22SAPC    HA 2854   5.011   2.515  10.449 -0.1857  0.4120 -2.5682
   22SAPC    HB 2855   5.018   2.351  10.519 -0.6168  0.6053 -0.0738
   22SAPC    C2 2856   4.984   2.351  10.312  0.1370 -0.7392  0.5759
   22SAPC    HS 2857   5.093   2.343  10.290 -0.1189  0.3544 -1.2888
   22SAPC   O21 2858   4.923   2.449  10.220  0.2074 -0.1736 -0.0382
   22SAPC   C21 2859   5.002   2.550  10.196 -0.1357 -0.2022  0.3416
   22SAPC   O22 2860   5.118   2.567  10.227  0.3218  0.2404  0.0275
   22SAPC   C22 2861   4.935   2.657  10.113 -0.6281 -0.1727  0.2479
   22SAPC   H2R 2862   4.838   2.614  10.078  0.3795 -1.1221 -1.5422
   22SAPC   H2S 2863   4.905   2.739  10.181  0.9856  0.9041 -0.2900
   22SAPC    C3 2864   4.929   2.207  10.307 -0.2994  0.2305 -0.0365
   22SAPC    HX 2865   4.829   2.212  10.355 -0.6255  0.7158 -0.7424
   22SAPC    HY 2866   4.985   2.146  10.380  0.1015  0.5965 -0.0365
   22SAPC   O31 2867   4.920   2.140  10.180  0.0510  0.1542  0.4137
   22SAPC   C31 2868   5.037   2.100  10.125  1.1374 -0.4645  0.3898
   22SAPC   O32 2869   5.146   2.113  10.174  0.4002 -0.3822  0.1207
   22SAPC   C32 2870   5.000   2.030   9.995  0.3532  0.4775  0.0474
   22SAPC   H2X 2871   4.903   1.980  10.015  1.2785 -1.3711  0.1213
   22SAPC   H2Y 2872   5.083   1.962   9.964  1.4084  1.5245  0.4936
   22SAPC   C23 2873   5.028   2.708   9.995  0.1892 -0.1528 -0.1626
   22SAPC   H3R 2874   5.113   2.758  10.046 -0.1410 -0.9025  1.1599
   22SAPC   H3S 2875   4.973   2.789   9.942 -0.3278 -0.4587 -0.1038
   22SAPC   C24 2876   5.087   2.606   9.898 -0.5520  0.2237 -0.1927
   22SAPC   H4R 2877   5.000   2.543   9.869  1.2067 -1.6848 -1.7078
   22SAPC   H4S 2878   5.155   2.535   9.950  0.6465  1.7392  0.3946
   22SAPC   C25 2879   5.161   2.668   9.786 -1.0926 -0.5654 -0.4453
   22SAPC   H5R 2880   5.253   2.724   9.804 -0.5909 -1.3053 -0.6271
   22SAPC   C26 2881   5.119   2.667   9.660 -0.4022 -0.4350 -0.1466
   22SAPC   H6R 2882   5.188   2.693   9.578  2.5595  0.1366  2.3514
   22SAPC   C27 2883   4.989   2.603   9.614  0.1795  0.3010  0.7689
   22SAPC   H7R 2884   4.958   2.520   9.682  0.8757 -0.6570 -0.0583
   22SAPC   H7S 2885   5.001   2.551   9.516 -2.5226 -1.1024  1.0827
   22SAPC   C28 2886   4.878   2.705   9.620 -0.5496  0.1260  0.8435
   22SAPC   H8R 2887   4.813   2.705   9.709 -1.1486 -1.6166  0.4468
   22SAPC   C29 2888   4.843   2.791   9.527  0.2300  0.3632  0.7641
   22SAPC   H9R 2889   4.757   2.856   9.549 -0.1870  0.5512 -1.1795
   22SAPC  C210 2890   4.918   2.818   9.396  0.5312 -0.0820 -0.2555
   22SAPC  H10R 2891   4.972   2.730   9.357  0.2998  0.2025 -1.2323
   22SAPC  H10S 2892   4.993   2.896   9.421 -0.1825  0.6158 -0.2494
   22SAPC  C211 2893   4.824   2.861   9.290 -0.0515 -0.7340 -0.2594
   22SAPC  H11R 2894   4.740   2.794   9.269 -0.5959 -0.6437  1.4289
   22SAPC  C212 2895   4.847   2.966   9.204  0.4853  0.2958  0.0026
   22SAPC  H12R 2896   4.776   2.992   9.124 -0.8383 -0.6813  0.8286
   22SAPC  C213 2897   4.974   3.051   9.206 -0.3209  0.6350  0.2305
   22SAPC  H13R 2898   4.996   3.052   9.097  1.5492 -1.5698  0.5250
   22SAPC  H13S 2899   5.058   3.003   9.260 -0.0018  1.5196  0.5433
   22SAPC  C214 2900   4.948   3.192   9.260 -0.1484  0.3404  0.4849
   22SAPC  H14R 2901   4.944   3.194   9.370 -0.2876 -2.5728  0.6299
   22SAPC  C215 2902   4.915   3.298   9.185 -0.1701  0.1584  0.0459
   22SAPC  H15R 2903   4.905   3.396   9.234  2.1900  0.9139 -0.7873
   22SAPC  C216 2904   4.896   3.293   9.038  0.0540 -0.2423  0.4246
   22SAPC  H16R 2905   4.820   3.365   9.001  1.9629  1.7512  0.1777
   22SAPC  H16S 2906   4.845   3.197   9.016 -2.0896  0.7121  1.0225
   22SAPC  C217 2907   5.024   3.325   8.947 -0.5989 -0.2069 -0.7510
   22SAPC  H17R 2908   5.110   3.261   8.977  0.2108  0.9889 -0.4150
   22SAPC  H17S 2909   5.055   3.425   8.985  0.9796 -0.1656 -2.0540
   22SAPC  C218 2910   4.999   3.330   8.803  0.1130 -0.1790  0.6086
   22SAPC  H18R 2911   4.911   3.391   8.774  2.0176  2.9512  0.9200
   22SAPC  H18S 2912   4.988   3.222   8.776  0.8726  0.6074 -3.5444
   22SAPC  C219 2913   5.116   3.375   8.718 -0.8672  0.3271 -0.4176
   22SAPC  H19R 2914   5.202   3.307   8.733 -1.6512 -0.4269  0.8535
   22SAPC  H19S 2915   5.143   3.468   8.773 -0.1393 -0.2210  0.1860
   22SAPC  C220 2916   5.085   3.385   8.569 -1.2941 -0.1325 -0.3352
   22SAPC  H20R 2917   5.066   3.279   8.539 -1.5862 -0.2490  0.2475
   22SAPC  H20S 2918   5.175   3.420   8.514 -0.9110 -0.1136  0.2854
   22SAPC  H20T 2919   5.012   3.467   8.552  1.7985  3.9396  3.6836
   22SAPC   C33 2920   4.988   2.134   9.882 -0.0216  0.1551  0.2625
   22SAPC   H3X 2921   4.960   2.236   9.914  0.8340  0.2093  0.8814
   22SAPC   H3Y 2922   4.904   2.101   9.816  0.9914  0.8311 -1.4281
   22SAPC   C34 2923   5.109   2.146   9.782 -0.2697 -0.4453  1.0772
   22SAPC   H4X 2924   5.132   2.048   9.735 -2.0770 -0.9237  1.1208
   22SAPC   H4Y 2925   5.195   2.182   9.843 -0.9895  0.5550  1.5360
   22SAPC   C35 2926   5.080   2.246   9.663  0.9073 -0.0178  0.3835
   22SAPC   H5X 2927   5.059   2.340   9.718 -2.6049 -0.0463 -0.6300
   22SAPC   H5Y 2928   4.983   2.221   9.614  1.8386  1.3039 -2.2858
   22SAPC   C36 2929   5.185   2.255   9.557 -0.1909 -0.7020  0.3782
   22SAPC   H6X 2930   5.255   2.172   9.581  0.0333 -0.6865 -0.2134
   22SAPC   H6Y 2931   5.241   2.350   9.561 -2.5838  0.8065  0.1805
   22SAPC   C37 2932   5.117   2.248   9.411 -0.2920  0.2745 -0.0494
   22SAPC   H7X 2933   5.108   2.354   9.380  0.3868  0.7963  1.4386
   22SAPC   H7Y 2934   5.013   2.210   9.422  0.0943 -0.4449  1.4458
   22SAPC   C38 2935   5.190   2.166   9.310 -0.3700  0.0591  0.0515
   22SAPC   H8X 2936   5.225   2.065   9.342 -2.4699  0.1602  3.0372
   22SAPC   H8Y 2937   5.277   2.227   9.276 -1.1347  0.8272 -0.5645
   22SAPC   C39 2938   5.107   2.147   9.178 -0.2218 -0.1726  0.0490
   22SAPC   H9X 2939   5.059   2.241   9.145  1.6425  0.7967 -0.0493
   22SAPC   H9Y 2940   5.032   2.071   9.207 -2.0542  2.1068  1.5799
   22SAPC  C310 2941   5.191   2.097   9.062  0.5525  0.3419  0.5660
   22SAPC  H10X 2942   5.247   2.004   9.088  2.4104  1.7744  2.0409
   22SAPC  H10Y 2943   5.279   2.162   9.040  0.4582  0.1854 -0.3445
   22SAPC  C311 2944   5.103   2.077   8.935 -0.0171 -0.0511  0.2574
   22SAPC  H11X 2945   5.060   2.172   8.896 -0.0767 -0.7512 -1.5133
   22SAPC  H11Y 2946   5.019   2.009   8.960  0.3637 -1.6760 -2.4036
   22SAPC  C312 2947   5.167   2.000   8.823  0.1770  0.0635  0.1703
   22SAPC  H12X 2948   5.106   1.987   8.731  0.8261  0.0661 -0.2635
   22SAPC  H12Y 2949   5.211   1.904   8.856  0.3028 -0.3027 -1.0117
   22SAPC  C313 2950   5.291   2.071   8.759  0.5176  0.0480  0.1245
   22SAPC  H13X 2951   5.331   1.986   8.699  0.2462 -1.5095  2.0438
   22SAPC  H13Y 2952   5.368   2.104   8.832  1.7138  2.8615 -2.2033
   22SAPC  C314 2953   5.261   2.196   8.672  0.2984 -0.0758  0.4786
   22SAPC  H14X 2954   5.351   2.236   8.621 -1.0475 -0.7459 -2.6680
   22SAPC  H14Y 2955   5.223   2.279   8.736 -1.7768 -0.8622  0.3386
   22SAPC  C315 2956   5.151   2.187   8.570  0.4547  1.1244  0.7120
   22SAPC  H15X 2957   5.136   2.291   8.534  2.2157  1.9205  2.1162
   22SAPC  H15Y 2958   5.053   2.156   8.613 -0.4444 -0.0554 -2.0035
   22SAPC  C316 2959   5.199   2.105   8.447 -0.5238  0.4099  0.0693
   22SAPC  H16X 2960   5.205   2.007   8.500  0.7242  0.1741 -0.4883
   22SAPC  H16Y 2961   5.303   2.129   8.418 -0.5206  0.3554  0.0354
   22SAPC  C317 2962   5.098   2.100   8.330 -0.7092  0.0086 -0.5545
   22SAPC  H17X 2963   5.002   2.067   8.375  0.6979 -0.6142  2.2105
   22SAPC  H17Y 2964   5.140   2.022   8.264 -2.5324 -1.9585  0.4921
   22SAPC  C318 2965   5.080   2.229   8.260 -0.0914  0.1463  0.6877
   22SAPC  H18X 2966   5.068   2.322   8.320  1.3422  0.5841  0.3212
   22SAPC  H18Y 2967   5.004   2.218   8.179  0.4268 -1.7166  0.4024
   22SAPC  H18Z 2968   5.169   2.244   8.196 -3.0123  2.3338 -3.3817
   23SAPC     N 2969   5.260   3.886  11.036  0.2986 -0.2539 -0.4382
   23SAPC   C12 2970   5.281   3.920  10.880  0.7209  0.8215 -0.4810
   23SAPC  H12A 2971   5.306   4.025  10.884  0.1845  0.9481 -0.3576
   23SAPC  H12B 2972   5.186   3.920  10.828  1.5016 -0.6466 -1.9861
   23SAPC   C13 2973   5.127   3.935  11.077 -0.2339 -0.2576 -0.0946
   23SAPC  H13A 2974   5.098   3.905  11.177  1.3864 -1.6193  0.0183
   23SAPC  H13B 2975   5.118   4.042  11.063 -0.4200 -0.5985 -3.3934
   23SAPC  H13C 2976   5.048   3.895  11.015 -0.9150 -1.2040  1.3337
   23SAPC   C14 2977   5.279   3.739  11.054  0.5231 -0.5176 -0.3178
   23SAPC  H14A 2978   5.243   3.705  11.150 -2.2490  0.9251 -0.7525
   23SAPC  H14B 2979   5.212   3.688  10.986 -1.0027 -0.1908  0.8947
   23SAPC  H14C 2980   5.385   3.715  11.059  0.8346  0.6636 -0.7836
   23SAPC   C15 2981   5.361   3.959  11.118  0.1279  0.4620 -0.1638
   23SAPC  H15A 2982   5.458   3.962  11.072  0.1038  2.0597 -0.1613
   23SAPC  H15B 2983   5.335   4.060  11.147  0.3566 -0.5755  4.3441
   23SAPC  H15C 2984   5.369   3.912  11.215 -1.5359  1.1112  0.3357
   23SAPC   C11 2985   5.395   3.851  10.802 -0.1270  1.0876 -0.0278
   23SAPC  H11A 2986   5.372   3.842  10.694  0.8314  2.7196 -0.4142
   23SAPC  H11B 2987   5.412   3.746  10.833 -0.9953  0.3583 -1.8764
   23SAPC     P 2988   5.550   4.059  10.757  0.2741 -0.4887  0.2670
   23SAPC   O13 2989   5.465   4.158  10.830  0.5656  0.5804  0.1463
   23SAPC   O14 2990   5.697   4.081  10.752 -0.2279  0.3529 -0.4720
   23SAPC   O12 2991   5.518   3.923  10.824 -0.1322  0.0945  0.4423
   23SAPC   O11 2992   5.489   4.055  10.615 -0.4399  0.0251 -0.1698
   23SAPC    C1 2993   5.568   3.985  10.510  0.2491 -0.0581  0.2913
   23SAPC    HA 2994   5.657   4.046  10.481 -0.1198  0.6853  0.6914
   23SAPC    HB 2995   5.590   3.884  10.551 -1.7404  0.3109  2.4543
   23SAPC    C2 2996   5.497   3.958  10.372 -0.1545  0.6399 -0.5730
   23SAPC    HS 2997   5.566   3.888  10.321  1.4083  2.0189 -0.4304
   23SAPC   O21 2998   5.497   4.082  10.303 -0.4673 -0.7353 -0.1451
   23SAPC   C21 2999   5.520   4.077  10.178 -0.3120 -0.4776  0.3057
   23SAPC   O22 3000   5.537   3.975  10.118 -0.2281  0.1106  0.7324
   23SAPC   C22 3001   5.518   4.223  10.119  0.1858  0.1793  0.2148
   23SAPC   H2R 3002   5.455   4.296  10.174  0.5557 -0.6302  1.7665
   23SAPC   H2S 3003   5.624   4.253  10.132  0.1811 -0.0448  0.7914
   23SAPC    C3 3004   5.357   3.898  10.389  0.0409  0.6123  0.4243
   23SAPC    HX 3005   5.289   3.950  10.460  0.8167 -0.3048  1.9140
   23SAPC    HY 3006   5.371   3.806  10.450 -0.3230 -0.2767 -0.8175
   23SAPC   O31 3007   5.294   3.881  10.259 -0.2420  0.5428  0.4504
   23SAPC   C31 3008   5.318   3.767  10.192 -0.2062  0.2314 -0.4975
   23SAPC   O32 3009   5.371   3.669  10.237 -0.1016 -0.4214  0.4057
   23SAPC   C32 3010   5.272   3.791  10.044  0.3583  0.3689 -0.1657
   23SAPC   H2X 3011   5.261   3.900  10.022  1.8209  0.5920  0.1146
   23SAPC   H2Y 3012   5.178   3.733  10.036  0.3458  0.3012  0.4515
   23SAPC   C23 3013   5.486   4.234   9.964  0.4943  0.2664 -1.0358
   23SAPC   H3R 3014   5.385   4.202   9.932 -1.5745  4.8886 -0.0729
   23SAPC   H3S 3015   5.564   4.177   9.909  2.1256  1.5917 -0.1952
   23SAPC   C24 3016   5.519   4.376   9.911  0.5408  0.2094  0.1087
   23SAPC   H4R 3017   5.518   4.377   9.800 -2.5575 -0.5072  0.0372
   23SAPC   H4S 3018   5.620   4.411   9.941  0.5956 -0.2217  0.4505
   23SAPC   C25 3019   5.418   4.479   9.959 -0.0293  0.2923  0.5351
   23SAPC   H5R 3020   5.423   4.492  10.069 -1.0911 -0.4556  0.6897
   23SAPC   C26 3021   5.333   4.554   9.880 -0.4374  0.2644 -0.4879
   23SAPC   H6R 3022   5.266   4.620   9.937  1.1730  0.3722  1.3894
   23SAPC   C27 3023   5.312   4.550   9.732 -0.0486 -0.2422  0.4136
   23SAPC   H7R 3024   5.412   4.559   9.685  0.5485 -3.0602  0.9712
   23SAPC   H7S 3025   5.248   4.634   9.697  1.0392  0.4260 -0.0013
   23SAPC   C28 3026   5.239   4.429   9.692  0.1902 -0.1986 -0.2865
   23SAPC   H8R 3027   5.234   4.339   9.755 -2.9388 -0.0330 -0.1461
   23SAPC   C29 3028   5.189   4.418   9.564  0.5387 -0.2246 -1.4669
   23SAPC   H9R 3029   5.144   4.323   9.533 -0.1714 -0.7756  1.0319
   23SAPC  C210 3030   5.185   4.518   9.450 -0.4219 -0.4428  0.0985
   23SAPC  H10R 3031   5.158   4.620   9.486  0.6227 -0.3588  0.7046
   23SAPC  H10S 3032   5.113   4.476   9.377  3.3628  0.6843 -4.8491
   23SAPC  C211 3033   5.321   4.517   9.391 -0.3472 -0.4777  0.4462
   23SAPC  H11R 3034   5.409   4.540   9.453  0.3286  1.7674 -1.1737
   23SAPC  C212 3035   5.361   4.500   9.260  0.3097  0.7180 -0.5978
   23SAPC  H12R 3036   5.467   4.501   9.231  0.4996 -0.5179 -0.0158
   23SAPC  C213 3037   5.273   4.481   9.131  0.0296  0.3971 -0.2361
   23SAPC  H13R 3038   5.226   4.381   9.131  1.2842 -0.2092 -0.1637
   23SAPC  H13S 3039   5.336   4.476   9.040 -4.2775 -1.1660 -3.4410
   23SAPC  C214 3040   5.173   4.594   9.123 -0.0233 -0.2244  0.0187
   23SAPC  H14R 3041   5.191   4.684   9.182 -1.6631 -0.2374  0.6055
   23SAPC  C215 3042   5.058   4.592   9.060 -0.4592 -0.6711  0.1134
   23SAPC  H15R 3043   4.989   4.677   9.053 -0.1811 -0.4832 -0.3859
   23SAPC  C216 3044   5.004   4.482   8.967 -0.1645  0.1851 -0.4900
   23SAPC  H16R 3045   4.897   4.494   8.941 -0.1769 -0.9842 -1.0492
   23SAPC  H16S 3046   5.013   4.380   9.009 -1.7059  0.6420  1.0508
   23SAPC  C217 3047   5.090   4.485   8.839  0.3613 -0.0144  0.3919
   23SAPC  H17R 3048   5.090   4.385   8.792  1.3392  0.0707  0.1866
   23SAPC  H17S 3049   5.199   4.500   8.853  0.3129  3.3502 -1.7486
   23SAPC  C218 3050   5.040   4.603   8.748 -0.3428  0.7140 -0.0461
   23SAPC  H18R 3051   5.017   4.679   8.826  1.7715 -1.3496  2.7728
   23SAPC  H18S 3052   4.948   4.568   8.697  0.8988 -1.0492 -1.1761
   23SAPC  C219 3053   5.139   4.646   8.640 -0.2640 -0.0838  0.2748
   23SAPC  H19R 3054   5.177   4.556   8.587  0.7253  1.5371 -1.8918
   23SAPC  H19S 3055   5.221   4.705   8.685 -0.5885  1.0319 -0.5547
   23SAPC  C220 3056   5.071   4.739   8.537  0.3804  0.4463  0.5073
   23SAPC  H20R 3057   5.135   4.744   8.447  0.2789 -1.8762  0.2250
   23SAPC  H20S 3058   5.073   4.837   8.590 -0.8470  0.6378  0.2216
   23SAPC  H20T 3059   4.972   4.700   8.508  0.6201  0.5366 -0.4568
   23SAPC   C33 3060   5.373   3.743   9.942  0.7079  0.0998  0.7028
   23SAPC   H3X 3061   5.359   3.632   9.948  1.0508 -0.1307 -1.6597
   23SAPC   H3Y 3062   5.481   3.761   9.962  0.9105 -2.1117  1.8972
   23SAPC   C34 3063   5.340   3.796   9.801 -0.4833 -0.4439 -0.3517
   23SAPC   H4X 3064   5.234   3.787   9.769 -0.3592 -0.8426 -0.6553
   23SAPC   H4Y 3065   5.408   3.737   9.738  3.0060 -0.1530  2.7770
   23SAPC   C35 3066   5.392   3.946   9.777 -0.0267  0.3735  0.1607
   23SAPC   H5X 3067   5.492   3.959   9.823 -0.0911 -0.5775  0.6054
   23SAPC   H5Y 3068   5.323   4.018   9.826 -2.1972 -0.4404 -1.5205
   23SAPC   C36 3069   5.382   3.983   9.629 -0.0731  0.2826  0.3122
   23SAPC   H6X 3070   5.275   3.986   9.600  0.4580  1.8553 -1.7292
   23SAPC   H6Y 3071   5.431   3.908   9.563 -3.9261 -1.9172 -0.3131
   23SAPC   C37 3072   5.426   4.127   9.599  0.6959  0.4374  0.1072
   23SAPC   H7X 3073   5.532   4.144   9.625  0.4946 -1.3333  2.4531
   23SAPC   H7Y 3074   5.374   4.206   9.658 -0.2767 -1.0695  1.3390
   23SAPC   C38 3075   5.411   4.159   9.448 -0.2051 -0.1596 -0.1163
   23SAPC   H8X 3076   5.449   4.263   9.442  0.8559 -0.4429  1.1432
   23SAPC   H8Y 3077   5.303   4.172   9.426 -0.9464 -0.3861  2.9849
   23SAPC   C39 3078   5.480   4.076   9.343 -0.0797 -0.1623 -0.2900
   23SAPC   H9X 3079   5.440   3.976   9.316 -0.8785  0.3752 -1.1402
   23SAPC   H9Y 3080   5.590   4.084   9.357  0.0101  1.1110 -1.6043
   23SAPC  C310 3081   5.456   4.149   9.206 -0.8511  0.1847  0.5105
   23SAPC  H10X 3082   5.490   4.254   9.219 -1.9675  0.3909  1.9447
   23SAPC  H10Y 3083   5.346   4.139   9.190 -0.9806 -0.1976  1.5757
   23SAPC  C311 3084   5.535   4.087   9.089  0.3389  0.6535  0.6618
   23SAPC  H11X 3085   5.497   3.985   9.067  0.6171  0.5066  0.8531
   23SAPC  H11Y 3086   5.639   4.081   9.128  0.1322 -0.2846  1.1277
   23SAPC  C312 3087   5.535   4.156   8.943  0.2835 -0.5666  0.5961
   23SAPC  H12X 3088   5.556   4.262   8.969 -1.0076 -0.2478  0.3806
   23SAPC  H12Y 3089   5.432   4.147   8.902  0.3639  1.0792 -0.0691
   23SAPC  C313 3090   5.630   4.096   8.852  0.1139  0.4262  0.6051
   23SAPC  H13X 3091   5.624   3.988   8.878 -1.5659  0.4369  0.3827
   23SAPC  H13Y 3092   5.734   4.124   8.882  0.8635 -2.2461  0.7775
   23SAPC  C314 3093   5.601   4.122   8.707  0.2638 -0.0721 -0.3388
   23SAPC  H14X 3094   5.517   4.058   8.672  0.4923 -0.0713 -0.8980
   23SAPC  H14Y 3095   5.692   4.097   8.648 -0.9258 -3.1082 -1.0604
   23SAPC  C315 3096   5.579   4.276   8.685 -0.1414  0.0770  0.0516
   23SAPC  H15X 3097   5.670   4.334   8.712  1.7069 -1.0462 -3.2181
   23SAPC  H15Y 3098   5.501   4.320   8.750 -3.8358 -3.7256 -1.3480
   23SAPC  C316 3099   5.552   4.309   8.534 -0.5480  0.2277  0.4287
   23SAPC  H16X 3100   5.472   4.248   8.486  1.0372  0.4466 -2.7685
   23SAPC  H16Y 3101   5.646   4.293   8.478 -1.5446 -0.7108 -1.0522
   23SAPC  C317 3102   5.537   4.459   8.506 -0.0159 -0.3527  0.4139
   23SAPC  H17X 3103   5.437   4.490   8.546  0.4271  0.0070  1.2831
   23SAPC  H17Y 3104   5.544   4.464   8.396 -1.4788  1.6294  0.3340
   23SAPC  C318 3105   5.648   4.550   8.564 -0.0262  0.1768 -0.3889
   23SAPC  H18X 3106   5.644   4.552   8.675 -0.1253  0.2295 -0.3922
   23SAPC  H18Y 3107   5.631   4.651   8.521  2.8870  0.4057 -1.1556
   23SAPC  H18Z 3108   5.747   4.524   8.523  0.0312 -1.9479  0.9788
   24SAPC     N 3109   6.762   5.463  10.941 -0.2705  0.1034  0.2327
   24SAPC   C12 3110   6.638   5.489  10.853 -0.8257 -0.6923 -0.5756
   24SAPC  H12A 3111   6.636   5.414  10.776 -1.2341 -1.1729 -0.0973
   24SAPC  H12B 3112   6.662   5.586  10.811  1.3774 -0.4013  1.1708
   24SAPC   C13 3113   6.778   5.567  11.049 -0.3265 -0.3371  0.7953
   24SAPC  H13A 3114   6.685   5.575  11.104 -0.1668 -1.4655  1.2620
   24SAPC  H13B 3115   6.854   5.535  11.119 -0.0594 -0.3778  0.4875
   24SAPC  H13C 3116   6.802   5.665  11.012 -1.4155  0.0447  1.0647
   24SAPC   C14 3117   6.737   5.324  11.001  0.5490  0.1505 -0.6305
   24SAPC  H14A 3118   6.807   5.297  11.079  0.7472  2.4013  0.0491
   24SAPC  H14B 3119   6.637   5.318  11.044  0.9155  1.1634  0.4039
   24SAPC  H14C 3120   6.748   5.254  10.920 -0.9001  1.5611 -2.1161
   24SAPC   C15 3121   6.886   5.455  10.850  0.2065 -0.1431 -0.1278
   24SAPC  H15A 3122   6.923   5.555  10.832  0.8104 -0.4433 -0.6166
   24SAPC  H15B 3123   6.970   5.413  10.904  0.5451 -0.3310 -0.7889
   24SAPC  H15C 3124   6.869   5.413  10.752  1.1297 -0.8330 -0.0137
   24SAPC   C11 3125   6.502   5.498  10.921 -0.7368  0.3635  0.3755
   24SAPC  H11A 3126   6.497   5.406  10.983  1.4731 -0.0252  0.0626
   24SAPC  H11B 3127   6.422   5.494  10.844  1.2856 -0.1093 -1.8382
   24SAPC     P 3128   6.438   5.757  10.958 -0.0819 -0.2548  0.3952
   24SAPC   O13 3129   6.298   5.768  10.984  0.4857 -0.2322  0.3065
   24SAPC   O14 3130   6.529   5.860  11.012 -0.4073  0.3541  0.2808
   24SAPC   O12 3131   6.485   5.607  11.009 -0.1208  0.1558  0.1454
   24SAPC   O11 3132   6.461   5.757  10.799  0.3161  0.3860  0.0122
   24SAPC    C1 3133   6.417   5.865  10.717  0.2111 -0.0972  0.1711
   24SAPC    HA 3134   6.343   5.933  10.764 -1.1385  1.0244 -3.2295
   24SAPC    HB 3135   6.503   5.930  10.688 -0.8751  0.5175 -1.9215
   24SAPC    C2 3136   6.349   5.802  10.596 -0.1558 -0.2413 -0.0347
   24SAPC    HS 3137   6.263   5.740  10.630  0.3609 -1.1232 -0.3233
   24SAPC   O21 3138   6.441   5.716  10.531 -0.2755 -0.4798  0.1387
   24SAPC   C21 3139   6.390   5.617  10.459  0.3165  0.1470  0.6761
   24SAPC   O22 3140   6.276   5.573  10.470  0.3621  0.0439  0.3615
   24SAPC   C22 3141   6.496   5.557  10.374 -0.0577 -0.4233  0.1724
   24SAPC   H2R 3142   6.508   5.614  10.279 -0.9604  1.3374  1.0583
   24SAPC   H2S 3143   6.597   5.575  10.417 -0.0653  0.6660 -0.2305
   24SAPC    C3 3144   6.295   5.915  10.503  0.4895  0.2621 -0.9424
   24SAPC    HX 3145   6.368   5.997  10.492 -0.6429  1.3210 -0.7673
   24SAPC    HY 3146   6.201   5.954  10.548 -0.6549 -2.9004 -0.3378
   24SAPC   O31 3147   6.267   5.860  10.368  0.2592  0.2818  0.1883
   24SAPC   C31 3148   6.139   5.862  10.336  0.1756  0.1537 -0.3724
   24SAPC   O32 3149   6.047   5.924  10.386 -0.0483 -0.3834  0.0914
   24SAPC   C32 3150   6.121   5.767  10.216  0.3067 -0.3128 -0.6971
   24SAPC   H2X 3151   6.016   5.783  10.184 -0.5024  1.5559  2.4332
   24SAPC   H2Y 3152   6.131   5.664  10.255 -0.1679 -0.2819 -0.4881
   24SAPC   C23 3153   6.468   5.412  10.335  0.5502  0.1879 -0.2178
   24SAPC   H3R 3154   6.382   5.419  10.265  3.0821  2.6274 -3.4571
   24SAPC   H3S 3155   6.436   5.351  10.421  1.6146  1.3111  1.0376
   24SAPC   C24 3156   6.570   5.355  10.240  0.1894 -0.3481 -0.0616
   24SAPC   H4R 3157   6.662   5.368  10.301  1.4540 -0.3787 -1.8857
   24SAPC   H4S 3158   6.587   5.429  10.158  2.2468 -1.2327 -0.4793
   24SAPC   C25 3159   6.556   5.210  10.193 -0.0807 -0.3981  0.0982
   24SAPC   H5R 3160   6.548   5.130  10.268  0.3768  1.0408  1.7506
   24SAPC   C26 3161   6.550   5.172  10.069 -0.3959  0.1732  0.8696
   24SAPC   H6R 3162   6.544   5.064  10.046  1.4457  0.5210 -1.5230
   24SAPC   C27 3163   6.571   5.260   9.948  0.0654  0.1418  0.4100
   24SAPC   H7R 3164   6.508   5.349   9.969  0.4524  0.7614 -0.9648
   24SAPC   H7S 3165   6.512   5.216   9.865 -0.8132  0.4645  0.8498
   24SAPC   C28 3166   6.708   5.295   9.904  0.2603  0.3603  0.4431
   24SAPC   H8R 3167   6.785   5.299   9.983  1.5627  0.9109 -0.8105
   24SAPC   C29 3168   6.746   5.320   9.777 -0.4372 -0.7752 -0.4439
   24SAPC   H9R 3169   6.853   5.336   9.754 -0.9869 -0.1895 -2.8538
   24SAPC  C210 3170   6.665   5.322   9.650 -0.2728  0.0349 -0.2962
   24SAPC  H10R 3171   6.741   5.356   9.577  0.6047  0.2708  0.6975
   24SAPC  H10S 3172   6.599   5.410   9.664  0.2368  0.4366 -0.3752
   24SAPC  C211 3173   6.573   5.216   9.596  0.7467 -0.2217  0.5957
   24SAPC  H11R 3174   6.515   5.153   9.665  0.5825  1.0755  1.6893
   24SAPC  C212 3175   6.552   5.202   9.462  0.0030 -0.3961  0.3735
   24SAPC  H12R 3176   6.480   5.132   9.417 -2.1095 -0.0614  3.0066
   24SAPC  C213 3177   6.629   5.286   9.363 -0.0421 -0.6274 -0.7085
   24SAPC  H13R 3178   6.733   5.255   9.386 -0.4808 -2.4237 -0.9850
   24SAPC  H13S 3179   6.619   5.394   9.386  1.7545 -0.8730  1.5659
   24SAPC  C214 3180   6.601   5.262   9.216 -0.3371 -0.0981  0.2020
   24SAPC  H14R 3181   6.687   5.228   9.157 -0.3241 -0.3574  0.3692
   24SAPC  C215 3182   6.493   5.294   9.143 -0.8577 -0.7203  0.3193
   24SAPC  H15R 3183   6.484   5.262   9.038 -2.5324 -0.4856  0.3587
   24SAPC  C216 3184   6.376   5.368   9.197  0.4371 -0.3735 -0.3931
   24SAPC  H16R 3185   6.404   5.456   9.260  1.2526 -1.6054  1.0265
   24SAPC  H16S 3186   6.315   5.301   9.261 -2.5317  0.2110 -2.4440
   24SAPC  C217 3187   6.293   5.426   9.081  0.2247 -0.5557 -0.5392
   24SAPC  H17R 3188   6.341   5.515   9.036 -0.7165 -1.4279 -3.4706
   24SAPC  H17S 3189   6.200   5.465   9.128  0.9431  1.9960 -1.1207
   24SAPC  C218 3190   6.248   5.324   8.972 -0.5995 -0.0802 -0.0085
   24SAPC  H18R 3191   6.208   5.237   9.028 -1.4570  0.1755 -0.2016
   24SAPC  H18S 3192   6.333   5.293   8.908 -2.7754 -1.6768 -2.3516
   24SAPC  C219 3193   6.132   5.378   8.880 -0.8871  0.5596  0.8020
   24SAPC  H19R 3194   6.148   5.487   8.863 -0.1502  0.1812 -1.3023
   24SAPC  H19S 3195   6.036   5.376   8.936 -1.6278  3.7799 -0.1163
   24SAPC  C220 3196   6.116   5.299   8.747 -0.2153  0.3152 -0.7891
   24SAPC  H20R 3197   6.077   5.199   8.776 -1.2987  1.4147  1.7685
   24SAPC  H20S 3198   6.209   5.286   8.687 -0.9261 -2.0321 -1.4968
   24SAPC  H20T 3199   6.035   5.342   8.685  0.4304  1.2524 -1.0177
   24SAPC   C33 3200   6.221   5.783  10.101  1.1514  0.4915 -0.8593
   24SAPC   H3X 3201   6.325   5.777  10.141  1.7540  2.7692 -1.9193
   24SAPC   H3Y 3202   6.207   5.886  10.061 -2.7246  0.7261  0.6774
   24SAPC   C34 3203   6.227   5.680   9.995 -0.1116 -0.6879 -0.7082
   24SAPC   H4X 3204   6.213   5.575  10.031 -2.4636 -0.2805 -0.2863
   24SAPC   H4Y 3205   6.326   5.689   9.946 -0.4261  2.6162 -0.9524
   24SAPC   C35 3206   6.108   5.699   9.897 -0.1349 -0.1375  0.0581
   24SAPC   H5X 3207   6.128   5.796   9.846 -0.4641  0.9673  1.9280
   24SAPC   H5Y 3208   6.006   5.703   9.940 -0.3574  0.2558 -0.4987
   24SAPC   C36 3209   6.104   5.595   9.783  0.0451  0.4425 -0.4916
   24SAPC   H6X 3210   6.026   5.619   9.707  0.6215 -0.8085 -1.5310
   24SAPC   H6Y 3211   6.092   5.494   9.828  0.7463  0.4188 -0.3432
   24SAPC   C37 3212   6.234   5.588   9.700  0.4796  0.3573 -0.3830
   24SAPC   H7X 3213   6.320   5.559   9.764 -0.8966 -0.4356  1.1793
   24SAPC   H7Y 3214   6.245   5.694   9.669  0.0944  1.2506  2.2667
   24SAPC   C38 3215   6.244   5.495   9.577 -0.1186 -0.4820 -0.1584
   24SAPC   H8X 3216   6.260   5.390   9.608 -1.4129 -0.5922  0.2019
   24SAPC   H8Y 3217   6.331   5.525   9.515 -0.9771 -1.3132 -1.8360
   24SAPC   C39 3218   6.115   5.503   9.487  0.1643  0.1361  0.2618
   24SAPC   H9X 3219   6.027   5.486   9.554 -1.6326  0.6030 -1.8419
   24SAPC   H9Y 3220   6.125   5.429   9.405  1.3042 -0.7856  1.1960
   24SAPC  C310 3221   6.095   5.641   9.423 -0.5108 -0.1611 -0.2864
   24SAPC  H10X 3222   6.150   5.634   9.327  0.0382 -1.4036  0.1113
   24SAPC  H10Y 3223   6.154   5.706   9.492 -0.4986 -1.3810  0.8817
   24SAPC  C311 3224   5.957   5.699   9.396 -0.2106  0.6215  0.2046
   24SAPC  H11X 3225   5.959   5.803   9.355  1.6014 -0.1873 -1.9270
   24SAPC  H11Y 3226   5.894   5.709   9.487  0.7243 -1.9240  1.2072
   24SAPC  C312 3227   5.878   5.616   9.286  0.2779 -0.3790 -0.1042
   24SAPC  H12X 3228   5.891   5.510   9.318  1.7751 -0.2797 -0.3266
   24SAPC  H12Y 3229   5.933   5.626   9.190  3.2805 -1.3285  1.3846
   24SAPC  C313 3230   5.723   5.654   9.277 -0.1519 -0.5439  0.5740
   24SAPC  H13X 3231   5.675   5.580   9.209 -1.2554  0.5632  0.1230
   24SAPC  H13Y 3232   5.725   5.755   9.233  1.0738 -1.1016 -0.7138
   24SAPC  C314 3233   5.653   5.655   9.417  0.6102  0.4593 -0.0940
   24SAPC  H14X 3234   5.708   5.588   9.487 -0.4532 -0.4923 -0.1438
   24SAPC  H14Y 3235   5.549   5.624   9.394  1.7361 -2.3783 -1.9354
   24SAPC  C315 3236   5.652   5.796   9.474 -0.4978  0.0942  0.4684
   24SAPC  H15X 3237   5.568   5.853   9.429 -0.7125 -2.0434 -2.0338
   24SAPC  H15Y 3238   5.740   5.840   9.423 -1.2028 -0.8766 -1.6582
   24SAPC  C316 3239   5.658   5.807   9.624 -0.4332  0.0118  0.2746
   24SAPC  H16X 3240   5.746   5.768   9.679  0.2831 -1.3390 -1.7217
   24SAPC  H16Y 3241   5.572   5.756   9.673 -0.6202  0.7388  0.7182
   24SAPC  C317 3242   5.643   5.954   9.678 -0.1111  0.7855  0.9042
   24SAPC  H17X 3243   5.548   5.993   9.634 -0.5395 -2.5153 -1.4211
   24SAPC  H17Y 3244   5.728   6.017   9.642  2.0267 -1.1937  2.2607
   24SAPC  C318 3245   5.640   5.968   9.825 -0.8582 -0.2228 -0.8646
   24SAPC  H18X 3246   5.583   6.054   9.867 -2.3896 -1.7349  0.3114
   24SAPC  H18Y 3247   5.745   5.963   9.862 -1.3889 -0.1576  0.7105
   24SAPC  H18Z 3248   5.582   5.886   9.873 -0.1958  0.6105  1.4870
   25SAPC     N 3249   6.292   0.765   6.116  0.4300 -0.2844  0.0030
   25SAPC   C12 3250   6.159   0.800   6.191  0.2796 -0.6064 -0.5524
   25SAPC  H12A 3251   6.151   0.905   6.213 -1.6277 -0.9830  0.8277
   25SAPC  H12B 3252   6.151   0.742   6.282 -1.9689 -1.0685 -0.9814
   25SAPC   C13 3253   6.399   0.753   6.218  0.2544  0.2309 -0.3425
   25SAPC  H13A 3254   6.496   0.735   6.173  0.5901 -0.5581  0.6525
   25SAPC  H13B 3255   6.410   0.844   6.276 -0.6235  0.8190 -1.0898
   25SAPC  H13C 3256   6.384   0.668   6.283  0.1515 -1.0020 -1.9284
   25SAPC   C14 3257   6.272   0.631   6.048 -0.0033 -0.3972  0.3012
   25SAPC  H14A 3258   6.357   0.596   5.991  0.2092 -3.0272  2.0297
   25SAPC  H14B 3259   6.263   0.554   6.123  0.0335 -0.9826 -0.2876
   25SAPC  H14C 3260   6.182   0.647   5.991 -0.9439  2.2330  2.3349
   25SAPC   C15 3261   6.328   0.862   6.007  0.4060 -0.1947 -0.2631
   25SAPC  H15A 3262   6.259   0.855   5.925  1.1318  1.3970 -1.0522
   25SAPC  H15B 3263   6.341   0.964   6.039  0.3178 -0.2473 -0.0572
   25SAPC  H15C 3264   6.422   0.831   5.963  0.6592 -0.2271  0.2783
   25SAPC   C11 3265   6.028   0.791   6.117 -0.3522  0.3248 -0.3540
   25SAPC  H11A 3266   5.953   0.850   6.174 -1.0339 -0.5044 -0.3684
   25SAPC  H11B 3267   5.993   0.687   6.132  2.8201 -0.4357  3.4683
   25SAPC     P 3268   6.007   0.992   5.927 -0.1652 -0.1941 -0.0827
   25SAPC   O13 3269   6.120   1.079   5.964 -0.5810 -0.3111  0.1345
   25SAPC   O14 3270   5.969   0.979   5.789 -1.3133 -0.5041  0.1239
   25SAPC   O12 3271   6.045   0.844   5.984 -0.1469  0.4549  0.4386
   25SAPC   O11 3272   5.874   1.023   6.009 -0.0514  0.2262 -0.3414
   25SAPC    C1 3273   5.843   1.152   6.048  0.0896 -0.3160 -0.3558
   25SAPC    HA 3274   5.866   1.230   5.973 -1.3078  1.7370  1.2363
   25SAPC    HB 3275   5.735   1.175   6.059  0.7616  2.2228  2.1222
   25SAPC    C2 3276   5.908   1.197   6.183 -0.8892  0.0129 -0.5815
   25SAPC    HS 3277   6.018   1.186   6.175 -1.0190 -0.6860 -1.5907
   25SAPC   O21 3278   5.862   1.107   6.287  1.0541  0.0545 -0.5249
   25SAPC   C21 3279   5.964   1.065   6.364 -0.1390 -0.3286  0.0018
   25SAPC   O22 3280   6.082   1.102   6.353  0.7494  0.0158  0.1095
   25SAPC   C22 3281   5.917   0.981   6.480  0.0997  0.5657  0.6943
   25SAPC   H2R 3282   5.834   1.033   6.532  0.2758 -0.2562  1.8425
   25SAPC   H2S 3283   5.884   0.886   6.434  1.0494 -0.0395  1.2109
   25SAPC    C3 3284   5.873   1.346   6.220 -0.2176  0.1107  0.4433
   25SAPC    HX 3285   5.769   1.360   6.256 -0.5475  0.1259 -0.4954
   25SAPC    HY 3286   5.883   1.402   6.125  0.1461 -2.3754 -1.0809
   25SAPC   O31 3287   5.975   1.401   6.305 -0.4035 -0.2601  0.1036
   25SAPC   C31 3288   5.946   1.439   6.436  1.1104  0.1371 -0.0005
   25SAPC   O32 3289   5.834   1.412   6.482  0.1060 -0.2713 -0.0644
   25SAPC   C32 3290   6.059   1.507   6.507 -0.9512 -0.2114 -0.1094
   25SAPC   H2X 3291   6.068   1.604   6.452 -0.2833 -0.7125 -0.8983
   25SAPC   H2Y 3292   6.151   1.446   6.498 -0.4133 -0.1225  3.4459
   25SAPC   C23 3293   6.035   0.958   6.582  0.7602  0.4400  0.3457
   25SAPC   H3R 3294   6.078   1.060   6.593 -2.0896  1.7558  0.1618
   25SAPC   H3S 3295   6.115   0.894   6.540 -0.0942 -0.7308  0.4699
   25SAPC   C24 3296   5.999   0.906   6.717  0.1845 -0.3150  0.5843
   25SAPC   H4R 3297   5.978   0.797   6.705  1.6849 -0.5970  0.2182
   25SAPC   H4S 3298   5.921   0.971   6.761  0.6376  2.1338 -2.0242
   25SAPC   C25 3299   6.117   0.930   6.813  0.8549  0.0148  0.8886
   25SAPC   H5R 3300   6.202   0.981   6.765 -0.0037  0.8061  0.1575
   25SAPC   C26 3301   6.127   0.887   6.941  0.5392  0.4398  0.1670
   25SAPC   H6R 3302   6.206   0.924   7.008  0.4377  1.3144 -0.1867
   25SAPC   C27 3303   6.017   0.802   7.010  0.0245 -0.4124 -1.0296
   25SAPC   H7R 3304   6.000   0.713   6.945  3.2701 -0.9920 -1.2509
   25SAPC   H7S 3305   5.931   0.872   7.011  2.1347  2.3837  1.1785
   25SAPC   C28 3306   6.058   0.763   7.148  0.0805  0.6433 -0.2349
   25SAPC   H8R 3307   6.096   0.660   7.155 -1.0647  0.2730  0.8662
   25SAPC   C29 3308   6.040   0.836   7.259 -0.4705  0.3847  0.0794
   25SAPC   H9R 3309   6.090   0.792   7.346  1.6623 -2.5925 -2.4116
   25SAPC  C210 3310   5.981   0.976   7.257 -0.4810  0.0173 -0.0252
   25SAPC  H10R 3311   5.957   1.012   7.155 -0.6519 -3.4765 -1.3483
   25SAPC  H10S 3312   6.051   1.053   7.297 -1.8515  2.2920 -1.7598
   25SAPC  C211 3313   5.869   0.977   7.351  0.4483 -0.2362  0.7681
   25SAPC  H11R 3314   5.773   0.955   7.301  1.1492  1.5278 -1.5288
   25SAPC  C212 3315   5.865   1.018   7.477  0.2738 -0.5057 -0.2035
   25SAPC  H12R 3316   5.768   1.012   7.529  0.8336  1.7566  1.2251
   25SAPC  C213 3317   5.964   1.071   7.571 -0.2065  0.2204  0.1098
   25SAPC  H13R 3318   6.069   1.055   7.536  0.5989 -0.1530  2.5057
   25SAPC  H13S 3319   5.974   1.001   7.657  1.2398  1.0043  0.6283
   25SAPC  C214 3320   5.953   1.207   7.620  0.3872 -0.1306  0.5666
   25SAPC  H14R 3321   5.989   1.279   7.545  0.8784 -1.9574 -1.0370
   25SAPC  C215 3322   5.901   1.242   7.735  0.4215 -0.2046 -0.1299
   25SAPC  H15R 3323   5.886   1.348   7.760  0.3260 -0.1395 -0.4537
   25SAPC  C216 3324   5.835   1.152   7.837  0.0709  0.3197  0.2139
   25SAPC  H16R 3325   5.863   1.048   7.812 -0.4935  0.0571  0.6682
   25SAPC  H16S 3326   5.724   1.148   7.826  0.2153 -1.7261 -0.9068
   25SAPC  C217 3327   5.877   1.166   7.981 -0.7346 -0.0251 -0.2707
   25SAPC  H17R 3328   5.862   1.268   8.021 -2.1074  0.0545 -0.9533
   25SAPC  H17S 3329   5.988   1.167   7.986 -0.7879  0.5418  1.2010
   25SAPC  C218 3330   5.826   1.060   8.077 -0.1020 -0.8629  0.1240
   25SAPC  H18R 3331   5.858   0.961   8.037  2.5859  0.1032 -0.3214
   25SAPC  H18S 3332   5.715   1.066   8.074 -0.2221 -2.7339 -2.2911
   25SAPC  C219 3333   5.866   1.078   8.224  0.0233  0.5121 -0.2111
   25SAPC  H19R 3334   5.845   1.185   8.247 -2.5629  0.0538 -0.1941
   25SAPC  H19S 3335   5.974   1.055   8.236 -0.0577  0.1855 -0.1011
   25SAPC  C220 3336   5.780   0.977   8.309 -1.1409 -0.3729 -0.7862
   25SAPC  H20R 3337   5.673   1.001   8.296 -1.2046  0.1178  0.5752
   25SAPC  H20S 3338   5.816   0.995   8.412 -3.0645  0.9533 -0.3074
   25SAPC  H20T 3339   5.802   0.870   8.288 -0.1183  0.0800 -2.2623
   25SAPC   C33 3340   6.033   1.542   6.652 -0.0083  0.2511  0.0100
   25SAPC   H3X 3341   5.929   1.571   6.680  0.0673 -0.3893  1.0091
   25SAPC   H3Y 3342   6.106   1.623   6.669  1.1378 -0.7084 -0.2378
   25SAPC   C34 3343   6.073   1.423   6.733  0.0613  0.0801 -0.6749
   25SAPC   H4X 3344   6.171   1.383   6.700  0.8130  0.3699  1.0811
   25SAPC   H4Y 3345   6.000   1.340   6.716 -0.6142  0.4787  0.2005
   25SAPC   C35 3346   6.087   1.463   6.882  0.4281  0.1303  0.4146
   25SAPC   H5X 3347   5.985   1.498   6.912 -0.0755 -1.5978  0.8464
   25SAPC   H5Y 3348   6.153   1.551   6.892  0.4894  0.1252  0.0501
   25SAPC   C36 3349   6.128   1.347   6.978  0.4999  0.0115 -0.2800
   25SAPC   H6X 3350   6.188   1.282   6.910 -0.4482 -0.4451 -0.6969
   25SAPC   H6Y 3351   6.043   1.286   7.014 -0.5772 -0.4731 -3.3088
   25SAPC   C37 3352   6.210   1.391   7.105  0.1254  0.0809  0.2432
   25SAPC   H7X 3353   6.307   1.438   7.079  1.1099 -1.5284  0.8394
   25SAPC   H7Y 3354   6.237   1.298   7.160  2.2336  0.1229 -0.6075
   25SAPC   C38 3355   6.131   1.461   7.206  0.1220  0.2301  0.4941
   25SAPC   H8X 3356   6.031   1.414   7.218  0.9559 -1.8893 -0.3456
   25SAPC   H8Y 3357   6.112   1.563   7.167  2.4718  0.2577 -0.7399
   25SAPC   C39 3358   6.192   1.490   7.337  0.3759  0.2130 -0.0476
   25SAPC   H9X 3359   6.281   1.556   7.345  0.3931 -0.0648  3.7880
   25SAPC   H9Y 3360   6.225   1.395   7.383  0.4107  0.4231  0.3682
   25SAPC  C310 3361   6.086   1.544   7.432  0.0169  0.1468 -0.1105
   25SAPC  H10X 3362   6.001   1.473   7.428 -0.5590  0.8239  0.0636
   25SAPC  H10Y 3363   6.054   1.636   7.380 -0.0639 -1.3976 -3.0053
   25SAPC  C311 3364   6.141   1.574   7.576  0.6879  0.2080  0.1114
   25SAPC  H11X 3365   6.225   1.647   7.584  0.5729  0.2360  1.3025
   25SAPC  H11Y 3366   6.180   1.482   7.625  1.4093  0.0309 -0.7782
   25SAPC  C312 3367   6.030   1.616   7.669  0.2773  0.3799 -0.2518
   25SAPC  H12X 3368   5.944   1.547   7.661  1.9316 -1.8053 -0.4048
   25SAPC  H12Y 3369   6.005   1.723   7.651 -0.5457  0.0201 -1.3930
   25SAPC  C313 3370   6.057   1.610   7.814 -0.3161 -0.2787  0.1003
   25SAPC  H13X 3371   6.153   1.663   7.836 -1.0557  0.4781  1.6384
   25SAPC  H13Y 3372   6.062   1.504   7.849  3.3107 -0.0674  0.6614
   25SAPC  C314 3373   5.948   1.683   7.896 -0.6443  0.1701 -0.0398
   25SAPC  H14X 3374   5.847   1.643   7.873 -0.3608  0.3431 -1.7422
   25SAPC  H14Y 3375   5.957   1.791   7.869  1.3524 -0.5229 -2.6568
   25SAPC  C315 3376   5.977   1.672   8.048 -0.5155  0.7178 -0.3273
   25SAPC  H15X 3377   6.057   1.744   8.075  1.7612 -1.0035 -2.0332
   25SAPC  H15Y 3378   6.004   1.567   8.073  1.4655  1.6725  1.9064
   25SAPC  C316 3379   5.847   1.715   8.140 -0.5913  0.0356  0.5786
   25SAPC  H16X 3380   5.757   1.672   8.091  1.2436 -1.0053 -2.0890
   25SAPC  H16Y 3381   5.842   1.825   8.127  0.1068  0.1630  1.3107
   25SAPC  C317 3382   5.860   1.697   8.290 -0.8811  1.2773 -0.0585
   25SAPC  H17X 3383   5.869   1.589   8.312  0.5826  0.8252 -2.5186
   25SAPC  H17Y 3384   5.766   1.742   8.330 -1.4231 -0.3329  0.5583
   25SAPC  C318 3385   5.969   1.775   8.345  0.5874 -0.3391  0.0996
   25SAPC  H18X 3386   5.963   1.766   8.455 -1.6487  2.5226  0.3346
   25SAPC  H18Y 3387   5.939   1.880   8.326 -2.6841 -1.1185  0.3612
   25SAPC  H18Z 3388   6.071   1.746   8.309  0.0233 -3.9629  0.9843
   26SAPC     N 3389   5.684   2.691   6.061 -0.1029  0.0649  0.1676
   26SAPC   C12 3390   5.749   2.592   6.167  1.0485 -0.1830  0.7140
   26SAPC  H12A 3391   5.818   2.652   6.225  2.5268 -1.8600  0.7516
   26SAPC  H12B 3392   5.812   2.515   6.125  2.1921  1.1463 -0.1002
   26SAPC   C13 3393   5.609   2.621   5.950 -0.1584 -0.2927 -0.4304
   26SAPC  H13A 3394   5.533   2.550   5.980  0.1804 -1.0280 -1.2714
   26SAPC  H13B 3395   5.559   2.693   5.887  1.4916  1.0321 -0.2973
   26SAPC  H13C 3396   5.683   2.572   5.889 -1.2276 -4.2564  1.1522
   26SAPC   C14 3397   5.585   2.782   6.131 -0.2651  0.0841 -0.4317
   26SAPC  H14A 3398   5.644   2.839   6.202 -1.1605 -2.5846  2.6979
   26SAPC  H14B 3399   5.525   2.838   6.061 -1.8648  1.3410  1.7870
   26SAPC  H14C 3400   5.520   2.713   6.184 -2.6216  2.0409 -0.6006
   26SAPC   C15 3401   5.801   2.776   6.015 -0.2655  0.3626  0.3926
   26SAPC  H15A 3402   5.766   2.839   5.935 -0.7206 -1.9142 -1.3241
   26SAPC  H15B 3403   5.847   2.840   6.089  0.4242  0.7596 -0.3548
   26SAPC  H15C 3404   5.877   2.724   5.958  1.5110  0.9461  2.1241
   26SAPC   C11 3405   5.647   2.517   6.261 -0.4819 -0.0034 -0.2358
   26SAPC  H11A 3406   5.584   2.596   6.307 -0.5352  0.2943 -0.8116
   26SAPC  H11B 3407   5.703   2.468   6.343  0.2633  2.0682  0.5681
   26SAPC     P 3408   5.622   2.278   6.142  0.2010 -0.2604  0.1471
   26SAPC   O13 3409   5.560   2.235   6.015 -0.2037 -0.2469 -0.5423
   26SAPC   O14 3410   5.770   2.282   6.157  0.2321 -0.0865 -0.3327
   26SAPC   O12 3411   5.564   2.425   6.183  0.6050  0.0395 -0.0014
   26SAPC   O11 3412   5.561   2.189   6.254 -0.7005 -0.0132  0.5777
   26SAPC    C1 3413   5.432   2.200   6.316  0.3571 -0.5480 -0.3012
   26SAPC    HA 3414   5.360   2.251   6.249 -0.1352  1.6516  1.7596
   26SAPC    HB 3415   5.386   2.102   6.343 -1.2860  0.2365 -0.1430
   26SAPC    C2 3416   5.435   2.282   6.449 -0.6393 -0.5647 -0.1381
   26SAPC    HS 3417   5.440   2.386   6.410 -0.9120 -0.9948 -1.3796
   26SAPC   O21 3418   5.549   2.236   6.532 -0.3548  0.2879 -0.1464
   26SAPC   C21 3419   5.607   2.332   6.596 -0.1646 -0.8598  1.0535
   26SAPC   O22 3420   5.554   2.439   6.607  0.2341 -0.5595 -0.5345
   26SAPC   C22 3421   5.737   2.290   6.662  0.7645 -0.0101 -0.0923
   26SAPC   H2R 3422   5.721   2.193   6.715 -2.1398 -0.9957 -2.4466
   26SAPC   H2S 3423   5.816   2.281   6.585  1.3928  2.6084  0.1689
   26SAPC    C3 3424   5.303   2.263   6.529  0.4606 -0.8372 -0.1766
   26SAPC    HX 3425   5.284   2.154   6.525  1.3033 -0.9677 -1.5411
   26SAPC    HY 3426   5.222   2.308   6.467  0.7771 -2.5499 -1.9654
   26SAPC   O31 3427   5.309   2.319   6.664 -0.0646  0.2283  0.2074
   26SAPC   C31 3428   5.287   2.446   6.681  0.1384  0.7615 -0.1279
   26SAPC   O32 3429   5.260   2.526   6.593 -0.2072 -0.8546 -0.0253
   26SAPC   C32 3430   5.279   2.466   6.836 -0.4910  0.0658  0.2214
   26SAPC   H2X 3431   5.361   2.397   6.864  0.3739  0.0761 -2.0613
   26SAPC   H2Y 3432   5.184   2.419   6.867 -2.1610  1.2661 -2.6635
   26SAPC   C23 3433   5.803   2.387   6.767  0.2586  1.1731 -0.5471
   26SAPC   H3R 3434   5.809   2.484   6.714 -0.7929  0.1311 -2.7171
   26SAPC   H3S 3435   5.902   2.343   6.791 -0.7763 -0.4642  1.0195
   26SAPC   C24 3436   5.717   2.403   6.894 -0.0860  0.2573  0.5122
   26SAPC   H4R 3437   5.696   2.301   6.934  3.1519 -0.3018  1.0852
   26SAPC   H4S 3438   5.617   2.440   6.866 -0.5695 -1.2787  0.0987
   26SAPC   C25 3439   5.774   2.499   6.986 -0.3713 -0.2271 -0.2991
   26SAPC   H5R 3440   5.834   2.584   6.948  1.1996 -1.3167 -0.3605
   26SAPC   C26 3441   5.763   2.487   7.119 -0.0066 -0.2283 -0.6439
   26SAPC   H6R 3442   5.813   2.564   7.179  4.2402 -2.0902 -1.3708
   26SAPC   C27 3443   5.682   2.385   7.190  0.0302 -0.3947  0.4791
   26SAPC   H7R 3444   5.735   2.289   7.174  1.3884  0.3551  0.3544
   26SAPC   H7S 3445   5.584   2.371   7.139  0.1777 -1.9524  0.5906
   26SAPC   C28 3446   5.662   2.378   7.339  0.4390  0.8909 -0.0279
   26SAPC   H8R 3447   5.562   2.348   7.374  1.2981  0.6438  2.3982
   26SAPC   C29 3448   5.751   2.384   7.442  0.8534  0.6139  0.1551
   26SAPC   H9R 3449   5.705   2.390   7.542  0.4348  1.7598 -0.0933
   26SAPC  C210 3450   5.899   2.412   7.442 -0.0143  0.1419  0.4359
   26SAPC  H10R 3451   5.934   2.407   7.337  0.0763 -2.3489  0.5260
   26SAPC  H10S 3452   5.949   2.323   7.485  0.9062 -0.0100 -0.9052
   26SAPC  C211 3453   5.948   2.543   7.513  0.1118 -0.2486  0.0618
   26SAPC  H11R 3454   5.972   2.631   7.451  0.1114  0.0622  0.4977
   26SAPC  C212 3455   5.978   2.565   7.649  0.0874 -0.1401  0.7216
   26SAPC  H12R 3456   6.020   2.662   7.680 -0.1345  0.7853 -1.6573
   26SAPC  C213 3457   5.960   2.463   7.755 -0.2981 -0.2061 -0.2569
   26SAPC  H13R 3458   6.063   2.423   7.770 -0.5955 -0.3100  1.8310
   26SAPC  H13S 3459   5.905   2.376   7.714 -0.8352  0.2609 -0.5500
   26SAPC  C214 3460   5.912   2.521   7.887 -0.2899  0.1535  0.2380
   26SAPC  H14R 3461   5.810   2.498   7.921 -1.2606 -0.7299 -2.9198
   26SAPC  C215 3462   5.985   2.589   7.981 -0.4893  0.9844 -0.0395
   26SAPC  H15R 3463   5.929   2.628   8.067  1.5333  0.8647  1.4104
   26SAPC  C216 3464   6.133   2.628   7.977 -0.0258  0.3418  0.1277
   26SAPC  H16R 3465   6.172   2.606   7.875  0.4152 -0.8063  0.5220
   26SAPC  H16S 3466   6.197   2.564   8.041 -0.6097 -1.7437 -1.2412
   26SAPC  C217 3467   6.156   2.780   8.009 -0.1178  0.1960 -0.1002
   26SAPC  H17R 3468   6.098   2.849   7.945 -0.4973  0.2116  0.2591
   26SAPC  H17S 3469   6.264   2.800   7.993 -0.5578  1.5140 -1.7519
   26SAPC  C218 3470   6.122   2.814   8.150  0.0795 -0.3283 -0.5788
   26SAPC  H18R 3471   6.170   2.735   8.211  0.5510  2.0064  2.3007
   26SAPC  H18S 3472   6.013   2.825   8.167  0.1151  1.3022 -1.1554
   26SAPC  C219 3473   6.195   2.949   8.192  0.1162  0.3608  0.1061
   26SAPC  H19R 3474   6.303   2.926   8.203 -0.0648 -1.5575 -1.5874
   26SAPC  H19S 3475   6.170   2.986   8.294 -1.0678  3.2418 -1.1205
   26SAPC  C220 3476   6.174   3.069   8.108  0.2689 -0.5248  1.1882
   26SAPC  H20R 3477   6.211   3.051   8.005  0.2975 -1.3225  1.3358
   26SAPC  H20S 3478   6.232   3.149   8.158  0.5924  0.9668 -1.3681
   26SAPC  H20T 3479   6.066   3.096   8.117  0.0371 -1.2774  0.7694
   26SAPC   C33 3480   5.290   2.616   6.874 -0.2115 -0.0746  0.0829
   26SAPC   H3X 3481   5.230   2.681   6.806 -0.4212  0.7644  1.0525
   26SAPC   H3Y 3482   5.394   2.645   6.849 -0.5064  0.0370 -1.0815
   26SAPC   C34 3483   5.246   2.650   7.021  0.0646  0.3339 -0.9371
   26SAPC   H4X 3484   5.157   2.590   7.050  0.5766 -0.4653 -0.9788
   26SAPC   H4Y 3485   5.220   2.758   7.027 -2.7503 -0.3283  0.3584
   26SAPC   C35 3486   5.360   2.627   7.119 -0.0503 -0.2346 -0.6766
   26SAPC   H5X 3487   5.456   2.677   7.093  0.2219 -1.2076 -1.6010
   26SAPC   H5Y 3488   5.381   2.518   7.125  1.0843 -0.0788 -1.4226
   26SAPC   C36 3489   5.313   2.670   7.262  0.3496 -0.1315  0.3991
   26SAPC   H6X 3490   5.238   2.595   7.294  1.8620 -2.0874 -0.3943
   26SAPC   H6Y 3491   5.265   2.771   7.261 -0.3295 -0.4503 -0.8203
   26SAPC   C37 3492   5.426   2.691   7.362  0.1076  0.0776 -0.1843
   26SAPC   H7X 3493   5.451   2.798   7.379 -0.8944  0.3374 -0.2713
   26SAPC   H7Y 3494   5.518   2.648   7.318  0.3455  0.2416  0.1433
   26SAPC   C38 3495   5.393   2.620   7.492 -0.0164  0.1521 -0.1283
   26SAPC   H8X 3496   5.371   2.513   7.472  0.6040 -0.8000  3.4753
   26SAPC   H8Y 3497   5.293   2.651   7.528  0.1353  0.6150 -0.1029
   26SAPC   C39 3498   5.491   2.630   7.605 -0.2636 -0.5906  0.4102
   26SAPC   H9X 3499   5.514   2.738   7.616  0.7542 -0.9737  2.5839
   26SAPC   H9Y 3500   5.584   2.586   7.564  0.1723 -0.0785  0.8231
   26SAPC  C310 3501   5.465   2.570   7.739 -0.2652  0.0750 -0.7394
   26SAPC  H10X 3502   5.559   2.578   7.798  0.2675  3.5506 -1.8141
   26SAPC  H10Y 3503   5.418   2.472   7.718 -1.2979  0.4281 -0.1830
   26SAPC  C311 3504   5.355   2.641   7.830 -0.7143  0.0323  1.0598
   26SAPC  H11X 3505   5.312   2.566   7.899 -0.1276 -0.6987  0.6521
   26SAPC  H11Y 3506   5.275   2.679   7.763 -1.3554  1.2941  2.4859
   26SAPC  C312 3507   5.418   2.758   7.906  0.4065  0.2181  0.0364
   26SAPC  H12X 3508   5.478   2.824   7.840 -1.0322 -0.2677 -1.8523
   26SAPC  H12Y 3509   5.477   2.715   7.990 -1.3173 -0.8256  0.7722
   26SAPC  C313 3510   5.309   2.842   7.983  0.6541  0.5409  0.5241
   26SAPC  H13X 3511   5.243   2.885   7.905  0.7037 -1.5582 -0.7562
   26SAPC  H13Y 3512   5.347   2.936   8.029  2.0903 -1.0453  2.8580
   26SAPC  C314 3513   5.233   2.762   8.098 -0.0859 -0.4439  0.7323
   26SAPC  H14X 3514   5.149   2.701   8.060  0.3673 -0.4642 -0.2608
   26SAPC  H14Y 3515   5.189   2.846   8.155 -0.2333  0.2537 -0.3815
   26SAPC  C315 3516   5.320   2.666   8.181 -0.4824 -0.0125 -0.1510
   26SAPC  H15X 3517   5.414   2.719   8.209  0.4752 -1.6313 -0.1716
   26SAPC  H15Y 3518   5.350   2.586   8.111  0.0514 -0.4904  0.6147
   26SAPC  C316 3519   5.244   2.591   8.291 -0.1164 -0.4604 -0.3273
   26SAPC  H16X 3520   5.165   2.519   8.260 -0.5861 -1.5693  3.0351
   26SAPC  H16Y 3521   5.194   2.670   8.351 -1.9571 -1.4633 -0.4891
   26SAPC  C317 3522   5.345   2.523   8.382 -0.1103  0.9328 -0.4926
   26SAPC  H17X 3523   5.440   2.580   8.387 -0.2031  0.9893  0.7292
   26SAPC  H17Y 3524   5.366   2.419   8.351  0.9077  0.5943  1.2389
   26SAPC  C318 3525   5.281   2.532   8.520  0.2520  0.3763  0.0088
   26SAPC  H18X 3526   5.290   2.633   8.565 -0.3973  1.2764 -1.8226
   26SAPC  H18Y 3527   5.330   2.467   8.597 -0.4133  0.0172  0.1382
   26SAPC  H18Z 3528   5.174   2.504   8.513  0.3463 -0.6061  1.7971
   27SAPC     N 3529   2.568   4.359   6.390 -0.0073  0.1803  0.3740
   27SAPC   C12 3530   2.492   4.490   6.422  0.6158 -0.4133  0.4600
   27SAPC  H12A 3531   2.386   4.475   6.407  0.5960 -0.5212  0.6936
   27SAPC  H12B 3532   2.518   4.574   6.359 -1.4349 -0.9597 -1.2053
   27SAPC   C13 3533   2.710   4.367   6.437  0.3556  0.0617 -0.6071
   27SAPC  H13A 3534   2.759   4.276   6.406 -1.7687 -0.2985 -3.4207
   27SAPC  H13B 3535   2.762   4.446   6.385  0.3153  1.9376  2.0174
   27SAPC  H13C 3536   2.728   4.369   6.543  0.6767  1.5680 -0.6749
   27SAPC   C14 3537   2.502   4.237   6.454  0.2948 -0.3672 -0.5053
   27SAPC  H14A 3538   2.405   4.230   6.407 -0.4741  0.2687  0.8955
   27SAPC  H14B 3539   2.556   4.148   6.429  0.2557 -0.2274 -1.1006
   27SAPC  H14C 3540   2.496   4.246   6.562  0.0292  0.6682 -0.5904
   27SAPC   C15 3541   2.574   4.334   6.244  0.2403 -0.0646 -0.3205
   27SAPC  H15A 3542   2.634   4.244   6.232  1.5889  1.0574 -2.8550
   27SAPC  H15B 3543   2.476   4.307   6.209  0.5761 -0.8411 -0.6867
   27SAPC  H15C 3544   2.617   4.415   6.186 -1.3722  0.7588 -0.4078
   27SAPC   C11 3545   2.483   4.537   6.571  0.0627  0.0401 -0.3782
   27SAPC  H11A 3546   2.433   4.637   6.572  0.9402  0.5111  1.6919
   27SAPC  H11B 3547   2.588   4.548   6.607 -0.1491 -0.1095  0.3012
   27SAPC     P 3548   2.250   4.425   6.627  0.0422 -0.5564 -0.0736
   27SAPC   O13 3549   2.218   4.410   6.482 -0.1442  0.0927  0.9831
   27SAPC   O14 3550   2.216   4.316   6.718 -0.4459  0.0142 -0.4627
   27SAPC   O12 3551   2.402   4.450   6.643 -0.9715 -0.0727  0.1504
   27SAPC   O11 3552   2.175   4.556   6.674 -0.7524 -0.2572 -0.4961
   27SAPC    C1 3553   2.221   4.651   6.772  0.0880  0.4350  0.2901
   27SAPC    HA 3554   2.329   4.640   6.796 -0.1072 -0.3646  0.8403
   27SAPC    HB 3555   2.213   4.756   6.736  2.3268  0.5635  0.0265
   27SAPC    C2 3556   2.163   4.635   6.915 -0.4182  0.2489 -0.5411
   27SAPC    HS 3557   2.215   4.709   6.979  0.4089 -1.4999  0.9256
   27SAPC   O21 3558   2.188   4.501   6.959 -0.2287  0.5973 -0.3213
   27SAPC   C21 3559   2.309   4.484   7.005 -0.6536  0.1687  0.4449
   27SAPC   O22 3560   2.404   4.558   7.008  0.2148 -0.6520 -0.1147
   27SAPC   C22 3561   2.325   4.335   7.042 -0.2222  0.8867  0.4669
   27SAPC   H2R 3562   2.334   4.291   6.940 -0.3982  1.4174  0.2206
   27SAPC   H2S 3563   2.425   4.315   7.088  0.0542 -0.0185 -0.4694
   27SAPC    C3 3564   2.010   4.654   6.914 -0.4760  1.0309 -0.5853
   27SAPC    HX 3565   1.968   4.588   6.835  0.5533 -1.1835  0.6358
   27SAPC    HY 3566   1.984   4.755   6.875 -2.3682  1.7737  2.3197
   27SAPC   O31 3567   1.956   4.642   7.046  0.0205  0.6869 -0.0126
   27SAPC   C31 3568   1.871   4.543   7.061 -0.4388 -0.1459  0.0904
   27SAPC   O32 3569   1.836   4.463   6.976 -0.3869 -0.4869  0.0314
   27SAPC   C32 3570   1.812   4.541   7.199  0.1234  0.5263  0.6571
   27SAPC   H2X 3571   1.704   4.569   7.203  0.4045  1.6770  0.4450
   27SAPC   H2Y 3572   1.863   4.620   7.258  1.5058  0.9900 -1.0834
   27SAPC   C23 3573   2.211   4.280   7.131  0.3696  0.0778  0.0188
   27SAPC   H3R 3574   2.114   4.315   7.091  0.3946  1.8982  1.4041
   27SAPC   H3S 3575   2.228   4.320   7.234 -1.4124  1.8883 -0.3415
   27SAPC   C24 3576   2.208   4.126   7.152 -0.1395  0.2190 -0.5785
   27SAPC   H4R 3577   2.198   4.083   7.050 -2.5625 -0.6677 -0.0299
   27SAPC   H4S 3578   2.118   4.113   7.215 -0.4639  1.5278 -0.7385
   27SAPC   C25 3579   2.336   4.065   7.197  0.8219  0.1265  0.3309
   27SAPC   H5R 3580   2.416   4.070   7.121 -0.0432  0.2540 -0.5993
   27SAPC   C26 3581   2.346   3.978   7.300 -0.5416 -0.8835  0.2190
   27SAPC   H6R 3582   2.448   3.950   7.330 -0.4186 -0.6166  0.0574
   27SAPC   C27 3583   2.243   3.938   7.398  0.3044  0.1036  0.4121
   27SAPC   H7R 3584   2.229   3.828   7.395  0.9310 -0.0292  1.5861
   27SAPC   H7S 3585   2.144   3.977   7.367  0.4925 -0.7272 -1.3853
   27SAPC   C28 3586   2.289   3.986   7.535  0.0247  0.4956 -0.7231
   27SAPC   H8R 3587   2.378   4.049   7.546 -1.0454  1.5773  3.1869
   27SAPC   C29 3588   2.217   3.957   7.643  0.1770 -0.4530  0.4374
   27SAPC   H9R 3589   2.255   4.002   7.736  1.3017  0.4277 -0.4180
   27SAPC  C210 3590   2.090   3.879   7.645 -0.0116 -0.0161  0.2472
   27SAPC  H10R 3591   2.093   3.803   7.564  0.1338 -0.9849  1.1418
   27SAPC  H10S 3592   2.013   3.953   7.614  0.3500  0.5013  0.5875
   27SAPC  C211 3593   2.065   3.813   7.781  0.1754 -0.3156  0.6263
   27SAPC  H11R 3594   2.116   3.719   7.803  1.1982  0.7590  3.2284
   27SAPC  C212 3595   1.979   3.859   7.875 -0.0338  0.5738 -0.3602
   27SAPC  H12R 3596   1.957   3.798   7.964 -1.3832 -0.8734 -1.6466
   27SAPC  C213 3597   1.888   3.981   7.873  0.4749 -0.2898 -0.4177
   27SAPC  H13R 3598   1.913   4.061   7.800 -2.0082 -2.3326 -3.8080
   27SAPC  H13S 3599   1.903   4.028   7.973  3.0169 -0.3218 -0.7081
   27SAPC  C214 3600   1.746   3.953   7.840 -0.1667  0.9224 -0.7424
   27SAPC  H14R 3601   1.733   3.911   7.739 -2.5642  1.3761 -0.6777
   27SAPC  C215 3602   1.633   3.957   7.914 -0.0122 -0.0607  0.3734
   27SAPC  H15R 3603   1.536   3.946   7.864  0.0581  0.2364  0.1705
   27SAPC  C216 3604   1.616   4.009   8.050  0.3208 -0.4460 -0.1296
   27SAPC  H16R 3605   1.513   4.041   8.077  1.2132 -0.2301  3.4260
   27SAPC  H16S 3606   1.678   4.100   8.065 -0.3638 -0.3152  2.3503
   27SAPC  C217 3607   1.668   3.909   8.157  0.4219 -0.1828 -0.2017
   27SAPC  H17R 3608   1.756   3.851   8.122  0.1138 -0.3637 -0.6923
   27SAPC  H17S 3609   1.583   3.838   8.162  0.2575  0.0544  0.4028
   27SAPC  C218 3610   1.698   3.969   8.289  0.2168 -0.2270 -0.3327
   27SAPC  H18R 3611   1.609   4.030   8.316 -1.0315 -2.2831  0.4284
   27SAPC  H18S 3612   1.787   4.036   8.286 -0.8722  1.2949 -0.0633
   27SAPC  C219 3613   1.711   3.876   8.406 -0.7297  0.4507  0.2425
   27SAPC  H19R 3614   1.620   3.816   8.428 -0.7973  0.8435  1.0735
   27SAPC  H19S 3615   1.736   3.939   8.493  0.8130  2.3374 -1.4554
   27SAPC  C220 3616   1.822   3.776   8.374  0.5137  0.2904 -0.0377
   27SAPC  H20R 3617   1.791   3.719   8.284 -0.4504  0.6618  0.0481
   27SAPC  H20S 3618   1.831   3.701   8.456  0.7351  1.2550  0.8539
   27SAPC  H20T 3619   1.917   3.825   8.344  0.8499  0.1846  0.8029
   27SAPC   C33 3620   1.841   4.406   7.264  0.0215  0.5126 -0.0321
   27SAPC   H3X 3621   1.950   4.388   7.273 -0.1167  0.0838  0.8781
   27SAPC   H3Y 3622   1.781   4.323   7.221  0.5844  0.9193 -1.6993
   27SAPC   C34 3623   1.804   4.414   7.415  0.3887 -0.3472  0.4050
   27SAPC   H4X 3624   1.700   4.445   7.438  1.3384  1.9625  2.0230
   27SAPC   H4Y 3625   1.872   4.493   7.453 -1.8723  2.4662 -1.0413
   27SAPC   C35 3626   1.831   4.290   7.503  0.5563 -0.1344 -0.0468
   27SAPC   H5X 3627   1.940   4.267   7.499  0.6136  0.1057  0.1282
   27SAPC   H5Y 3628   1.776   4.205   7.457  0.2547  0.7026 -1.2720
   27SAPC   C36 3629   1.781   4.302   7.641  0.0799  0.1893 -0.0666
   27SAPC   H6X 3630   1.797   4.205   7.692  0.8741 -1.1434 -2.6478
   27SAPC   H6Y 3631   1.671   4.314   7.635  0.1556  0.8280 -0.2183
   27SAPC   C37 3632   1.850   4.415   7.710 -0.1977  0.0981  0.4179
   27SAPC   H7X 3633   1.816   4.513   7.671 -0.3972 -0.0478  0.2247
   27SAPC   H7Y 3634   1.959   4.395   7.698 -0.4793 -0.8013 -0.8056
   27SAPC   C38 3635   1.819   4.410   7.859 -0.4241 -0.4232  0.3408
   27SAPC   H8X 3636   1.855   4.311   7.896  1.6446 -0.0386 -0.4979
   27SAPC   H8Y 3637   1.711   4.396   7.881 -0.3335 -0.4642  0.7820
   27SAPC   C39 3638   1.898   4.515   7.933  0.8969 -0.2750 -0.2034
   27SAPC   H9X 3639   1.884   4.613   7.884  1.2298  0.6925  1.5506
   27SAPC   H9Y 3640   2.005   4.484   7.929  0.9299 -0.1936  0.0487
   27SAPC  C310 3641   1.839   4.532   8.074  0.1644  0.0968  0.0552
   27SAPC  H10X 3642   1.731   4.556   8.063  0.0373 -0.4041  0.2019
   27SAPC  H10Y 3643   1.890   4.624   8.112 -0.9566  1.9344 -2.5741
   27SAPC  C311 3644   1.862   4.410   8.169 -0.6720 -0.0264  0.4862
   27SAPC  H11X 3645   1.964   4.368   8.154 -0.2805  0.2340  2.2339
   27SAPC  H11Y 3646   1.798   4.322   8.148  0.4041 -1.5113  3.0251
   27SAPC  C312 3647   1.836   4.456   8.312 -0.0278  0.4209 -0.4689
   27SAPC  H12X 3648   1.740   4.513   8.308  1.1580  2.4556 -1.3735
   27SAPC  H12Y 3649   1.912   4.535   8.329  1.6503 -0.2907 -3.8662
   27SAPC  C313 3650   1.832   4.356   8.431 -0.1862  0.4143 -0.5364
   27SAPC  H13X 3651   1.765   4.273   8.401 -0.1151 -0.6079  1.9032
   27SAPC  H13Y 3652   1.806   4.407   8.526  1.1902  2.4745 -1.2031
   27SAPC  C314 3653   1.966   4.284   8.448 -0.2900 -0.0866 -0.1092
   27SAPC  H14X 3654   2.032   4.345   8.514 -0.9844 -0.7755  1.2688
   27SAPC  H14Y 3655   2.008   4.256   8.349 -1.3559 -1.1470 -0.2787
   27SAPC  C315 3656   1.953   4.152   8.528  0.0709  0.3810  0.3957
   27SAPC  H15X 3657   1.902   4.078   8.463  0.3497 -0.4018  1.0610
   27SAPC  H15Y 3658   1.890   4.180   8.615  0.1249  1.6468  0.0557
   27SAPC  C316 3659   2.082   4.098   8.587 -0.3042 -0.1016  0.0236
   27SAPC  H16X 3660   2.152   4.073   8.504 -2.3569 -1.2804 -1.4406
   27SAPC  H16Y 3661   2.066   3.995   8.624  1.2400  0.5450  2.8489
   27SAPC  C317 3662   2.128   4.175   8.714  0.1403 -0.1146  0.2298
   27SAPC  H17X 3663   2.071   4.140   8.803 -0.4987  1.9403  0.6825
   27SAPC  H17Y 3664   2.106   4.283   8.721 -0.0154  0.3208 -4.2647
   27SAPC  C318 3665   2.271   4.140   8.742 -0.5802  0.0895 -0.2473
   27SAPC  H18X 3666   2.290   4.030   8.744 -2.0796 -0.2361 -1.6127
   27SAPC  H18Y 3667   2.313   4.176   8.838  2.6378 -0.8372 -1.1855
   27SAPC  H18Z 3668   2.328   4.180   8.656 -2.9562  4.7464  0.0249
   28SAPC     N 3669   2.505   1.099   6.351 -0.2532 -0.7032 -0.1711
   28SAPC   C12 3670   2.496   1.057   6.209  0.1546  0.2199  0.4053
   28SAPC  H12A 3671   2.542   0.960   6.204  1.5244  0.8328  0.7088
   28SAPC  H12B 3672   2.561   1.117   6.148 -0.1012  0.8791  0.7696
   28SAPC   C13 3673   2.653   1.116   6.383 -0.0372  0.7676 -0.2329
   28SAPC  H13A 3674   2.707   1.029   6.348  1.3780  1.4407  0.2453
   28SAPC  H13B 3675   2.700   1.201   6.336  2.0008 -1.1671 -1.9301
   28SAPC  H13C 3676   2.666   1.118   6.490 -1.6131  1.4365 -0.0176
   28SAPC   C14 3677   2.446   1.234   6.372  0.3206 -0.0714  1.1753
   28SAPC  H14A 3678   2.445   1.267   6.475  1.6592  0.1667  1.1274
   28SAPC  H14B 3679   2.497   1.316   6.324  0.8839  0.2072  2.2036
   28SAPC  H14C 3680   2.341   1.232   6.346  0.7839  2.0981 -1.1605
   28SAPC   C15 3681   2.457   0.994   6.449 -0.2789  0.3020 -0.0787
   28SAPC  H15A 3682   2.459   1.027   6.552 -0.4118  0.3009 -0.0759
   28SAPC  H15B 3683   2.351   0.974   6.437 -1.2635  3.5361  1.8491
   28SAPC  H15C 3684   2.506   0.898   6.439 -0.6308 -0.1258  1.8667
   28SAPC   C11 3685   2.358   1.060   6.138 -0.3688  0.3584 -0.3709
   28SAPC  H11A 3686   2.381   1.012   6.040 -1.8819 -0.8603 -0.1799
   28SAPC  H11B 3687   2.328   1.167   6.128 -1.8708  0.0048 -0.0132
   28SAPC     P 3688   2.129   1.013   6.264 -0.2432  0.5658  0.2386
   28SAPC   O13 3689   2.035   1.043   6.157 -0.5702  0.0000 -0.0131
   28SAPC   O14 3690   2.087   0.906   6.362  0.8461 -0.6949 -0.9346
   28SAPC   O12 3691   2.263   0.969   6.198 -0.1498 -0.5196  1.1311
   28SAPC   O11 3692   2.159   1.148   6.336 -0.3649 -0.2225  0.2740
   28SAPC    C1 3693   2.052   1.236   6.371  0.4607  0.2323  0.5085
   28SAPC    HA 3694   2.058   1.332   6.316  1.1050  0.1438  0.4183
   28SAPC    HB 3695   1.949   1.207   6.340  0.1503  1.6249  0.1720
   28SAPC    C2 3696   2.051   1.267   6.520  0.7256 -0.7147 -0.4483
   28SAPC    HS 3697   2.158   1.271   6.548  1.2308  0.6508 -2.3679
   28SAPC   O21 3698   1.979   1.164   6.588 -0.2171 -0.7195  0.5046
   28SAPC   C21 3699   2.020   1.128   6.709  0.0411  0.2138  0.1214
   28SAPC   O22 3700   2.114   1.166   6.765 -0.5635  1.2223  0.0245
   28SAPC   C22 3701   1.905   1.047   6.783 -0.0222 -0.1899 -0.1683
   28SAPC   H2R 3702   1.808   1.067   6.734 -0.9327 -0.4463  1.4841
   28SAPC   H2S 3703   1.950   0.946   6.770 -0.3626 -0.4783  0.8592
   28SAPC    C3 3704   1.988   1.397   6.569  0.8776 -0.2504 -0.2307
   28SAPC    HX 3705   1.881   1.397   6.541  1.0999 -0.6866 -1.1058
   28SAPC    HY 3706   2.029   1.488   6.520 -0.4461 -0.5807 -2.0322
   28SAPC   O31 3707   2.000   1.417   6.707 -0.5286 -0.4144 -0.3989
   28SAPC   C31 3708   2.091   1.501   6.756 -0.3595  0.0533 -0.8418
   28SAPC   O32 3709   2.168   1.575   6.695  0.2336  0.3312  0.1514
   28SAPC   C32 3710   2.085   1.485   6.913 -0.1322  0.1670  0.3515
   28SAPC   H2X 3711   2.022   1.398   6.941 -2.0117  1.6711  0.9658
   28SAPC   H2Y 3712   2.033   1.577   6.946  0.4897  1.1177 -1.1982
   28SAPC   C23 3713   1.910   1.072   6.931 -0.2593  0.7426  0.4325
   28SAPC   H3R 3714   1.899   1.183   6.938  2.3816  1.1546 -0.7956
   28SAPC   H3S 3715   2.011   1.036   6.958 -0.1681 -2.8748 -3.7322
   28SAPC   C24 3716   1.803   0.993   7.010 -0.3275  0.4137  0.5443
   28SAPC   H4R 3717   1.770   1.042   7.104 -0.8778 -1.8893  1.6340
   28SAPC   H4S 3718   1.710   0.983   6.951  0.7944 -1.5618 -1.0265
   28SAPC   C25 3719   1.843   0.852   7.045 -0.3826  0.6731  0.5825
   28SAPC   H5R 3720   1.854   0.788   6.956 -1.4491 -1.2797  1.7907
   28SAPC   C26 3721   1.841   0.796   7.165 -0.3772  0.5223 -0.2328
   28SAPC   H6R 3722   1.866   0.689   7.165 -0.1374  0.5771 -0.0231
   28SAPC   C27 3723   1.821   0.867   7.296  0.9922  0.3570  0.6353
   28SAPC   H7R 3724   1.716   0.848   7.324  0.9237  1.0827  0.8778
   28SAPC   H7S 3725   1.819   0.978   7.294 -2.4946  0.4145  0.7252
   28SAPC   C28 3726   1.921   0.816   7.396  0.1519 -0.5161 -0.4012
   28SAPC   H8R 3727   2.024   0.823   7.359 -0.1744  3.9453 -0.9596
   28SAPC   C29 3728   1.891   0.759   7.517 -0.4277  0.5429  0.0978
   28SAPC   H9R 3729   1.977   0.730   7.581  0.9321 -0.1556 -1.9349
   28SAPC  C210 3730   1.756   0.727   7.580  0.0420 -0.1018  0.5222
   28SAPC  H10R 3731   1.731   0.620   7.562 -0.6596  0.1762 -0.2370
   28SAPC  H10S 3732   1.673   0.786   7.535  1.4463  0.8933 -0.8590
   28SAPC  C211 3733   1.736   0.751   7.725 -0.3932  0.9564  0.1540
   28SAPC  H11R 3734   1.648   0.816   7.739  1.3406  3.8640 -1.3352
   28SAPC  C212 3735   1.806   0.689   7.821 -0.3662 -0.3953 -0.0301
   28SAPC  H12R 3736   1.780   0.711   7.926  1.2120  1.0610  0.0911
   28SAPC  C213 3737   1.918   0.590   7.803  0.0987 -0.1229 -0.0443
   28SAPC  H13R 3738   1.911   0.563   7.695  2.1458  2.0416 -0.8109
   28SAPC  H13S 3739   1.902   0.495   7.857 -4.9273  0.9782  0.9140
   28SAPC  C214 3740   2.057   0.641   7.828  0.0281 -0.2221 -0.5544
   28SAPC  H14R 3741   2.097   0.720   7.763  0.1360  2.1859  2.2564
   28SAPC  C215 3742   2.140   0.601   7.927  0.8731  0.5880  0.1154
   28SAPC  H15R 3743   2.242   0.644   7.934  1.6501 -1.1489  0.0143
   28SAPC  C216 3744   2.113   0.492   8.032  1.0925 -0.4823 -0.4244
   28SAPC  H16R 3745   2.210   0.441   8.049  0.8226 -0.3553  1.8574
   28SAPC  H16S 3746   2.027   0.423   8.019  0.0748  1.1643 -3.1280
   28SAPC  C217 3747   2.088   0.561   8.171  0.3821 -0.0998 -0.1012
   28SAPC  H17R 3748   2.172   0.623   8.208 -0.3065  1.3403 -0.8741
   28SAPC  H17S 3749   2.075   0.480   8.246 -2.4564  0.5739  0.2301
   28SAPC  C218 3750   1.961   0.646   8.180 -0.2005 -0.7548 -0.1578
   28SAPC  H18R 3751   1.874   0.582   8.153 -1.5088  0.1077  1.7424
   28SAPC  H18S 3752   1.974   0.720   8.098 -0.3852 -0.9300 -0.3475
   28SAPC  C219 3753   1.942   0.712   8.317 -0.1496 -0.1813 -0.0687
   28SAPC  H19R 3754   2.030   0.775   8.340  2.3518 -2.6198 -2.1880
   28SAPC  H19S 3755   1.940   0.626   8.387 -1.6357 -1.3431 -1.4656
   28SAPC  C220 3756   1.803   0.776   8.333 -0.6903 -0.1225  0.5890
   28SAPC  H20R 3757   1.734   0.714   8.273  0.7956 -2.4408  1.1427
   28SAPC  H20S 3758   1.806   0.884   8.307  0.4163  0.6064  3.3419
   28SAPC  H20T 3759   1.767   0.768   8.438 -3.5226 -0.4165 -0.3101
   28SAPC   C33 3760   2.228   1.480   6.977  0.5482  0.1957  0.7221
   28SAPC   H3X 3761   2.242   1.590   6.980 -1.8180  0.6263 -1.0051
   28SAPC   H3Y 3762   2.306   1.439   6.909  0.0166 -1.2932  0.9628
   28SAPC   C34 3763   2.233   1.416   7.113 -0.3080  0.4275  0.4562
   28SAPC   H4X 3764   2.155   1.476   7.164 -0.7573 -0.8865  1.3639
   28SAPC   H4Y 3765   2.332   1.446   7.154 -0.6115  1.7521  0.2596
   28SAPC   C35 3766   2.200   1.265   7.107  0.2362 -0.9319 -0.2316
   28SAPC   H5X 3767   2.258   1.229   7.019  2.9232 -3.1784  2.1999
   28SAPC   H5Y 3768   2.090   1.255   7.096  0.2030  0.3443 -1.2438
   28SAPC   C36 3769   2.240   1.176   7.227  0.4695 -0.5392 -0.6692
   28SAPC   H6X 3770   2.350   1.159   7.228  0.4833 -0.4956 -1.4210
   28SAPC   H6Y 3771   2.196   1.078   7.200 -0.1260 -0.1330 -1.1922
   28SAPC   C37 3772   2.184   1.226   7.357  0.0927  0.5852  0.4921
   28SAPC   H7X 3773   2.078   1.256   7.342 -0.4378 -1.4376 -0.1789
   28SAPC   H7Y 3774   2.241   1.314   7.393 -1.4285  2.5855 -1.6279
   28SAPC   C38 3775   2.189   1.111   7.459  0.0875  0.3969  0.0143
   28SAPC   H8X 3776   2.285   1.061   7.436 -0.5214  0.7771 -4.1642
   28SAPC   H8Y 3777   2.108   1.038   7.435  1.1452 -0.6437 -0.4626
   28SAPC   C39 3778   2.169   1.154   7.608 -0.5399  0.3221 -0.9693
   28SAPC   H9X 3779   2.090   1.230   7.623 -0.0678  0.4429  1.1971
   28SAPC   H9Y 3780   2.264   1.202   7.641  0.2041 -1.0132 -1.1099
   28SAPC  C310 3781   2.136   1.039   7.703  0.6208 -0.0953 -0.3959
   28SAPC  H10X 3782   2.209   0.958   7.683  1.8834  0.2238  2.4466
   28SAPC  H10Y 3783   2.038   0.991   7.679  1.5654 -1.3458 -1.9719
   28SAPC  C311 3784   2.136   1.080   7.849 -0.0273 -0.6668 -0.5749
   28SAPC  H11X 3785   2.080   1.174   7.867 -1.3261 -1.7680  1.4370
   28SAPC  H11Y 3786   2.241   1.101   7.878  0.4001 -4.5420  1.1700
   28SAPC  C312 3787   2.083   0.974   7.948 -0.6525 -0.1035 -0.4556
   28SAPC  H12X 3788   2.124   0.875   7.916  0.9872 -0.2607  1.8919
   28SAPC  H12Y 3789   1.973   0.972   7.931 -0.4775  1.4178 -2.0924
   28SAPC  C313 3790   2.119   0.992   8.093 -0.5612 -0.1044  0.1049
   28SAPC  H13X 3791   2.230   0.998   8.091 -0.6013  0.6780 -0.5003
   28SAPC  H13Y 3792   2.084   0.910   8.158 -1.2720  1.5872  1.9580
   28SAPC  C314 3793   2.070   1.126   8.156 -0.2566  0.2183  0.3970
   28SAPC  H14X 3794   1.962   1.119   8.134  0.1304  0.5303 -1.9185
   28SAPC  H14Y 3795   2.111   1.211   8.098 -1.0808  2.2248  2.6245
   28SAPC  C315 3796   2.106   1.126   8.299 -0.5231 -0.4094 -0.2737
   28SAPC  H15X 3797   2.213   1.110   8.324 -0.4714  2.6136  2.0262
   28SAPC  H15Y 3798   2.059   1.040   8.351  2.0655 -1.8325 -0.0980
   28SAPC  C316 3799   2.074   1.250   8.376 -0.3412  0.6695 -0.3330
   28SAPC  H16X 3800   2.096   1.237   8.484 -0.0637  0.1228 -0.4509
   28SAPC  H16Y 3801   1.966   1.279   8.378 -0.1519  1.3339  1.1385
   28SAPC  C317 3802   2.142   1.375   8.317 -0.5484 -0.5124 -0.8183
   28SAPC  H17X 3803   2.074   1.416   8.239 -1.3252  1.9979  1.0507
   28SAPC  H17Y 3804   2.233   1.356   8.256 -1.4174 -4.1753 -1.1841
   28SAPC  C318 3805   2.168   1.483   8.420 -0.7478 -0.2421  0.4530
   28SAPC  H18X 3806   2.067   1.517   8.454 -1.6672 -1.4070 -0.9663
   28SAPC  H18Y 3807   2.224   1.562   8.366 -1.6360 -0.6581 -1.1582
   28SAPC  H18Z 3808   2.228   1.439   8.502  0.9836 -1.9807 -1.6235
   29SAPC     N 3809   4.259   4.384   5.857  0.3155 -0.6233  0.1167
   29SAPC   C12 3810   4.169   4.350   5.979 -0.1123 -0.2814  0.3288
   29SAPC  H12A 3811   4.217   4.283   6.049 -0.3847 -0.4598  0.3466
   29SAPC  H12B 3812   4.090   4.288   5.938 -2.1578  1.0088  2.1134
   29SAPC   C13 3813   4.307   4.256   5.789  0.2120  0.7215  0.5329
   29SAPC  H13A 3814   4.222   4.206   5.745  0.0211  2.4553 -1.1655
   29SAPC  H13B 3815   4.369   4.277   5.704  0.2198 -0.2395  0.2831
   29SAPC  H13C 3816   4.359   4.197   5.863  0.6374  0.6968  0.2122
   29SAPC   C14 3817   4.181   4.466   5.757 -0.4887  0.5799  0.2663
   29SAPC  H14A 3818   4.142   4.561   5.789 -1.3960  0.3756 -0.2054
   29SAPC  H14B 3819   4.241   4.484   5.669 -0.6997  0.5482  0.1160
   29SAPC  H14C 3820   4.090   4.412   5.735  0.3909 -0.6856 -0.3682
   29SAPC   C15 3821   4.375   4.470   5.903  0.9477 -0.1030 -0.4346
   29SAPC  H15A 3822   4.433   4.416   5.976  1.0925  0.0904 -0.4038
   29SAPC  H15B 3823   4.434   4.498   5.817 -0.6204  2.3808 -0.7979
   29SAPC  H15C 3824   4.336   4.546   5.969 -0.2765 -0.7711 -0.3631
   29SAPC   C11 3825   4.091   4.466   6.049  0.9642 -0.4311 -0.5502
   29SAPC  H11A 3826   4.019   4.419   6.120 -1.1172  0.0464 -2.2399
   29SAPC  H11B 3827   4.021   4.514   5.978  0.7113  0.4505  0.2763
   29SAPC     P 3828   4.241   4.542   6.249  0.0279 -0.1012  0.5675
   29SAPC   O13 3829   4.287   4.400   6.260  0.2098 -0.0729 -0.7013
   29SAPC   O14 3830   4.349   4.635   6.276  0.2526  0.1490 -0.6149
   29SAPC   O12 3831   4.179   4.563   6.103  0.1869  0.2528 -0.6661
   29SAPC   O11 3832   4.115   4.579   6.345  0.2298 -0.1526  0.5663
   29SAPC    C1 3833   4.084   4.483   6.453  0.6824  0.3138  0.3321
   29SAPC    HA 3834   3.983   4.507   6.494  1.0746  1.4908  0.6397
   29SAPC    HB 3835   4.064   4.380   6.416 -2.2789  0.4671  1.1842
   29SAPC    C2 3836   4.185   4.488   6.578 -0.0946 -0.2611 -0.4621
   29SAPC    HS 3837   4.291   4.488   6.544  0.3769 -1.5324  0.8891
   29SAPC   O21 3838   4.155   4.382   6.671 -0.6536 -0.0630 -0.4773
   29SAPC   C21 3839   4.257   4.331   6.727  0.5351  1.2760  0.1516
   29SAPC   O22 3840   4.374   4.346   6.682  0.9384 -0.4428 -0.0695
   29SAPC   C22 3841   4.207   4.237   6.846 -0.1690  0.3483  0.6447
   29SAPC   H2R 3842   4.136   4.289   6.913 -0.5230 -1.1178  1.4319
   29SAPC   H2S 3843   4.159   4.150   6.796  1.1176  0.7621 -1.4383
   29SAPC    C3 3844   4.175   4.628   6.637  0.1914 -0.2628 -0.2171
   29SAPC    HX 3845   4.076   4.631   6.688 -1.2636 -2.4511 -2.6731
   29SAPC    HY 3846   4.184   4.693   6.547 -2.3298  0.6886  0.1276
   29SAPC   O31 3847   4.276   4.657   6.733  0.2311 -0.0226  0.2321
   29SAPC   C31 3848   4.318   4.780   6.730 -0.8280 -0.1484 -0.7566
   29SAPC   O32 3849   4.284   4.873   6.663  0.0781  0.1069  0.3157
   29SAPC   C32 3850   4.438   4.807   6.827 -0.5837  0.5225 -0.4168
   29SAPC   H2X 3851   4.530   4.833   6.771  0.1587 -0.4486  0.3369
   29SAPC   H2Y 3852   4.453   4.715   6.886 -1.2196  0.0881 -0.9181
   29SAPC   C23 3853   4.333   4.191   6.919  0.2936  0.6198 -0.2318
   29SAPC   H3R 3854   4.388   4.132   6.843  1.0391  1.6573 -0.5319
   29SAPC   H3S 3855   4.292   4.122   6.996 -3.2556  2.2607 -0.4711
   29SAPC   C24 3856   4.413   4.301   6.991  0.0113  0.6483 -0.3671
   29SAPC   H4R 3857   4.471   4.364   6.920  1.1029 -0.4153 -0.4525
   29SAPC   H4S 3858   4.477   4.246   7.063  0.8870  0.4041 -1.3177
   29SAPC   C25 3859   4.331   4.377   7.092  0.2134  0.5222 -0.7295
   29SAPC   H5R 3860   4.247   4.423   7.038  0.3084 -0.6535 -1.9255
   29SAPC   C26 3861   4.352   4.391   7.222  0.0867 -0.2469 -0.2826
   29SAPC   H6R 3862   4.282   4.455   7.277  1.4611  0.7083  0.4238
   29SAPC   C27 3863   4.454   4.323   7.310 -0.0720 -0.4834 -0.8268
   29SAPC   H7R 3864   4.491   4.392   7.390 -1.6024  2.1200 -2.2273
   29SAPC   H7S 3865   4.537   4.292   7.243 -0.6530 -3.4407 -0.2888
   29SAPC   C28 3866   4.384   4.198   7.364 -0.4094 -0.7260 -0.2636
   29SAPC   H8R 3867   4.353   4.127   7.286 -0.8649 -1.3805  0.5021
   29SAPC   C29 3868   4.355   4.172   7.495 -0.2072 -0.0789 -0.0841
   29SAPC   H9R 3869   4.315   4.071   7.510 -0.4451  0.0632  0.2424
   29SAPC  C210 3870   4.397   4.259   7.613 -0.1175  0.2897  0.1761
   29SAPC  H10R 3871   4.316   4.253   7.689 -1.2973 -0.7804 -1.1204
   29SAPC  H10S 3872   4.396   4.368   7.589  2.7682  0.8747  2.0788
   29SAPC  C211 3873   4.533   4.246   7.678  0.6930 -0.0491  0.3520
   29SAPC  H11R 3874   4.600   4.179   7.621 -1.7738 -0.4076 -2.3792
   29SAPC  C212 3875   4.558   4.315   7.790 -1.1577  0.1578  0.6865
   29SAPC  H12R 3876   4.666   4.317   7.811 -0.4473 -3.6309 -1.6473
   29SAPC  C213 3877   4.465   4.416   7.843 -0.0206  0.3904 -0.2503
   29SAPC  H13R 3878   4.378   4.367   7.892 -0.0425  1.0122  0.3513
   29SAPC  H13S 3879   4.424   4.484   7.765 -1.2848  3.1083  2.5442
   29SAPC  C214 3880   4.520   4.502   7.947  1.4924 -0.3720 -0.2263
   29SAPC  H14R 3881   4.543   4.601   7.905  0.1624  0.1024  0.1091
   29SAPC  C215 3882   4.566   4.480   8.074 -0.3816 -1.1366 -0.1995
   29SAPC  H15R 3883   4.611   4.560   8.134 -1.0600 -1.4562  0.7516
   29SAPC  C216 3884   4.560   4.354   8.153 -0.1570  0.3533  0.0829
   29SAPC  H16R 3885   4.563   4.277   8.073 -1.4815  0.6620 -0.2946
   29SAPC  H16S 3886   4.466   4.341   8.212 -0.2858 -0.3708 -0.2686
   29SAPC  C217 3887   4.681   4.343   8.254  0.4684 -0.3056 -0.8088
   29SAPC  H17R 3888   4.779   4.346   8.200  0.5573  0.3180 -0.6284
   29SAPC  H17S 3889   4.673   4.246   8.307  1.1433 -0.4366 -0.9386
   29SAPC  C218 3890   4.681   4.460   8.353 -0.3474  0.4681  0.0795
   29SAPC  H18R 3891   4.719   4.554   8.308  3.9284 -2.3673 -2.9550
   29SAPC  H18S 3892   4.773   4.444   8.413  0.5615  0.2450 -1.3416
   29SAPC  C219 3893   4.568   4.475   8.459 -0.2797  0.0810  0.0028
   29SAPC  H19R 3894   4.607   4.522   8.551  0.2656  1.3477 -0.8458
   29SAPC  H19S 3895   4.520   4.379   8.490 -1.0705  0.0502 -1.2525
   29SAPC  C220 3896   4.453   4.559   8.410  0.0786  0.5889 -0.6678
   29SAPC  H20R 3897   4.402   4.533   8.315 -1.2111 -0.2338  0.2240
   29SAPC  H20S 3898   4.489   4.664   8.405  1.6561  0.1570  0.5922
   29SAPC  H20T 3899   4.379   4.548   8.491  1.3936 -0.9495  0.4047
   29SAPC   C33 3900   4.409   4.933   6.915  0.0480  0.9635  0.2165
   29SAPC   H3X 3901   4.336   4.999   6.864 -0.7068  0.2228  0.3369
   29SAPC   H3Y 3902   4.495   5.003   6.908 -0.0733  1.0610 -0.2983
   29SAPC   C34 3903   4.367   4.900   7.061  0.5851 -0.8291  0.4113
   29SAPC   H4X 3904   4.328   4.990   7.114 -0.0409  0.5421 -2.2155
   29SAPC   H4Y 3905   4.461   4.876   7.116  0.4591 -0.8332  0.6271
   29SAPC   C35 3906   4.271   4.784   7.082  0.5429  0.1223  0.7901
   29SAPC   H5X 3907   4.331   4.695   7.053  2.7058  1.3465  1.2876
   29SAPC   H5Y 3908   4.189   4.786   7.007  0.2262  1.6493  1.1579
   29SAPC   C36 3909   4.213   4.762   7.225  0.7221 -0.4104  0.4384
   29SAPC   H6X 3910   4.156   4.667   7.231  1.0166 -0.5468  1.1523
   29SAPC   H6Y 3911   4.137   4.841   7.241 -1.7487 -2.2558 -1.4960
   29SAPC   C37 3912   4.328   4.772   7.326  0.3844  0.2337 -0.6627
   29SAPC   H7X 3913   4.386   4.867   7.315 -0.5328  1.2351  2.1408
   29SAPC   H7Y 3914   4.396   4.685   7.324  1.5066  0.9987  1.1656
   29SAPC   C38 3915   4.269   4.767   7.475 -0.2557  0.3854  0.2899
   29SAPC   H8X 3916   4.206   4.857   7.493 -2.0281 -0.9538  1.0015
   29SAPC   H8Y 3917   4.363   4.769   7.535  1.7197  1.0722 -2.5961
   29SAPC   C39 3918   4.203   4.635   7.528 -0.6342 -0.0576 -0.0555
   29SAPC   H9X 3919   4.274   4.550   7.520 -1.3601 -0.6964  0.1724
   29SAPC   H9Y 3920   4.117   4.607   7.463 -0.3472  1.4313 -1.1250
   29SAPC  C310 3921   4.153   4.664   7.673  0.0547  0.1754  0.1653
   29SAPC  H10X 3922   4.061   4.726   7.669  1.2081  1.9062 -2.1759
   29SAPC  H10Y 3923   4.222   4.727   7.734 -0.5699  2.1928 -1.1100
   29SAPC  C311 3924   4.132   4.533   7.748  0.0591 -0.0617 -0.0988
   29SAPC  H11X 3925   4.216   4.468   7.779 -0.1285 -0.9061 -1.3250
   29SAPC  H11Y 3926   4.065   4.466   7.690 -0.1770 -1.3192  1.5289
   29SAPC  C312 3927   4.067   4.571   7.886 -0.0339 -0.1787 -0.0334
   29SAPC  H12X 3928   3.966   4.613   7.870  1.0973  2.8971  0.2150
   29SAPC  H12Y 3929   4.127   4.653   7.931  0.5605 -0.5373 -0.1575
   29SAPC  C313 3930   4.069   4.462   7.998 -0.7055 -0.3601  0.6068
   29SAPC  H13X 3931   4.160   4.399   7.987  0.5995  1.6533 -0.5038
   29SAPC  H13Y 3932   3.975   4.404   7.982 -0.2576 -1.8083  2.7753
   29SAPC  C314 3933   4.062   4.504   8.139 -0.3684  0.7167  0.3076
   29SAPC  H14X 3934   3.972   4.568   8.152 -1.1706 -0.4877  0.8757
   29SAPC  H14Y 3935   4.149   4.568   8.164 -1.0434  2.3136 -1.1421
   29SAPC  C315 3936   4.068   4.380   8.231  0.0823 -0.4281  0.4987
   29SAPC  H15X 3937   4.166   4.330   8.219  0.1740 -0.6882  2.0807
   29SAPC  H15Y 3938   3.993   4.302   8.204 -1.4134  1.0417  0.1873
   29SAPC  C316 3939   4.045   4.429   8.377  0.1189  0.1497  0.0992
   29SAPC  H16X 3940   3.952   4.489   8.384 -0.0249 -0.1034  0.3303
   29SAPC  H16Y 3941   4.132   4.492   8.404  0.4318  0.0131 -0.5638
   29SAPC  C317 3942   4.029   4.310   8.473  0.1953  0.5530 -0.8969
   29SAPC  H17X 3943   3.944   4.251   8.432 -1.5603  0.2088  2.8477
   29SAPC  H17Y 3944   3.995   4.351   8.571 -0.2078 -2.4445  0.3208
   29SAPC  C318 3945   4.146   4.224   8.502  0.0864  0.0745 -0.0479
   29SAPC  H18X 3946   4.240   4.266   8.544 -0.4255  1.6833 -0.4268
   29SAPC  H18Y 3947   4.168   4.182   8.401 -1.7422  1.5101 -1.1108
   29SAPC  H18Z 3948   4.124   4.127   8.552 -0.9293 -0.6724 -1.8482
   30SAPC     N 3949   5.527   3.409   5.873 -0.4511 -0.3554  0.4981
   30SAPC   C12 3950   5.440   3.290   5.856 -0.2800  0.1932 -0.2580
   30SAPC  H12A 3951   5.476   3.204   5.911  0.4748 -0.0138 -1.0668
   30SAPC  H12B 3952   5.435   3.256   5.754 -0.8219  2.9353 -1.2028
   30SAPC   C13 3953   5.542   3.452   6.012 -0.2659  0.0973  0.2086
   30SAPC  H13A 3954   5.573   3.553   6.036  2.3407 -0.5734 -0.0168
   30SAPC  H13B 3955   5.445   3.445   6.059 -0.0287 -1.8265  0.4618
   30SAPC  H13C 3956   5.607   3.377   6.054 -0.9115 -0.3681  0.3831
   30SAPC   C14 3957   5.667   3.381   5.813 -0.2017 -0.7962  0.3900
   30SAPC  H14A 3958   5.714   3.478   5.810 -2.5325  0.3662 -1.1358
   30SAPC  H14B 3959   5.720   3.316   5.881  2.3006 -1.2798 -1.8641
   30SAPC  H14C 3960   5.671   3.359   5.708 -0.5033  3.1797 -0.6050
   30SAPC   C15 3961   5.471   3.526   5.790 -0.0730  1.1631 -0.4117
   30SAPC  H15A 3962   5.395   3.574   5.850 -0.2653 -1.8108  1.9676
   30SAPC  H15B 3963   5.552   3.596   5.773 -0.8382  1.9030 -1.0770
   30SAPC  H15C 3964   5.441   3.489   5.693  0.4476  1.2958 -0.6259
   30SAPC   C11 3965   5.296   3.296   5.911 -0.2834 -0.4403 -0.5570
   30SAPC  H11A 3966   5.252   3.390   5.872  0.2084 -0.8875 -2.2779
   30SAPC  H11B 3967   5.298   3.305   6.021  0.7860 -3.3737 -0.2444
   30SAPC     P 3968   5.247   3.042   5.931  0.2115 -0.1236  0.2759
   30SAPC   O13 3969   5.139   2.944   5.892 -0.0592 -0.1433 -0.1851
   30SAPC   O14 3970   5.380   3.005   5.887 -0.0758  0.8294 -0.1756
   30SAPC   O12 3971   5.217   3.183   5.873 -0.1318 -0.2028  0.9299
   30SAPC   O11 3972   5.242   3.052   6.088  1.1557  0.1523  0.1727
   30SAPC    C1 3973   5.115   3.060   6.160 -0.8253 -0.5627  0.6446
   30SAPC    HA 3974   5.046   3.123   6.101 -0.8350 -0.1729  1.0701
   30SAPC    HB 3975   5.064   2.964   6.182 -2.1637 -0.4842 -1.7818
   30SAPC    C2 3976   5.150   3.143   6.284  0.4753  0.1070  0.5932
   30SAPC    HS 3977   5.180   3.236   6.230 -0.4006 -0.9696 -1.9266
   30SAPC   O21 3978   5.262   3.089   6.357 -0.2900 -0.0618 -0.2618
   30SAPC   C21 3979   5.326   3.181   6.433  0.1159  0.1341  0.3923
   30SAPC   O22 3980   5.312   3.299   6.415  0.0234  0.6496 -0.3321
   30SAPC   C22 3981   5.424   3.119   6.530 -0.3240  0.3471  0.1681
   30SAPC   H2R 3982   5.397   3.018   6.567  2.1045  0.6591  3.2096
   30SAPC   H2S 3983   5.517   3.116   6.470  0.1810 -0.8763  0.9648
   30SAPC    C3 3984   5.024   3.152   6.371  0.4140  0.1845 -0.1820
   30SAPC    HX 3985   5.036   3.074   6.449 -0.2958  0.5688  0.3178
   30SAPC    HY 3986   4.928   3.146   6.317 -0.2748 -0.4171  1.0781
   30SAPC   O31 3987   5.040   3.281   6.443  0.0800  0.1179 -0.5197
   30SAPC   C31 3988   5.002   3.386   6.369 -0.1534  0.4756 -0.8454
   30SAPC   O32 3989   4.985   3.388   6.248 -0.0955 -0.3730 -0.5445
   30SAPC   C32 3990   4.993   3.507   6.463  0.0761 -0.7079  0.3453
   30SAPC   H2X 3991   5.075   3.570   6.423 -1.0454 -0.0318 -0.9376
   30SAPC   H2Y 3992   5.014   3.474   6.567  0.0903 -2.4313 -0.1763
   30SAPC   C23 3993   5.443   3.199   6.662  0.4321  0.0899 -0.2467
   30SAPC   H3R 3994   5.424   3.307   6.640 -0.1465  0.3045  1.2077
   30SAPC   H3S 3995   5.551   3.196   6.686  0.3527  0.1949  0.1340
   30SAPC   C24 3996   5.337   3.176   6.775 -0.0974  0.5328  0.2975
   30SAPC   H4R 3997   5.352   3.073   6.814 -2.4502  0.0154 -0.0490
   30SAPC   H4S 3998   5.237   3.187   6.730  0.3215  2.5099 -0.2468
   30SAPC   C25 3999   5.360   3.270   6.886  0.2015 -0.3434 -0.2553
   30SAPC   H5R 4000   5.358   3.372   6.846  0.3600  0.1049  0.8547
   30SAPC   C26 4001   5.365   3.239   7.015 -0.5239 -0.5568  0.6587
   30SAPC   H6R 4002   5.375   3.326   7.083  0.4859  1.7372 -2.2163
   30SAPC   C27 4003   5.360   3.098   7.076  0.9756  0.1322 -0.5884
   30SAPC   H7R 4004   5.458   3.077   7.124 -0.3173  1.1635  2.8241
   30SAPC   H7S 4005   5.350   3.011   7.007 -0.6393 -0.2571  0.0939
   30SAPC   C28 4006   5.251   3.084   7.182 -0.7820 -0.3023  0.3988
   30SAPC   H8R 4007   5.165   3.023   7.150 -0.6308 -1.2084  1.6882
   30SAPC   C29 4008   5.255   3.138   7.305 -0.6859  0.2569 -0.3087
   30SAPC   H9R 4009   5.180   3.094   7.373 -1.3130 -0.8098 -1.6339
   30SAPC  C210 4010   5.367   3.224   7.365 -0.9739  0.1096 -0.4660
   30SAPC  H10R 4011   5.335   3.324   7.400 -2.5181 -0.6634  0.4464
   30SAPC  H10S 4012   5.436   3.251   7.282 -1.5457  2.6664 -0.1898
   30SAPC  C211 4013   5.445   3.140   7.464  0.0655 -0.1198  0.0890
   30SAPC  H11R 4014   5.508   3.060   7.422  1.5319 -0.4426  2.6751
   30SAPC  C212 4015   5.459   3.163   7.599 -0.9660 -0.2367 -0.0131
   30SAPC  H12R 4016   5.500   3.080   7.658 -0.8092  1.2178  2.0132
   30SAPC  C213 4017   5.393   3.260   7.693 -0.4456  0.3037  0.5970
   30SAPC  H13R 4018   5.403   3.365   7.658 -0.6319 -0.0466 -0.5262
   30SAPC  H13S 4019   5.452   3.255   7.787  0.1077 -1.8426  0.1981
   30SAPC  C214 4020   5.252   3.224   7.718 -0.1609  0.1193  0.4514
   30SAPC  H14R 4021   5.198   3.207   7.623  1.1776 -1.5379 -0.0602
   30SAPC  C215 4022   5.184   3.208   7.837 -0.2039 -1.0690 -0.5656
   30SAPC  H15R 4023   5.076   3.189   7.833 -0.1436 -1.2240 -1.7178
   30SAPC  C216 4024   5.245   3.233   7.973 -0.4787 -0.1491  0.0658
   30SAPC  H16R 4025   5.337   3.295   7.976  0.0504 -0.8943 -0.4498
   30SAPC  H16S 4026   5.257   3.137   8.026 -0.7897  0.2241  0.8294
   30SAPC  C217 4027   5.153   3.306   8.072  0.1501 -0.4497  0.2427
   30SAPC  H17R 4028   5.195   3.321   8.174 -0.4952 -1.7369  0.7297
   30SAPC  H17S 4029   5.053   3.258   8.082 -0.2035  0.1933 -0.1138
   30SAPC  C218 4030   5.108   3.443   8.027  0.3122 -0.5151 -0.0773
   30SAPC  H18R 4031   5.085   3.446   7.918  0.0554 -2.0915 -0.0999
   30SAPC  H18S 4032   5.189   3.517   8.042 -1.4812  1.8696 -1.5144
   30SAPC  C219 4033   4.988   3.493   8.107 -0.1210 -0.2758  0.6333
   30SAPC  H19R 4034   5.015   3.492   8.215  2.6423  0.6897  0.0257
   30SAPC  H19S 4035   4.906   3.418   8.099 -1.6909  1.3071  1.1737
   30SAPC  C220 4036   4.947   3.630   8.059 -0.0304  0.1758  0.0577
   30SAPC  H20R 4037   5.027   3.706   8.045  0.1123  0.1685  0.8190
   30SAPC  H20S 4038   4.861   3.672   8.115 -1.0600 -0.3481 -1.0650
   30SAPC  H20T 4039   4.899   3.613   7.960 -1.0084 -2.7162  0.9242
   30SAPC   C33 4040   4.851   3.574   6.462  0.6334  0.6957 -0.3655
   30SAPC   H3X 4041   4.773   3.520   6.520 -0.6878 -0.0381 -2.6910
   30SAPC   H3Y 4042   4.801   3.570   6.362 -0.8063  1.9488  0.2614
   30SAPC   C34 4043   4.848   3.714   6.509 -0.5230  0.2280 -0.4549
   30SAPC   H4X 4044   4.748   3.761   6.496 -0.2063  0.7978 -0.9147
   30SAPC   H4Y 4045   4.913   3.773   6.439 -0.5682  0.8318  0.0039
   30SAPC   C35 4046   4.893   3.731   6.653  0.3641  0.2242  0.6604
   30SAPC   H5X 4047   4.994   3.689   6.670  0.6749  0.8284  0.3346
   30SAPC   H5Y 4048   4.818   3.676   6.714 -0.2555  0.7934  0.4326
   30SAPC   C36 4049   4.883   3.868   6.723 -1.1484  0.5022 -0.0198
   30SAPC   H6X 4050   4.782   3.912   6.705 -0.7501  0.4582 -2.8006
   30SAPC   H6Y 4051   4.955   3.941   6.681 -1.2656  2.5258  2.9211
   30SAPC   C37 4052   4.900   3.861   6.877  0.1431  0.0375 -0.0908
   30SAPC   H7X 4053   5.003   3.825   6.899  2.7084  6.2369 -0.0989
   30SAPC   H7Y 4054   4.823   3.787   6.907  0.5659 -0.7055 -0.7760
   30SAPC   C38 4055   4.878   3.998   6.943  0.4662  0.9702  0.3430
   30SAPC   H8X 4056   4.782   4.043   6.909  0.2671  0.0693 -0.3094
   30SAPC   H8Y 4057   4.962   4.066   6.916  0.9044  1.1196  1.9411
   30SAPC   C39 4058   4.877   3.976   7.094  0.4213 -0.3934  0.2105
   30SAPC   H9X 4059   4.963   3.910   7.116 -0.6972 -2.9606 -2.4768
   30SAPC   H9Y 4060   4.783   3.926   7.126 -0.3471  1.0746  0.3568
   30SAPC  C310 4061   4.883   4.112   7.171  0.8084  0.4276 -0.2901
   30SAPC  H10X 4062   4.789   4.162   7.141  0.9019  0.4890 -0.4828
   30SAPC  H10Y 4063   4.974   4.169   7.140  1.0799  1.2346  1.7871
   30SAPC  C311 4064   4.902   4.084   7.323 -0.0929 -0.0204 -0.1994
   30SAPC  H11X 4065   4.994   4.023   7.318 -0.6933 -0.9433 -0.0685
   30SAPC  H11Y 4066   4.817   4.020   7.352  1.9186 -3.0368 -0.5828
   30SAPC  C312 4067   4.927   4.212   7.408  0.4387  0.0412 -0.0499
   30SAPC  H12X 4068   4.836   4.275   7.421 -0.4610 -0.7057 -2.1831
   30SAPC  H12Y 4069   5.011   4.266   7.360  0.3968  0.8980  0.8129
   30SAPC  C313 4070   4.971   4.176   7.552  0.0725 -0.2363  0.5290
   30SAPC  H13X 4071   5.077   4.144   7.557  0.2801  0.2853 -0.2675
   30SAPC  H13Y 4072   4.906   4.092   7.585 -0.7225  0.6801  1.3752
   30SAPC  C314 4073   4.945   4.292   7.656 -0.0756  0.2185 -0.1789
   30SAPC  H14X 4074   4.840   4.328   7.654 -0.2741 -0.1408  1.8345
   30SAPC  H14Y 4075   5.002   4.384   7.631  0.3836 -0.7854 -3.2106
   30SAPC  C315 4076   4.984   4.240   7.794  0.7115  0.1415  0.1610
   30SAPC  H15X 4077   4.973   4.319   7.871  0.7143  0.1353  0.1678
   30SAPC  H15Y 4078   5.089   4.203   7.790  1.4646  2.2467 -2.4109
   30SAPC  C316 4079   4.904   4.113   7.851 -0.2785  0.1076 -0.7847
   30SAPC  H16X 4080   4.962   4.022   7.826  0.3866  0.2353  0.2508
   30SAPC  H16Y 4081   4.801   4.104   7.809 -0.0984 -0.3330 -1.1317
   30SAPC  C317 4082   4.893   4.122   8.004  0.6687  0.3070 -0.4686
   30SAPC  H17X 4083   4.817   4.201   8.020 -0.0858  0.2542 -3.3607
   30SAPC  H17Y 4084   4.994   4.157   8.036  0.6645  0.2575 -0.4005
   30SAPC  C318 4085   4.847   3.988   8.069  0.0804 -0.4282 -0.0469
   30SAPC  H18X 4086   4.938   3.924   8.074  0.0341 -0.5913 -1.1630
   30SAPC  H18Y 4087   4.763   3.933   8.022 -2.3545  3.1167 -0.2110
   30SAPC  H18Z 4088   4.818   4.009   8.174  0.3813  0.1486 -0.0756
   31SAPC     N 4089   1.006   5.066   6.255 -0.3472  0.0176 -0.4323
   31SAPC   C12 4090   0.994   4.955   6.357 -0.4469 -0.3603 -0.4963
   31SAPC  H12A 4091   1.072   4.971   6.430  2.5294  0.9139 -3.7114
   31SAPC  H12B 4092   1.025   4.862   6.311 -0.4705 -1.0534  0.8320
   31SAPC   C13 4093   0.913   5.037   6.144 -0.8474  0.3879 -1.0234
   31SAPC  H13A 4094   0.816   5.034   6.190  0.5472  0.6576  2.1932
   31SAPC  H13B 4095   0.919   5.121   6.077  0.2338  1.2883  0.1555
   31SAPC  H13C 4096   0.928   4.945   6.089 -0.1851  1.1936 -2.2367
   31SAPC   C14 4097   0.985   5.201   6.310  0.4947 -0.4497  0.1977
   31SAPC  H14A 4098   0.959   5.262   6.225  0.6506 -1.2155 -0.4053
   31SAPC  H14B 4099   0.892   5.214   6.364  0.7805 -1.6952  1.0253
   31SAPC  H14C 4100   1.073   5.245   6.355  0.7548  0.2740 -0.9770
   31SAPC   C15 4101   1.148   5.067   6.206  0.9769  0.2326 -0.2194
   31SAPC  H15A 4102   1.219   5.112   6.274  0.5554 -2.2254  2.0565
   31SAPC  H15B 4103   1.183   4.968   6.181 -0.8220 -0.2264 -1.1192
   31SAPC  H15C 4104   1.143   5.135   6.123  0.2486  3.7294  2.4686
   31SAPC   C11 4105   0.865   4.923   6.441  0.1339  0.3871 -0.3267
   31SAPC  H11A 4106   0.839   5.007   6.510 -1.8564  1.0496 -1.7684
   31SAPC  H11B 4107   0.883   4.837   6.508 -1.0302 -0.6848 -1.3328
   31SAPC     P 4108   0.678   4.772   6.328  0.3122 -0.0159  0.1163
   31SAPC   O13 4109   0.548   4.805   6.269  0.5920  0.4039  0.4035
   31SAPC   O14 4110   0.762   4.685   6.241  0.8408 -0.1830  0.0924
   31SAPC   O12 4111   0.751   4.907   6.354 -0.3059 -0.3251 -0.9685
   31SAPC   O11 4112   0.656   4.692   6.462 -0.5737  0.2779  0.3082
   31SAPC    C1 4113   0.613   4.759   6.582  0.3339 -0.7450 -0.1544
   31SAPC    HA 4114   0.699   4.777   6.650  0.2681  1.4521 -0.5817
   31SAPC    HB 4115   0.574   4.861   6.561 -0.2567 -1.3116 -2.1028
   31SAPC    C2 4116   0.481   4.683   6.643 -0.6078  0.1965 -0.7142
   31SAPC    HS 4117   0.428   4.757   6.706 -0.7292 -1.2431  0.9565
   31SAPC   O21 4118   0.521   4.564   6.717 -0.6209 -0.2157 -0.4206
   31SAPC   C21 4119   0.582   4.587   6.837 -0.0952  0.1320 -0.0688
   31SAPC   O22 4120   0.609   4.697   6.879  0.0882 -0.7474  0.6146
   31SAPC   C22 4121   0.599   4.446   6.911 -0.4637 -0.1817  0.3182
   31SAPC   H2R 4122   0.516   4.438   6.985 -0.8726 -1.4655 -0.2529
   31SAPC   H2S 4123   0.597   4.369   6.831  1.8526  2.4458 -2.5293
   31SAPC    C3 4124   0.381   4.631   6.540  0.2390 -0.3278  0.7382
   31SAPC    HX 4125   0.445   4.574   6.470  1.9472  2.0157  0.2570
   31SAPC    HY 4126   0.348   4.717   6.478  1.8449 -0.3316 -0.1793
   31SAPC   O31 4127   0.281   4.539   6.589  0.0828 -0.2426 -0.2233
   31SAPC   C31 4128   0.158   4.588   6.596  0.8700 -0.0572 -0.1055
   31SAPC   O32 4129   0.125   4.701   6.572 -0.6902 -0.6003 -0.1131
   31SAPC   C32 4130   0.068   4.485   6.661  0.8112 -0.1706 -0.2695
   31SAPC   H2X 4131   0.127   4.419   6.728  0.5070  1.4517  1.6797
   31SAPC   H2Y 4132   0.016   4.422   6.585  0.9528 -0.1601 -0.3753
   31SAPC   C23 4133   0.743   4.420   6.972  0.3168  0.3442 -0.6508
   31SAPC   H3R 4134   0.763   4.498   7.048  1.4947  0.5416 -1.1461
   31SAPC   H3S 4135   0.810   4.422   6.883 -1.1640 -0.2228 -1.8339
   31SAPC   C24 4136   0.756   4.285   7.036  0.4172 -0.2452 -0.5811
   31SAPC   H4R 4137   0.861   4.269   7.067  0.3731  0.8090  0.1679
   31SAPC   H4S 4138   0.735   4.207   6.960 -2.2221  0.9335 -1.1993
   31SAPC   C25 4139   0.672   4.261   7.162  0.0647 -0.6187 -0.4079
   31SAPC   H5R 4140   0.682   4.331   7.246 -0.0993 -2.0636  0.8571
   31SAPC   C26 4141   0.590   4.156   7.183  0.1209 -0.4550  0.0824
   31SAPC   H6R 4142   0.539   4.142   7.279  0.5803 -2.2232  0.1019
   31SAPC   C27 4143   0.560   4.053   7.080  0.5308 -0.2958  0.5965
   31SAPC   H7R 4144   0.647   3.996   7.041  0.0841  1.9248 -4.4756
   31SAPC   H7S 4145   0.504   4.097   6.995 -0.1385  0.0884  1.2340
   31SAPC   C28 4146   0.451   3.963   7.134 -0.1503 -0.0032 -0.2703
   31SAPC   H8R 4147   0.346   3.987   7.110  0.3692  0.8161 -1.8462
   31SAPC   C29 4148   0.473   3.845   7.200  0.2001 -0.3703 -0.8912
   31SAPC   H9R 4149   0.387   3.784   7.231  0.5865  0.2174  1.6387
   31SAPC  C210 4150   0.607   3.785   7.231  0.4051 -0.0721 -0.2218
   31SAPC  H10R 4151   0.634   3.815   7.335  2.3469 -3.7823  0.5170
   31SAPC  H10S 4152   0.686   3.842   7.179 -1.0676  1.6077 -0.7172
   31SAPC  C211 4153   0.618   3.644   7.196  0.0844  0.3999 -0.1877
   31SAPC  H11R 4154   0.622   3.616   7.089 -0.7838  1.3604 -0.4909
   31SAPC  C212 4155   0.599   3.545   7.286 -0.2226 -0.0244  0.3438
   31SAPC  H12R 4156   0.591   3.444   7.244 -0.1656 -0.1250  0.5770
   31SAPC  C213 4157   0.560   3.559   7.426 -0.0042 -0.5625 -0.2165
   31SAPC  H13R 4158   0.603   3.654   7.464 -2.0693  1.0453 -1.6479
   31SAPC  H13S 4159   0.608   3.471   7.474 -2.6980 -2.6024 -0.9908
   31SAPC  C214 4160   0.412   3.527   7.447 -0.5057 -0.3247  0.6167
   31SAPC  H14R 4161   0.373   3.443   7.386 -2.6416 -0.4372  2.0492
   31SAPC  C215 4162   0.321   3.580   7.532  0.1054  1.0690 -0.2533
   31SAPC  H15R 4163   0.217   3.543   7.526  1.2229 -2.2110 -1.4171
   31SAPC  C216 4164   0.344   3.689   7.629  0.0106 -0.2867  0.4861
   31SAPC  H16R 4165   0.440   3.744   7.615 -1.7974  2.9188 -0.4201
   31SAPC  H16S 4166   0.322   3.659   7.734  1.5371 -1.6254  0.4499
   31SAPC  C217 4167   0.237   3.809   7.623 -0.0081 -0.5864  0.5086
   31SAPC  H17R 4168   0.224   3.859   7.721  1.9676  0.3669  0.3167
   31SAPC  H17S 4169   0.143   3.760   7.588  0.1013 -0.0551 -0.5959
   31SAPC  C218 4170   0.270   3.923   7.522  0.4527  0.0970 -0.0459
   31SAPC  H18R 4171   0.374   3.899   7.493 -0.2986 -2.1994 -1.1461
   31SAPC  H18S 4172   0.265   4.020   7.575 -0.4934  1.1685 -1.9667
   31SAPC  C219 4173   0.181   3.944   7.403 -0.1682 -0.1737  0.3082
   31SAPC  H19R 4174   0.183   3.847   7.350  1.2669  0.2257 -0.4237
   31SAPC  H19S 4175   0.230   4.024   7.343 -0.9435 -1.2686 -1.9243
   31SAPC  C220 4176   0.047   3.995   7.446 -0.2526  0.8159  0.6580
   31SAPC  H20R 4177  -0.012   3.921   7.505  0.7397  0.4669  1.2243
   31SAPC  H20S 4178  -0.014   4.023   7.357  0.8636  2.3821  0.3500
   31SAPC  H20T 4179   0.040   4.085   7.511  1.0212  0.1920  1.7143
   31SAPC   C33 4180  -0.035   4.564   6.745 -0.1591 -0.7418  0.0785
   31SAPC   H3X 4181  -0.109   4.602   6.670 -2.6704  0.5469  2.9513
   31SAPC   H3Y 4182   0.010   4.653   6.794  1.1289 -1.0971 -0.4290
   31SAPC   C34 4183  -0.106   4.479   6.851  0.1556 -0.5431  0.7902
   31SAPC   H4X 4184  -0.024   4.461   6.923 -0.7783  1.6771  2.5464
   31SAPC   H4Y 4185  -0.132   4.379   6.811  1.5486 -0.3665 -0.6522
   31SAPC   C35 4186  -0.217   4.547   6.930  0.2862 -0.4512 -0.0373
   31SAPC   H5X 4187  -0.288   4.582   6.852  1.3591  2.6901  0.2778
   31SAPC   H5Y 4188  -0.179   4.642   6.972 -0.4490  0.7660 -1.9604
   31SAPC   C36 4189  -0.280   4.461   7.044  0.5001 -0.9742  0.0381
   31SAPC   H6X 4190  -0.313   4.364   7.002 -1.0942 -0.6223  0.4056
   31SAPC   H6Y 4191  -0.370   4.512   7.084  0.2486  0.3867 -2.1094
   31SAPC   C37 4192  -0.191   4.448   7.174  0.2279 -0.2104  0.2810
   31SAPC   H7X 4193  -0.176   4.550   7.215  0.4538 -0.1767  0.1127
   31SAPC   H7Y 4194  -0.091   4.405   7.155 -0.3015 -1.8728  1.0389
   31SAPC   C38 4195  -0.262   4.352   7.273  0.0997 -0.5359  0.8654
   31SAPC   H8X 4196  -0.288   4.262   7.213  0.1599 -0.7400  1.1406
   31SAPC   H8Y 4197  -0.359   4.395   7.306  0.0153  1.7885 -2.0219
   31SAPC   C39 4198  -0.177   4.325   7.397  0.3137  0.0284 -0.4369
   31SAPC   H9X 4199  -0.073   4.302   7.363  0.7231  0.1897  0.6790
   31SAPC   H9Y 4200  -0.224   4.243   7.454 -1.9879  2.2204  1.0316
   31SAPC  C310 4201  -0.159   4.450   7.490  0.2399 -0.1872  0.1053
   31SAPC  H10X 4202  -0.254   4.479   7.540  1.4247 -2.2794  4.0347
   31SAPC  H10Y 4203  -0.131   4.531   7.420  2.2557 -0.6029  0.3682
   31SAPC  C311 4204  -0.044   4.441   7.590 -0.7287 -0.0610  0.0038
   31SAPC  H11X 4205   0.049   4.393   7.553  1.7738  2.2871  2.6967
   31SAPC  H11Y 4206  -0.076   4.379   7.676  0.0969  0.3334  0.6159
   31SAPC  C312 4207   0.003   4.578   7.648  0.7628  0.3399 -0.5851
   31SAPC  H12X 4208  -0.083   4.633   7.691  0.7698  1.6139 -2.1072
   31SAPC  H12Y 4209   0.049   4.629   7.560  1.3501  0.4864 -0.2005
   31SAPC  C313 4210   0.115   4.573   7.750 -0.1701 -0.3678 -0.0733
   31SAPC  H13X 4211   0.152   4.678   7.746  2.1558 -1.1612 -0.7954
   31SAPC  H13Y 4212   0.198   4.512   7.710  0.8407 -1.4554  3.3606
   31SAPC  C314 4213   0.075   4.528   7.886  1.0143 -0.4689  0.3205
   31SAPC  H14X 4214   0.026   4.428   7.886 -3.0532  1.2284 -1.9806
   31SAPC  H14Y 4215  -0.003   4.599   7.922  0.2176  0.2709 -2.5583
   31SAPC  C315 4216   0.194   4.536   7.978 -0.3194  0.3850 -0.0707
   31SAPC  H15X 4217   0.230   4.641   7.987  0.0299  0.4532 -1.8684
   31SAPC  H15Y 4218   0.274   4.476   7.929 -2.5367 -1.4483 -1.6499
   31SAPC  C316 4219   0.152   4.472   8.115 -0.2898 -0.1383  0.2097
   31SAPC  H16X 4220   0.160   4.363   8.101 -0.4681 -0.3309  1.4575
   31SAPC  H16Y 4221   0.056   4.511   8.154  0.6534 -1.4599  4.4948
   31SAPC  C317 4222   0.257   4.505   8.223 -0.2375  0.2419  1.1881
   31SAPC  H17X 4223   0.333   4.425   8.223  0.6148  1.0319  0.3662
   31SAPC  H17Y 4224   0.215   4.503   8.326 -1.7880 -0.2041  0.5805
   31SAPC  C318 4225   0.324   4.647   8.215  0.6213 -0.4252  0.2914
   31SAPC  H18X 4226   0.395   4.665   8.298 -0.7782 -1.9636  1.9186
   31SAPC  H18Y 4227   0.243   4.723   8.221  0.1798 -0.9610  1.6353
   31SAPC  H18Z 4228   0.380   4.666   8.121 -2.6756  0.8738 -1.6106
   32SAPC     N 4229   1.627   0.506   6.194  0.1206 -0.5666 -0.6684
   32SAPC   C12 4230   1.776   0.531   6.210 -0.9701  0.0416 -0.2723
   32SAPC  H12A 4231   1.804   0.485   6.304 -1.0529  1.7765  0.6588
   32SAPC  H12B 4232   1.800   0.635   6.230  0.7483 -0.0492 -1.6174
   32SAPC   C13 4233   1.580   0.577   6.072  0.4848 -0.4897  0.6811
   32SAPC  H13A 4234   1.637   0.668   6.059  0.4560 -0.6656 -0.8722
   32SAPC  H13B 4235   1.590   0.523   5.980 -0.4958 -1.1174  0.9214
   32SAPC  H13C 4236   1.478   0.612   6.070  0.8894  0.7266  0.1994
   32SAPC   C14 4237   1.590   0.360   6.191  0.5702 -0.1296 -0.5549
   32SAPC  H14A 4238   1.609   0.317   6.289  1.1589  1.0049 -0.1565
   32SAPC  H14B 4239   1.487   0.341   6.165  0.7018 -1.5532 -0.1656
   32SAPC  H14C 4240   1.654   0.307   6.121  1.4260  1.2005 -0.8083
   32SAPC   C15 4241   1.550   0.560   6.313  0.6479 -0.0671 -0.4074
   32SAPC  H15A 4242   1.446   0.574   6.288  0.5596 -1.2394 -0.7465
   32SAPC  H15B 4243   1.562   0.511   6.408 -1.5028 -0.3853 -0.2635
   32SAPC  H15C 4244   1.583   0.661   6.332 -3.4373  1.2047  1.0167
   32SAPC   C11 4245   1.873   0.476   6.104  0.0510  0.2236  0.2962
   32SAPC  H11A 4246   1.978   0.507   6.124 -0.4389  0.9247  1.9524
   32SAPC  H11B 4247   1.839   0.531   6.014  0.4720  1.8616  1.1065
   32SAPC     P 4248   1.970   0.238   6.147 -0.0561 -0.1060 -0.8936
   32SAPC   O13 4249   1.924   0.096   6.117  0.1802  0.1206  0.3334
   32SAPC   O14 4250   2.107   0.277   6.099 -0.2448 -0.5867  0.2694
   32SAPC   O12 4251   1.850   0.335   6.078  0.1345  0.3901  0.0024
   32SAPC   O11 4252   1.968   0.273   6.300  0.4836 -0.0275 -0.1875
   32SAPC    C1 4253   1.936   0.186   6.406  0.0819 -0.2140 -0.1523
   32SAPC    HA 4254   1.830   0.154   6.403  0.2960 -0.9131 -1.9833
   32SAPC    HB 4255   2.001   0.097   6.389  0.3315 -0.0442 -0.0838
   32SAPC    C2 4256   1.965   0.253   6.537  0.0137 -0.2671 -0.1342
   32SAPC    HS 4257   1.921   0.355   6.528 -0.5276 -0.6565 -2.6463
   32SAPC   O21 4258   2.109   0.258   6.566  0.4006  0.4238 -0.0769
   32SAPC   C21 4259   2.138   0.352   6.648  0.2170  0.3167  0.4358
   32SAPC   O22 4260   2.075   0.450   6.680 -0.1627 -0.1132  0.0726
   32SAPC   C22 4261   2.277   0.317   6.712 -1.1101  0.0951  0.8019
   32SAPC   H2R 4262   2.300   0.209   6.698  2.8862  0.7984  0.7157
   32SAPC   H2S 4263   2.347   0.369   6.643  0.6587  1.1701  3.2752
   32SAPC    C3 4264   1.910   0.172   6.656  0.1722 -0.2090 -0.0203
   32SAPC    HX 4265   1.984   0.092   6.680  1.2144  0.6238 -0.4025
   32SAPC    HY 4266   1.818   0.120   6.619 -1.2113  0.1788  2.6252
   32SAPC   O31 4267   1.887   0.248   6.779  0.1877 -0.1348 -0.1209
   32SAPC   C31 4268   1.768   0.296   6.803  0.3493 -0.3759 -0.3165
   32SAPC   O32 4269   1.671   0.266   6.735  0.2024 -0.0855 -0.2544
   32SAPC   C32 4270   1.785   0.407   6.904  0.0199 -0.6627 -0.4292
   32SAPC   H2X 4271   1.834   0.488   6.847 -3.1263  2.9988  1.6098
   32SAPC   H2Y 4272   1.861   0.364   6.973 -0.4454 -0.6211  0.1165
   32SAPC   C23 4273   2.305   0.373   6.847  0.6391  0.2756  0.2938
   32SAPC   H3R 4274   2.237   0.316   6.914  0.8598 -0.8734 -0.4423
   32SAPC   H3S 4275   2.272   0.479   6.852 -1.5823 -0.3713  0.4045
   32SAPC   C24 4276   2.449   0.344   6.895 -0.1710  0.3697 -0.2290
   32SAPC   H4R 4277   2.472   0.388   6.995 -2.9585 -0.3471  0.8166
   32SAPC   H4S 4278   2.514   0.406   6.829 -1.2855  1.2029 -0.5788
   32SAPC   C25 4279   2.482   0.197   6.898 -0.3947 -0.0810 -0.2693
   32SAPC   H5R 4280   2.480   0.151   6.797 -3.5777 -2.0275  0.5023
   32SAPC   C26 4281   2.499   0.113   7.003  0.1153  0.3382  0.0937
   32SAPC   H6R 4282   2.512   0.009   6.970 -0.4824  0.5684 -0.9385
   32SAPC   C27 4283   2.495   0.142   7.150  0.0285  0.5962  0.2089
   32SAPC   H7R 4284   2.451   0.049   7.193  1.5743 -0.1538  0.2413
   32SAPC   H7S 4285   2.430   0.228   7.180 -0.4157  0.0131  0.9633
   32SAPC   C28 4286   2.634   0.156   7.206  0.7023  0.0277 -0.4276
   32SAPC   H8R 4287   2.693   0.232   7.153  0.7541  0.7949  0.6900
   32SAPC   C29 4288   2.683   0.092   7.317 -0.7817 -0.2259 -0.4131
   32SAPC   H9R 4289   2.791   0.111   7.323 -0.6787 -0.6940 -0.6750
   32SAPC  C210 4290   2.620  -0.005   7.415 -0.3078 -0.0933 -0.7776
   32SAPC  H10R 4291   2.648  -0.105   7.376 -1.2235 -0.9749  0.7744
   32SAPC  H10S 4292   2.510   0.006   7.422 -0.1568  0.3374  1.7012
   32SAPC  C211 4293   2.695   0.017   7.547  0.0963  0.0736 -0.1786
   32SAPC  H11R 4294   2.776   0.090   7.538  1.5297 -1.4722 -0.3217
   32SAPC  C212 4295   2.661  -0.028   7.675  0.7023 -0.2826  0.6320
   32SAPC  H12R 4296   2.718   0.004   7.764 -2.2592  1.0509  2.2115
   32SAPC  C213 4297   2.541  -0.113   7.709 -0.5517 -0.1686  0.6774
   32SAPC  H13R 4298   2.582  -0.216   7.701 -0.4014  0.0324 -2.1331
   32SAPC  H13S 4299   2.463  -0.111   7.629 -2.1313  2.7143  2.1347
   32SAPC  C214 4300   2.474  -0.087   7.846  0.0609 -0.1373 -0.4834
   32SAPC  H14R 4301   2.388  -0.019   7.842 -0.1341 -0.3457  0.0312
   32SAPC  C215 4302   2.510  -0.130   7.972 -0.7191  0.3583  0.7863
   32SAPC  H15R 4303   2.459  -0.091   8.062  1.7639  3.0421  1.1963
   32SAPC  C216 4304   2.636  -0.207   8.004 -0.0168 -0.4218  0.8488
   32SAPC  H16R 4305   2.713  -0.196   7.924 -0.1317 -1.5353  0.5715
   32SAPC  H16S 4306   2.622  -0.316   8.018 -1.5272 -0.7792 -2.5498
   32SAPC  C217 4307   2.705  -0.164   8.132  0.4486 -0.4924 -0.4703
   32SAPC  H17R 4308   2.782  -0.234   8.170  2.0979  1.1985 -0.5908
   32SAPC  H17S 4309   2.623  -0.163   8.208  1.3466  2.7391  0.5985
   32SAPC  C218 4310   2.761  -0.025   8.129 -0.4408  0.9357 -0.0963
   32SAPC  H18R 4311   2.687   0.057   8.119  0.8367  1.8854 -2.5268
   32SAPC  H18S 4312   2.821  -0.022   8.035  0.6948 -2.5024  0.3785
   32SAPC  C219 4313   2.850   0.005   8.254  0.1146  0.3227  0.3002
   32SAPC  H19R 4314   2.928  -0.072   8.271  1.1042  0.2838 -3.4682
   32SAPC  H19S 4315   2.790  -0.011   8.346 -0.3401 -1.0401 -0.1984
   32SAPC  C220 4316   2.910   0.142   8.272  0.1587 -0.4335  0.0036
   32SAPC  H20R 4317   2.992   0.169   8.201 -0.3952  0.2312 -0.3925
   32SAPC  H20S 4318   2.951   0.144   8.375  0.3701 -1.3557 -0.0548
   32SAPC  H20T 4319   2.846   0.229   8.247  0.7946 -0.6019 -2.5120
   32SAPC   C33 4320   1.660   0.454   6.981 -0.0665 -0.5458 -0.2740
   32SAPC   H3X 4321   1.574   0.467   6.912 -0.1454  1.5612  0.1455
   32SAPC   H3Y 4322   1.675   0.559   7.014  1.2766 -0.8964  0.3024
   32SAPC   C34 4323   1.626   0.365   7.099  0.2206 -0.0912 -0.5776
   32SAPC   H4X 4324   1.674   0.266   7.082 -1.3980 -0.6385 -2.2953
   32SAPC   H4Y 4325   1.517   0.342   7.105  0.5652 -1.7443  0.0666
   32SAPC   C35 4326   1.666   0.423   7.232  0.8331 -0.0833 -0.5999
   32SAPC   H5X 4327   1.597   0.508   7.253 -0.5464 -0.9188 -1.6092
   32SAPC   H5Y 4328   1.769   0.465   7.221  1.1202 -0.3131  0.9540
   32SAPC   C36 4329   1.668   0.338   7.356 -0.7766 -0.0986  0.1233
   32SAPC   H6X 4330   1.727   0.394   7.432 -0.2230 -0.2314 -0.2064
   32SAPC   H6Y 4331   1.720   0.242   7.338 -0.1235  0.1723  0.5343
   32SAPC   C37 4332   1.528   0.297   7.406 -0.0032 -0.4828 -0.7785
   32SAPC   H7X 4333   1.478   0.234   7.330 -1.7323  1.1288 -1.0416
   32SAPC   H7Y 4334   1.462   0.384   7.424  0.8475  0.3622 -1.6089
   32SAPC   C38 4335   1.539   0.211   7.533 -0.0203  0.1509  0.5912
   32SAPC   H8X 4336   1.581   0.114   7.496 -0.7014  1.0771 -3.0010
   32SAPC   H8Y 4337   1.440   0.186   7.576  0.6563 -2.2434  0.8974
   32SAPC   C39 4338   1.642   0.271   7.633 -0.0022 -0.1343 -0.2887
   32SAPC   H9X 4339   1.653   0.381   7.631  2.2950 -0.3123  0.0237
   32SAPC   H9Y 4340   1.745   0.236   7.610  0.7246 -0.5101  2.9431
   32SAPC  C310 4341   1.614   0.227   7.780 -0.3494  0.3251  0.3469
   32SAPC  H10X 4342   1.614   0.116   7.774 -1.3871  0.3776 -1.2360
   32SAPC  H10Y 4343   1.506   0.247   7.799 -1.4025  0.7677 -4.6691
   32SAPC  C311 4344   1.713   0.276   7.878  0.6130 -0.1031  0.8862
   32SAPC  H11X 4345   1.728   0.386   7.875  2.5316 -0.2925  1.8745
   32SAPC  H11Y 4346   1.814   0.231   7.862  1.5073  1.9144  0.4431
   32SAPC  C312 4347   1.673   0.240   8.021 -0.2949  0.2117 -0.9059
   32SAPC  H12X 4348   1.679   0.129   8.021  0.6589  0.2488 -0.2313
   32SAPC  H12Y 4349   1.568   0.264   8.048 -0.1244 -1.2067  1.2929
   32SAPC  C313 4350   1.764   0.310   8.120 -0.2023  0.4880  1.0238
   32SAPC  H13X 4351   1.760   0.421   8.115  0.7746  0.5294  0.9320
   32SAPC  H13Y 4352   1.867   0.282   8.087 -0.7644  0.1014 -0.5159
   32SAPC  C314 4353   1.736   0.271   8.266 -0.1161  0.6599  0.0654
   32SAPC  H14X 4354   1.733   0.161   8.280 -0.2844  0.6339 -0.1777
   32SAPC  H14Y 4355   1.631   0.289   8.298 -1.4636 -3.5908 -1.3566
   32SAPC  C315 4356   1.824   0.337   8.373  0.0120  0.5294  0.4063
   32SAPC  H15X 4357   1.819   0.448   8.364  0.6785  0.7015  1.8638
   32SAPC  H15Y 4358   1.925   0.292   8.363  0.2425  1.1929 -0.3841
   32SAPC  C316 4359   1.787   0.288   8.519 -0.2181  0.1897 -0.1334
   32SAPC  H16X 4360   1.877   0.295   8.583 -0.2111  1.2540 -0.2415
   32SAPC  H16Y 4361   1.761   0.181   8.531  0.7445 -0.1221 -0.7067
   32SAPC  C317 4362   1.681   0.367   8.595 -0.7485 -0.4472 -0.1623
   32SAPC  H17X 4363   1.633   0.300   8.668 -1.2561 -0.3419 -0.3986
   32SAPC  H17Y 4364   1.601   0.387   8.521 -1.4392 -2.4779 -0.0097
   32SAPC  C318 4365   1.734   0.500   8.655  0.6073  0.0704  0.2373
   32SAPC  H18X 4366   1.663   0.551   8.723  0.5031  2.0724 -1.2663
   32SAPC  H18Y 4367   1.761   0.574   8.577  2.0639  1.1007  1.6776
   32SAPC  H18Z 4368   1.824   0.479   8.716  0.4676 -0.7011  0.1884
   33POPC     N 4369   6.551   1.913  10.696 -0.0085 -0.1500  0.4313
   33POPC   C12 4370   6.480   1.885  10.562  0.2390 -0.1784  0.1664
   33POPC  H12A 4371   6.531   1.794  10.530  0.3848  0.3809 -1.2973
   33POPC  H12B 4372   6.501   1.956  10.484  3.2052 -2.6069 -1.5079
   33POPC   C13 4373   6.499   2.044  10.752  0.0280  0.0588 -0.2199
   33POPC  H13A 4374   6.391   2.035  10.757  0.0183  0.7584  1.2969
   33POPC  H13B 4375   6.538   2.076  10.847 -1.7702  0.7811  0.3173
   33POPC  H13C 4376   6.518   2.121  10.679  1.7679 -1.0346 -0.9960
   33POPC   C14 4377   6.506   1.812  10.797 -0.8696 -0.3017  0.6140
   33POPC  H14A 4378   6.556   1.832  10.890 -0.5533 -0.2717  0.4370
   33POPC  H14B 4379   6.399   1.808  10.810 -0.7141 -1.5853  1.6988
   33POPC  H14C 4380   6.543   1.714  10.771 -0.9937 -0.0816 -0.4244
   33POPC   C15 4381   6.694   1.913  10.678 -0.3597 -0.0902 -0.2524
   33POPC  H15A 4382   6.714   1.981  10.597 -2.7329  1.1656  0.1232
   33POPC  H15B 4383   6.738   1.817  10.653  0.2252 -0.3960  1.7818
   33POPC  H15C 4384   6.734   1.949  10.771  0.4132 -1.1322 -0.1691
   33POPC   C11 4385   6.326   1.862  10.558 -1.1461 -0.0840 -0.1868
   33POPC  H11A 4386   6.303   1.787  10.636 -1.4435  0.3043  0.1093
   33POPC  H11B 4387   6.294   1.823  10.459 -0.2496  0.2133 -0.6019
   33POPC     P 4388   6.211   2.100  10.509 -0.5040 -0.0661  0.2348
   33POPC   O13 4389   6.333   2.176  10.472 -0.1738  0.7797  0.5677
   33POPC   O14 4390   6.120   2.188  10.578  0.1586  0.6672 -0.2812
   33POPC   O12 4391   6.250   1.973  10.605  0.0625 -0.2953  0.2737
   33POPC   O11 4392   6.140   2.051  10.388 -0.1540 -0.0512 -0.2502
   33POPC    C1 4393   6.036   1.954  10.393 -0.2845 -0.3574  0.1948
   33POPC    HA 4394   6.069   1.850  10.414  0.6716 -0.7186 -2.6647
   33POPC    HB 4395   5.964   1.987  10.470 -1.0998  0.4010 -0.8624
   33POPC    C2 4396   5.961   1.940  10.261  0.0538 -0.0975  0.8669
   33POPC    HS 4397   6.033   1.887  10.196 -0.5229 -1.2672  1.1601
   33POPC   O21 4398   5.911   2.062  10.212  0.2567  0.3387 -0.5661
   33POPC   C21 4399   5.919   2.080  10.084  0.4204  0.2253 -0.0159
   33POPC   O22 4400   5.988   2.009  10.013  0.8956  0.4005  0.3999
   33POPC   C22 4401   5.836   2.200  10.047  0.2741  0.1296 -0.0225
   33POPC   H2R 4402   5.860   2.293  10.103 -2.0849  0.5341  0.4286
   33POPC   H2S 4403   5.729   2.179  10.064 -0.2698  1.3302 -1.6436
   33POPC    C3 4404   5.841   1.829  10.263 -0.0784 -0.7155  0.0106
   33POPC    HX 4405   5.759   1.866  10.329  0.7772  1.1408  0.1097
   33POPC    HY 4406   5.880   1.735  10.308  1.1284  0.8202  2.4267
   33POPC   O31 4407   5.776   1.820  10.138  0.3277 -0.1396 -0.1795
   33POPC   C31 4408   5.828   1.727  10.057 -0.0296 -0.3588 -0.0141
   33POPC   O32 4409   5.927   1.660  10.083  0.2044  0.7072  0.1807
   33POPC   C32 4410   5.777   1.736   9.909 -0.1179 -0.8336  0.4514
   33POPC   H2X 4411   5.781   1.845   9.889  0.6470 -0.9103  0.1759
   33POPC   H2Y 4412   5.674   1.697   9.892  0.3243 -1.4259 -0.9584
   33POPC   C23 4413   5.860   2.232   9.899  0.4634  0.2702  0.3762
   33POPC   H3R 4414   5.966   2.227   9.865 -0.1143 -2.5452 -1.3770
   33POPC   H3S 4415   5.838   2.339   9.882  1.6993  0.5303  0.3059
   33POPC   C24 4416   5.785   2.159   9.786  0.6261 -0.3297  0.2960
   33POPC   H4R 4417   5.675   2.172   9.778  0.3023 -2.5279  0.5476
   33POPC   H4S 4418   5.800   2.052   9.813 -1.5912 -0.9635 -0.6711
   33POPC   C25 4419   5.848   2.181   9.647  0.3594  0.4959 -0.1779
   33POPC   H5R 4420   5.946   2.131   9.630 -1.4627 -3.7996  0.7475
   33POPC   H5S 4421   5.850   2.291   9.628  2.8171  0.7520  1.1155
   33POPC   C26 4422   5.773   2.110   9.536 -0.4019  0.2917  0.0524
   33POPC   H6R 4423   5.663   2.125   9.542 -1.0812 -3.8087  2.0270
   33POPC   H6S 4424   5.785   2.003   9.567 -2.9373  0.5309  2.2247
   33POPC   C27 4425   5.831   2.138   9.401 -0.5517 -0.3401 -0.4157
   33POPC   H7R 4426   5.936   2.106   9.413 -0.6708  0.1081  2.2608
   33POPC   H7S 4427   5.824   2.244   9.369 -1.0411 -0.5056 -0.8840
   33POPC   C28 4428   5.760   2.062   9.295  0.4049 -0.0663 -0.0252
   33POPC   H8R 4429   5.760   1.954   9.322  2.6705 -1.6901 -5.2047
   33POPC   H8S 4430   5.819   2.067   9.201  0.4231  1.8120  0.0525
   33POPC   C29 4431   5.615   2.117   9.280 -0.2194 -1.1742 -0.6739
   33POPC   H91 4432   5.556   2.102   9.372  1.1036  0.0666  0.4133
   33POPC  C210 4433   5.563   2.189   9.174 -0.4464  0.4447  0.3906
   33POPC  H101 4434   5.460   2.227   9.174 -0.8682 -0.6206  1.5964
   33POPC  C211 4435   5.644   2.215   9.052 -0.6053 -0.6022  0.4271
   33POPC  H11R 4436   5.587   2.161   8.973  1.9505 -0.5052 -1.6296
   33POPC  H11S 4437   5.752   2.192   9.050 -0.2371  1.0518 -0.1359
   33POPC  C212 4438   5.640   2.367   9.011 -0.5174  0.3505 -0.2335
   33POPC  H12R 4439   5.733   2.389   8.955  1.2206  0.2232  2.4010
   33POPC  H12S 4440   5.649   2.441   9.094 -2.7560  1.4780 -0.9044
   33POPC  C213 4441   5.521   2.403   8.921  0.3677 -0.1302  0.0640
   33POPC  H13R 4442   5.428   2.385   8.979  0.7619 -0.2064  0.6762
   33POPC  H13S 4443   5.514   2.327   8.840 -0.6911 -1.2964  1.2129
   33POPC  C214 4444   5.529   2.555   8.881  0.4027  0.5603  0.5660
   33POPC  H14R 4445   5.545   2.613   8.975 -2.7067 -0.2091  1.6558
   33POPC  H14S 4446   5.433   2.585   8.835 -0.3599 -0.1503  1.6556
   33POPC  C215 4447   5.643   2.605   8.791  1.0542 -0.1970  0.1219
   33POPC  H15R 4448   5.729   2.601   8.861  0.0122  2.0249  1.6595
   33POPC  H15S 4449   5.620   2.708   8.757  0.0664 -0.4871 -0.1196
   33POPC  C216 4450   5.657   2.518   8.660 -0.1930 -0.5700  0.4354
   33POPC  H16R 4451   5.560   2.493   8.613  1.3266 -1.4229 -2.4794
   33POPC  H16S 4452   5.705   2.424   8.694  1.0512  0.6871  2.3868
   33POPC  C217 4453   5.753   2.574   8.558 -0.9111 -0.4855 -0.2615
   33POPC  H17R 4454   5.852   2.595   8.604 -0.5839  0.6310 -1.4104
   33POPC  H17S 4455   5.700   2.665   8.524  2.3682  0.4193 -3.6329
   33POPC  C218 4456   5.778   2.492   8.428  0.3615  0.4508  0.5564
   33POPC  H18R 4457   5.840   2.556   8.361 -0.9428  0.4986 -0.6449
   33POPC  H18S 4458   5.680   2.472   8.380  1.2252 -3.2577  0.0695
   33POPC  H18T 4459   5.831   2.397   8.449  0.2911 -0.0887 -1.4924
   33POPC   C33 4460   5.872   1.670   9.804 -0.1432  0.0479 -0.4862
   33POPC   H3X 4461   5.886   1.566   9.840 -2.4588 -0.1872 -0.1049
   33POPC   H3Y 4462   5.974   1.715   9.804  1.0998 -2.3778  2.4816
   33POPC   C34 4463   5.809   1.670   9.661  0.3053  0.0209 -0.9610
   33POPC   H4X 4464   5.800   1.774   9.624  0.8336  0.1528 -0.7210
   33POPC   H4Y 4465   5.708   1.623   9.667 -1.5055  3.6839  0.3192
   33POPC   C35 4466   5.897   1.585   9.560 -0.1921 -1.0324 -0.3163
   33POPC   H5X 4467   5.904   1.478   9.587 -1.1195 -1.8218 -2.9752
   33POPC   H5Y 4468   5.994   1.635   9.579 -0.3743 -1.5030  2.2789
   33POPC   C36 4469   5.867   1.614   9.411 -0.0894 -0.0039  0.9389
   33POPC   H6X 4470   5.848   1.722   9.394  0.9173  0.2818  1.5545
   33POPC   H6Y 4471   5.771   1.568   9.380  0.7759 -1.0897 -0.2372
   33POPC   C37 4472   5.978   1.552   9.321 -1.0529 -0.2693  0.5893
   33POPC   H7X 4473   5.989   1.445   9.347 -1.3654 -0.0203  1.8019
   33POPC   H7Y 4474   6.073   1.601   9.352 -0.8294 -1.7698  2.4335
   33POPC   C38 4475   5.955   1.572   9.179 -0.2311  0.5095  0.3153
   33POPC   H8X 4476   5.879   1.495   9.154  2.1782 -2.9484  2.5554
   33POPC   H8Y 4477   6.042   1.540   9.117  0.1788  1.3366  0.4473
   33POPC   C39 4478   5.913   1.711   9.133 -1.0739 -0.0645  0.0383
   33POPC   H9X 4479   5.989   1.791   9.145 -1.3025 -0.0104  1.2656
   33POPC   H9Y 4480   5.833   1.754   9.197  0.2670  1.5272  0.7163
   33POPC  C310 4481   5.880   1.720   8.979  0.0214 -0.7470 -0.1196
   33POPC  H10X 4482   5.808   1.637   8.961  0.6194 -1.4496  0.6467
   33POPC  H10Y 4483   5.976   1.685   8.936  0.4218 -0.8010  0.7858
   33POPC  C311 4484   5.837   1.860   8.942  0.2729 -0.3664 -0.0933
   33POPC  H11X 4485   5.895   1.938   8.995 -0.0728 -0.0940 -0.1058
   33POPC  H11Y 4486   5.733   1.863   8.981 -0.8177  0.1473 -2.8125
   33POPC  C312 4487   5.848   1.882   8.789  1.1416 -0.0438 -0.3115
   33POPC  H12X 4488   5.807   1.790   8.743 -1.5806  0.1343  1.5435
   33POPC  H12Y 4489   5.958   1.894   8.781  0.8209  1.8745 -3.7332
   33POPC  C313 4490   5.771   2.006   8.742  0.6050  0.6479 -0.0284
   33POPC  H13X 4491   5.822   2.101   8.769  0.3034  0.3447  1.7231
   33POPC  H13Y 4492   5.669   2.005   8.787  0.8831  1.4970  0.6370
   33POPC  C314 4493   5.747   1.999   8.585  0.8439  0.7787 -0.8309
   33POPC  H14X 4494   5.703   1.899   8.565  0.3188  1.0559 -1.0924
   33POPC  H14Y 4495   5.839   1.984   8.525  0.8906 -0.3636 -0.5108
   33POPC  C315 4496   5.656   2.111   8.546 -0.1180 -0.6727 -0.3218
   33POPC  H15X 4497   5.707   2.206   8.569 -1.6651  0.1219 -0.0077
   33POPC  H15Y 4498   5.560   2.096   8.600 -1.1243 -1.0068 -2.1078
   33POPC  C316 4499   5.623   2.093   8.394 -0.1280  0.1405 -0.4685
   33POPC  H16X 4500   5.574   1.995   8.376 -1.0385  0.8328 -2.0520
   33POPC  H16Y 4501   5.709   2.098   8.325 -0.6238  2.1022 -1.0306
   33POPC  H16Z 4502   5.546   2.168   8.364 -0.0951  0.5909  0.5449
   34POPC     N 4503   4.915   1.619  10.828  0.7093  0.4896 -0.7806
   34POPC   C12 4504   4.838   1.602  10.693 -0.3325  0.0145  0.2086
   34POPC  H12A 4505   4.871   1.674  10.620 -1.0490 -1.6131 -1.8013
   34POPC  H12B 4506   4.736   1.622  10.722  0.3678 -1.0098  3.9900
   34POPC   C13 4507   5.056   1.629  10.798  0.3426  0.2568 -0.2168
   34POPC  H13A 4508   5.092   1.530  10.772 -0.8973 -0.8386  2.0015
   34POPC  H13B 4509   5.081   1.707  10.727 -0.2951  1.8296  1.2114
   34POPC  H13C 4510   5.116   1.650  10.886  2.1183 -0.8963 -1.0839
   34POPC   C14 4511   4.884   1.755  10.881  0.1703 -0.9786  0.1571
   34POPC  H14A 4512   4.916   1.829  10.808  0.0328  1.1478  2.1523
   34POPC  H14B 4513   4.781   1.769  10.909 -0.0159  0.8538 -1.1935
   34POPC  H14C 4514   4.941   1.787  10.967 -0.1850  2.2938 -0.6794
   34POPC   C15 4515   4.891   1.503  10.921  0.6976 -0.3308 -0.4990
   34POPC  H15A 4516   4.802   1.512  10.981  1.4859 -2.2990  1.0888
   34POPC  H15B 4517   4.970   1.492  10.994  1.7169  0.3848 -1.4630
   34POPC  H15C 4518   4.877   1.414  10.862 -1.3567  0.3450 -1.1110
   34POPC   C11 4519   4.853   1.455  10.622 -0.2233 -0.9649  0.3672
   34POPC  H11A 4520   4.959   1.427  10.610 -0.4785 -2.9108  2.1191
   34POPC  H11B 4521   4.813   1.471  10.520 -1.1772  2.8269  1.1476
   34POPC     P 4522   4.632   1.327  10.673 -0.0393  0.2137 -0.3744
   34POPC   O13 4523   4.550   1.452  10.668 -0.1351  0.2577 -0.1973
   34POPC   O14 4524   4.589   1.219  10.767 -0.2089  0.0526  0.8718
   34POPC   O12 4525   4.786   1.356  10.703 -0.1531  0.1687 -0.4895
   34POPC   O11 4526   4.651   1.263  10.527  0.3476  0.6622 -1.0794
   34POPC    C1 4527   4.755   1.209  10.453  0.7400  0.1228 -0.3529
   34POPC    HA 4528   4.738   1.101  10.435 -0.3006 -0.2048  2.1618
   34POPC    HB 4529   4.852   1.228  10.504  0.1718  1.4503  0.2898
   34POPC    C2 4530   4.765   1.273  10.314  0.9171 -0.4248  0.6815
   34POPC    HS 4531   4.790   1.381  10.315 -0.8179  0.0597 -1.1409
   34POPC   O21 4532   4.636   1.239  10.259  0.4313 -0.3061  0.5369
   34POPC   C21 4533   4.586   1.332  10.177 -0.4151 -0.3308 -0.0219
   34POPC   O22 4534   4.628   1.450  10.178 -0.2112  0.2231 -0.2059
   34POPC   C22 4535   4.458   1.273  10.113  0.3408 -0.1997 -0.1036
   34POPC   H2R 4536   4.374   1.303  10.178  0.7968  1.3839 -0.2049
   34POPC   H2S 4537   4.472   1.162  10.117 -3.5143 -0.8016  1.4289
   34POPC    C3 4538   4.885   1.215  10.233  0.0157 -0.5700 -0.6180
   34POPC    HX 4539   4.885   1.105  10.242 -1.2629 -0.4480  1.9966
   34POPC    HY 4540   4.975   1.258  10.282 -1.4459  2.2955 -0.2032
   34POPC   O31 4541   4.869   1.262  10.095  0.4395 -0.5833  0.0228
   34POPC   C31 4542   4.962   1.337  10.044 -0.4568  0.1608  0.2872
   34POPC   O32 4543   5.046   1.402  10.109 -0.0748  0.5683  0.2414
   34POPC   C32 4544   4.950   1.321   9.893  0.5881 -0.3825  0.0490
   34POPC   H2X 4545   4.848   1.358   9.867 -0.3171 -2.1137  0.9766
   34POPC   H2Y 4546   4.968   1.215   9.864 -2.6291 -0.2838 -3.0180
   34POPC   C23 4547   4.431   1.319   9.970 -0.4106 -0.4476 -0.2142
   34POPC   H3R 4548   4.450   1.428   9.960  3.5127 -0.9767  0.0240
   34POPC   H3S 4549   4.329   1.292   9.936 -0.0740 -2.9052  0.5700
   34POPC   C24 4550   4.519   1.239   9.871 -0.2573  0.1679  0.4123
   34POPC   H4R 4551   4.505   1.129   9.866  4.1383 -0.5413 -1.0156
   34POPC   H4S 4552   4.623   1.251   9.909 -0.8871  0.1277  2.2586
   34POPC   C25 4553   4.519   1.308   9.730  0.6523 -0.2196 -0.1250
   34POPC   H5R 4554   4.548   1.416   9.732 -2.5171  0.7222 -0.1996
   34POPC   H5S 4555   4.423   1.307   9.675  1.0810  3.1189 -1.1498
   34POPC   C26 4556   4.622   1.247   9.641  0.1888  0.2489  0.6989
   34POPC   H6R 4557   4.598   1.138   9.640  2.0733 -0.2181  0.9848
   34POPC   H6S 4558   4.723   1.258   9.687 -0.6249 -0.1636  2.6515
   34POPC   C27 4559   4.619   1.316   9.500 -0.1908  0.0663  1.2191
   34POPC   H7R 4560   4.678   1.409   9.516 -0.3053  0.4893 -0.6173
   34POPC   H7S 4561   4.520   1.349   9.464  0.2498 -0.8552 -1.0900
   34POPC   C28 4562   4.688   1.226   9.395 -0.3174 -0.3747  0.3891
   34POPC   H8R 4563   4.635   1.131   9.371  1.6533 -1.4958  0.1896
   34POPC   H8S 4564   4.789   1.192   9.429 -1.0544 -0.2070  2.9365
   34POPC   C29 4565   4.714   1.309   9.265  0.0400  0.4301 -0.1433
   34POPC   H91 4566   4.781   1.396   9.259  0.6141 -0.0797 -1.4030
   34POPC  C210 4567   4.677   1.264   9.148  0.2955 -0.4349  0.5052
   34POPC  H101 4568   4.693   1.334   9.065  1.2524  1.5927  2.3151
   34POPC  C211 4569   4.587   1.142   9.112  0.0875 -0.7328 -0.0150
   34POPC  H11R 4570   4.511   1.182   9.042 -0.5612  2.2188  2.1584
   34POPC  H11S 4571   4.523   1.098   9.192  0.2926  0.0721  0.6089
   34POPC  C212 4572   4.652   1.033   9.027 -0.5636 -0.4350  0.2975
   34POPC  H12R 4573   4.580   0.963   8.981 -0.5476 -1.1385  1.3064
   34POPC  H12S 4574   4.715   0.965   9.089  2.5720  0.7078 -1.3887
   34POPC  C213 4575   4.725   1.084   8.901 -0.1035 -0.6220 -0.9568
   34POPC  H13R 4576   4.816   1.145   8.917 -0.4656 -0.0359 -1.1235
   34POPC  H13S 4577   4.649   1.147   8.850  0.8100  1.0065 -0.3484
   34POPC  C214 4578   4.757   0.978   8.792 -0.3245  0.4444  0.3630
   34POPC  H14R 4579   4.661   0.922   8.785 -0.1616  0.2505 -0.3898
   34POPC  H14S 4580   4.833   0.903   8.821 -0.0000  1.0209  1.0393
   34POPC  C215 4581   4.801   1.035   8.653  0.4878 -0.2362  0.0284
   34POPC  H15R 4582   4.894   1.095   8.664 -1.0906  2.5578 -0.8293
   34POPC  H15S 4583   4.716   1.101   8.625  0.6612  0.1083  0.3125
   34POPC  C216 4584   4.805   0.921   8.555  0.5175  0.1385  0.7989
   34POPC  H16R 4585   4.703   0.877   8.564 -1.1537  3.4590 -0.2439
   34POPC  H16S 4586   4.884   0.853   8.592 -0.4569 -0.9010  1.0165
   34POPC  C217 4587   4.826   0.953   8.409  0.4147 -0.1279  0.3323
   34POPC  H17R 4588   4.745   1.019   8.372 -0.3064 -0.2364  1.6398
   34POPC  H17S 4589   4.817   0.862   8.346  2.3836  1.1259 -1.8875
   34POPC  C218 4590   4.955   1.019   8.371  0.1458 -0.0931  0.0014
   34POPC  H18R 4591   5.026   0.946   8.415 -1.7304 -1.4768  0.8420
   34POPC  H18S 4592   4.970   1.117   8.421  1.1495 -1.4049  2.4384
   34POPC  H18T 4593   4.968   1.038   8.262  2.6739  2.1097  0.5773
   34POPC   C33 4594   5.049   1.404   9.820  0.1277 -0.7036  0.3604
   34POPC   H3X 4595   5.152   1.364   9.828  0.7580  0.1294 -2.4344
   34POPC   H3Y 4596   5.058   1.509   9.854  3.0881 -0.8923  0.4254
   34POPC   C34 4597   5.026   1.405   9.667  0.1114  0.0742 -0.0851
   34POPC   H4X 4598   4.941   1.470   9.638 -0.1618  0.5147  1.5900
   34POPC   H4Y 4599   5.006   1.300   9.636  1.4841 -1.0848  2.5531
   34POPC   C35 4600   5.148   1.464   9.594  0.1905 -0.1450 -0.0471
   34POPC   H5X 4601   5.239   1.402   9.613  1.5865  1.8664  0.1657
   34POPC   H5Y 4602   5.156   1.563   9.643  1.2965 -0.6184  0.7921
   34POPC   C36 4603   5.122   1.482   9.449 -0.2947 -0.0745 -0.8248
   34POPC   H6X 4604   5.175   1.570   9.406 -0.0800  0.0553 -0.3045
   34POPC   H6Y 4605   5.015   1.510   9.435 -0.0447  1.4007 -0.0138
   34POPC   C37 4606   5.147   1.348   9.376  0.3683 -0.3462 -0.4998
   34POPC   H7X 4607   5.084   1.271   9.424  0.0835 -0.7149 -1.4341
   34POPC   H7Y 4608   5.253   1.318   9.381  1.1291  1.9309 -1.3617
   34POPC   C38 4609   5.101   1.353   9.226 -0.8035  0.1953  0.3206
   34POPC   H8X 4610   5.004   1.408   9.221 -0.8032  0.2115  0.4832
   34POPC   H8Y 4611   5.088   1.250   9.189 -0.6623  0.9665 -2.0221
   34POPC   C39 4612   5.200   1.425   9.133 -0.7172  0.2590 -0.7920
   34POPC   H9X 4613   5.284   1.354   9.122 -1.6378 -0.6574 -2.2281
   34POPC   H9Y 4614   5.239   1.524   9.165  0.1165 -0.2346 -0.2439
   34POPC  C310 4615   5.153   1.439   8.990  0.1977 -0.0287 -0.3788
   34POPC  H10X 4616   5.116   1.340   8.954  0.4062 -1.2857  2.5820
   34POPC  H10Y 4617   5.241   1.454   8.923  1.8261 -1.3354  1.3656
   34POPC  C311 4618   5.043   1.546   8.983 -1.0028 -0.2632  0.4531
   34POPC  H11X 4619   5.093   1.642   9.006 -1.6354 -0.1794  1.5818
   34POPC  H11Y 4620   4.969   1.513   9.059 -0.4865  1.4019  1.7192
   34POPC  C312 4621   4.977   1.564   8.841  0.3320  0.2105 -0.8837
   34POPC  H12X 4622   4.890   1.633   8.853  1.0334  0.7584  1.4943
   34POPC  H12Y 4623   4.941   1.466   8.804  2.8196 -1.8199  1.7145
   34POPC  C313 4624   5.071   1.628   8.746 -0.0238  0.3103  0.1164
   34POPC  H13X 4625   5.168   1.575   8.740 -0.3611 -0.2892 -0.1107
   34POPC  H13Y 4626   5.095   1.725   8.796 -0.8502 -0.0554  1.2648
   34POPC  C314 4627   5.021   1.638   8.601  0.5873  0.1773  0.8829
   34POPC  H14X 4628   5.084   1.709   8.545  1.1307 -0.4655  0.6721
   34POPC  H14Y 4629   4.918   1.680   8.598  0.7089  0.4315 -0.7607
   34POPC  C315 4630   5.011   1.500   8.530 -0.8369  0.1117 -0.0207
   34POPC  H15X 4631   4.935   1.441   8.585 -1.5590  2.1269  1.2432
   34POPC  H15Y 4632   5.105   1.451   8.562 -0.3595  0.4365 -0.8617
   34POPC  C316 4633   4.994   1.492   8.380 -0.1924  0.1774  0.1288
   34POPC  H16X 4634   5.074   1.559   8.343 -1.9629  2.1964 -0.2363
   34POPC  H16Y 4635   4.896   1.533   8.346 -0.6685 -0.7332  0.3627
   34POPC  H16Z 4636   5.013   1.391   8.337 -0.5285  0.2696 -0.2468
   35POPC     N 4637   1.091   6.530  10.872  0.3363 -0.3158 -0.5437
   35POPC   C12 4638   1.120   6.437  10.990 -0.3732  0.0629  0.0368
   35POPC  H12A 4639   1.124   6.503  11.075  0.3240 -0.2364  0.2481
   35POPC  H12B 4640   1.217   6.393  10.971 -0.2401  0.7663 -0.9775
   35POPC   C13 4641   1.192   6.643  10.883  0.6286  0.1149 -0.3363
   35POPC  H13A 4642   1.193   6.678  10.781 -0.9540 -0.9503 -0.7610
   35POPC  H13B 4643   1.153   6.715  10.954 -1.8133 -0.8467 -0.6051
   35POPC  H13C 4644   1.288   6.607  10.918  1.0224  0.3885 -1.1261
   35POPC   C14 4645   1.108   6.457  10.746 -0.4493 -0.1598  0.2002
   35POPC  H14A 4646   1.102   6.524  10.662  0.8597 -1.3629 -0.9193
   35POPC  H14B 4647   1.202   6.406  10.729 -0.5815  0.3039 -2.2920
   35POPC  H14C 4648   1.040   6.373  10.742  1.0460 -1.6654  2.8506
   35POPC   C15 4649   0.953   6.594  10.879  0.3602  0.0111 -0.1653
   35POPC  H15A 4650   0.950   6.659  10.965 -1.5964 -0.5214  0.2252
   35POPC  H15B 4651   0.874   6.524  10.902 -0.9711  1.6188  0.3401
   35POPC  H15C 4652   0.930   6.649  10.789 -0.8558  1.0292  0.7318
   35POPC   C11 4653   1.025   6.323  11.015  0.0987  0.3649 -0.3914
   35POPC  H11A 4654   0.920   6.355  11.029 -0.7789 -2.0271 -1.0944
   35POPC  H11B 4655   1.055   6.270  11.108 -0.5645  0.8024  0.0730
   35POPC     P 4656   0.957   6.095  10.922  0.1491  0.1152  0.0408
   35POPC   O13 4657   0.828   6.113  11.000  0.1704  0.7316 -0.6022
   35POPC   O14 4658   1.054   6.005  10.985  0.1594  0.0724 -0.0728
   35POPC   O12 4659   1.031   6.230  10.910 -0.2573 -0.4162  0.3489
   35POPC   O11 4660   0.934   6.061  10.768  0.8015 -0.3065 -0.5269
   35POPC    C1 4661   0.987   6.146  10.664 -0.3774 -0.2815 -0.0428
   35POPC    HA 4662   1.092   6.172  10.689  0.7204 -3.0966 -1.2490
   35POPC    HB 4663   0.930   6.241  10.659  1.6484  1.0445  0.9379
   35POPC    C2 4664   0.981   6.069  10.529 -0.0767 -0.8315  0.7517
   35POPC    HS 4665   1.001   6.151  10.457  0.3892 -1.2548  0.3966
   35POPC   O21 4666   0.863   5.996  10.500 -0.1853 -0.6371 -0.2527
   35POPC   C21 4667   0.746   6.061  10.504  0.3141  0.0042 -0.0009
   35POPC   O22 4668   0.737   6.182  10.510 -0.9058  0.3711 -0.2578
   35POPC   C22 4669   0.631   5.959  10.485 -0.2098 -1.3658  0.1958
   35POPC   H2R 4670   0.563   5.965  10.572  0.3294  1.1527  0.5158
   35POPC   H2S 4671   0.673   5.857  10.473  0.8434 -0.9515  0.3010
   35POPC    C3 4672   1.097   5.964  10.522  0.9494 -0.5956  0.1463
   35POPC    HX 4673   1.088   5.894  10.607 -2.3479 -2.2704 -1.3821
   35POPC    HY 4674   1.185   6.027  10.547 -1.1639  3.0465 -0.8385
   35POPC   O31 4675   1.103   5.890  10.403 -0.8166  0.4882 -0.4221
   35POPC   C31 4676   1.160   5.940  10.296  0.2156 -0.2788  0.2167
   35POPC   O32 4677   1.202   6.053  10.278 -0.1474 -0.1307  0.3988
   35POPC   C32 4678   1.164   5.822  10.194 -0.5876  0.0030 -0.8998
   35POPC   H2X 4679   1.061   5.781  10.185  0.0112 -2.3219  1.5087
   35POPC   H2Y 4680   1.221   5.740  10.244 -0.7168 -0.1967 -1.0734
   35POPC   C23 4681   0.541   5.985  10.356 -0.1280 -0.7893 -0.0931
   35POPC   H3R 4682   0.519   6.094  10.353 -0.0406 -0.7566  0.4374
   35POPC   H3S 4683   0.444   5.933  10.371 -0.2507 -0.9961 -1.4859
   35POPC   C24 4684   0.591   5.946  10.220  0.0812  0.0414  0.6957
   35POPC   H4R 4685   0.508   5.954  10.146  0.6273  0.9070  0.1674
   35POPC   H4S 4686   0.613   5.837  10.220 -0.4227 -0.1343 -2.2235
   35POPC   C25 4687   0.722   6.023  10.172  0.0512  0.7736 -0.6649
   35POPC   H5R 4688   0.805   6.014  10.246 -0.2454 -1.4897 -0.5478
   35POPC   H5S 4689   0.712   6.134  10.163  2.5874  1.3589  1.9894
   35POPC   C26 4690   0.776   5.973  10.044  0.0888  0.4858  0.7987
   35POPC   H6R 4691   0.796   5.864  10.053  0.9695  0.6819  1.3591
   35POPC   H6S 4692   0.868   6.033  10.027 -0.8446  1.2706 -2.0115
   35POPC   C27 4693   0.692   6.003   9.917 -0.4546 -0.8022  0.4419
   35POPC   H7R 4694   0.648   6.105   9.919  0.1783 -0.3762 -2.6250
   35POPC   H7S 4695   0.606   5.934   9.913 -0.4996 -1.2053  4.1329
   35POPC   C28 4696   0.769   5.987   9.781  0.4402  0.0933  0.5012
   35POPC   H8R 4697   0.691   5.993   9.703  1.3708  6.1472 -0.3928
   35POPC   H8S 4698   0.826   5.891   9.786  2.7857  1.3218 -1.1556
   35POPC   C29 4699   0.875   6.092   9.754  0.3528 -0.5501  0.0639
   35POPC   H91 4700   0.940   6.117   9.840 -2.9136  1.0215  2.2928
   35POPC  C210 4701   0.911   6.134   9.633  0.8024  0.3974 -0.0947
   35POPC  H101 4702   0.992   6.209   9.629  1.2653 -0.1514 -2.2042
   35POPC  C211 4703   0.865   6.090   9.500 -0.4235  0.2417  0.3577
   35POPC  H11R 4704   0.871   6.175   9.428  3.1134 -0.6113 -0.5463
   35POPC  H11S 4705   0.758   6.061   9.504 -1.1727  2.6665 -0.4937
   35POPC  C212 4706   0.955   5.972   9.448  0.8510  0.8278 -0.4196
   35POPC  H12R 4707   0.929   5.881   9.507 -1.2785  1.4664 -0.2702
   35POPC  H12S 4708   1.061   6.000   9.462  1.2315  0.2908 -2.0157
   35POPC  C213 4709   0.912   5.947   9.303  0.0509 -0.2184 -0.1113
   35POPC  H13R 4710   0.802   5.962   9.306 -0.0966 -1.3282  2.3029
   35POPC  H13S 4711   0.924   5.842   9.269 -2.5801 -1.0425  1.2500
   35POPC  C214 4712   0.985   6.025   9.197 -0.2127 -1.1268 -0.0296
   35POPC  H14R 4713   1.092   6.003   9.181  0.2794 -0.2415  1.8019
   35POPC  H14S 4714   0.978   6.130   9.233  0.4908 -1.3066  0.6659
   35POPC  C215 4715   0.932   6.002   9.054  0.0485 -0.1187  0.0947
   35POPC  H15R 4716   0.832   6.049   9.038 -1.3483 -2.7887  0.3050
   35POPC  H15S 4717   0.912   5.893   9.063 -0.4269 -0.1856 -1.4568
   35POPC  C216 4718   1.035   6.038   8.942  0.2765 -0.1410  0.1378
   35POPC  H16R 4719   0.990   6.011   8.844  1.1012 -3.4607  0.5566
   35POPC  H16S 4720   1.116   5.964   8.958  1.2966  0.8382 -0.3290
   35POPC  C217 4721   1.091   6.176   8.930 -0.4828  0.5481 -0.1498
   35POPC  H17R 4722   1.117   6.201   9.035  0.8198 -1.7384  0.1520
   35POPC  H17S 4723   1.030   6.253   8.879  1.3788  1.9877 -0.3313
   35POPC  C218 4724   1.234   6.183   8.867 -0.6960 -0.6384 -0.2126
   35POPC  H18R 4725   1.213   6.155   8.762  0.3031 -1.5511 -0.1768
   35POPC  H18S 4726   1.303   6.106   8.906 -0.6344  0.3060  1.6716
   35POPC  H18T 4727   1.281   6.283   8.872  0.1129 -0.7766 -3.1648
   35POPC   C33 4728   1.220   5.848  10.054 -1.0528  0.0482  0.2942
   35POPC   H3X 4729   1.326   5.881  10.049 -1.3476  1.1606  1.0187
   35POPC   H3Y 4730   1.152   5.926  10.013 -1.5413  1.6713  3.8820
   35POPC   C34 4731   1.212   5.726   9.965 -0.5172  1.0149  0.2280
   35POPC   H4X 4732   1.137   5.654  10.005  0.1478  0.0582 -0.1864
   35POPC   H4Y 4733   1.307   5.667   9.970 -1.0928 -0.2329 -2.0207
   35POPC   C35 4734   1.201   5.756   9.820 -0.3975  0.0859 -0.3547
   35POPC   H5X 4735   1.294   5.803   9.779 -1.2934  1.5059 -0.8355
   35POPC   H5Y 4736   1.113   5.821   9.805 -2.7397 -2.8597 -0.2195
   35POPC   C36 4737   1.167   5.637   9.732  0.4817 -0.1052 -0.1081
   35POPC   H6X 4738   1.073   5.588   9.764  0.5194  0.1834  0.4515
   35POPC   H6Y 4739   1.250   5.568   9.760  1.0272  0.5867  0.0063
   35POPC   C37 4740   1.177   5.663   9.585 -0.3886  0.4015 -0.1046
   35POPC   H7X 4741   1.269   5.723   9.567  0.1040 -0.7079 -1.4566
   35POPC   H7Y 4742   1.093   5.729   9.553  0.1221  0.2582 -1.8324
   35POPC   C38 4743   1.159   5.538   9.506 -0.2794  0.1734 -0.1225
   35POPC   H8X 4744   1.063   5.487   9.532 -0.8688  0.6231 -1.3375
   35POPC   H8Y 4745   1.229   5.458   9.539  1.3657  0.3833 -2.8531
   35POPC   C39 4746   1.168   5.557   9.353  0.1472 -0.1579  1.0849
   35POPC   H9X 4747   1.266   5.605   9.333 -0.4676  0.0505 -1.9736
   35POPC   H9Y 4748   1.091   5.633   9.329  0.1033 -0.4478  0.2788
   35POPC  C310 4749   1.137   5.425   9.278  0.4629  0.7371  0.7041
   35POPC  H10X 4750   1.046   5.378   9.322  0.8862 -0.7870  0.0424
   35POPC  H10Y 4751   1.215   5.347   9.287 -0.1840 -0.3732 -2.1004
   35POPC  C311 4752   1.136   5.442   9.125 -0.0977  0.2195 -0.2313
   35POPC  H11X 4753   1.057   5.509   9.087  0.2160 -0.6642 -2.6377
   35POPC  H11Y 4754   1.092   5.349   9.083  0.9971 -0.3136 -0.2341
   35POPC  C312 4755   1.277   5.455   9.074  0.5255  0.0137  0.8423
   35POPC  H12X 4756   1.295   5.402   8.979  0.8652  1.0526  0.3085
   35POPC  H12Y 4757   1.347   5.397   9.137  2.2870  0.0869 -0.9626
   35POPC  C313 4758   1.329   5.604   9.064 -0.0166  0.6048 -0.0512
   35POPC  H13X 4759   1.423   5.594   9.005 -0.2084 -1.3001 -0.0730
   35POPC  H13Y 4760   1.365   5.640   9.162 -0.2914 -0.4229  0.4379
   35POPC  C314 4761   1.235   5.712   9.002  0.7476  0.2812  0.2759
   35POPC  H14X 4762   1.293   5.807   9.005  3.7295 -1.4030  0.0724
   35POPC  H14Y 4763   1.145   5.728   9.065  0.2506  1.0201 -0.5924
   35POPC  C315 4764   1.190   5.686   8.857 -0.4363 -0.0881  0.4896
   35POPC  H15X 4765   1.145   5.779   8.817  2.4585  0.7545 -1.0738
   35POPC  H15Y 4766   1.110   5.610   8.840  0.6888 -0.6431 -3.1533
   35POPC  C316 4767   1.299   5.639   8.764 -0.0387 -0.0096  0.5939
   35POPC  H16X 4768   1.352   5.550   8.804  0.9853 -0.1436 -1.0078
   35POPC  H16Y 4769   1.381   5.711   8.744 -0.4757  0.7228  1.3726
   35POPC  H16Z 4770   1.252   5.599   8.672 -0.1302  1.5065 -0.0448
   36POPC     N 4771   2.018   4.274  11.289  0.1384  0.2816 -0.4088
   36POPC   C12 4772   1.926   4.323  11.180  0.4187  0.6031 -0.7449
   36POPC  H12A 4773   1.885   4.419  11.208 -0.9367 -0.0911 -0.2156
   36POPC  H12B 4774   1.840   4.258  11.175  0.0710  0.6993  2.0372
   36POPC   C13 4775   1.943   4.265  11.419 -0.4785 -0.6028  0.3245
   36POPC  H13A 4776   2.023   4.246  11.490 -0.4284 -1.1064  0.1360
   36POPC  H13B 4777   1.902   4.362  11.441 -1.1788 -0.7790 -0.1726
   36POPC  H13C 4778   1.868   4.187  11.424  0.3867 -1.6587 -1.9759
   36POPC   C14 4779   2.067   4.136  11.254  0.0216 -0.0915 -0.0518
   36POPC  H14A 4780   2.077   4.135  11.146  0.4629  1.3270 -0.0520
   36POPC  H14B 4781   2.157   4.096  11.297  0.0926  0.6145  0.4725
   36POPC  H14C 4782   1.981   4.080  11.287 -0.1198  0.5539  0.6985
   36POPC   C15 4783   2.131   4.359  11.305 -0.1926  0.4122  0.2539
   36POPC  H15A 4784   2.107   4.463  11.321  2.5129  1.6274 -2.6327
   36POPC  H15B 4785   2.177   4.376  11.208  0.3168  2.4085  0.7892
   36POPC  H15C 4786   2.201   4.314  11.373 -0.1879 -2.5850 -1.5671
   36POPC   C11 4787   1.974   4.331  11.033 -0.1209 -0.0572  0.7420
   36POPC  H11A 4788   1.894   4.367  10.963 -0.0707 -0.5635  0.4223
   36POPC  H11B 4789   1.992   4.228  10.995  1.0596  0.7971 -1.1966
   36POPC     P 4790   2.096   4.565  10.986 -0.1371  0.1454  0.1874
   36POPC   O13 4791   2.216   4.615  11.048 -0.2208  0.1235 -1.0157
   36POPC   O14 4792   1.974   4.640  11.029  0.0699  0.0408 -0.1703
   36POPC   O12 4793   2.093   4.409  11.017  0.9345  1.1804 -0.0553
   36POPC   O11 4794   2.114   4.572  10.835 -0.4114  0.4641 -0.0820
   36POPC    C1 4795   2.032   4.514  10.730  0.4490  0.3722  0.3904
   36POPC    HA 4796   2.001   4.589  10.654  1.6751  0.4029 -0.0964
   36POPC    HB 4797   1.936   4.473  10.768 -1.7767  2.6228 -2.3410
   36POPC    C2 4798   2.107   4.395  10.658 -1.4588  0.0185 -0.7894
   36POPC    HS 4799   2.122   4.315  10.734 -0.1817  0.1466 -0.8861
   36POPC   O21 4800   2.234   4.446  10.610  0.8445  0.2866  0.5463
   36POPC   C21 4801   2.321   4.357  10.573  0.2262  0.3056  0.3371
   36POPC   O22 4802   2.321   4.239  10.580 -0.2531 -1.0226  0.3110
   36POPC   C22 4803   2.428   4.430  10.494  0.1914 -0.8270  0.1635
   36POPC   H2R 4804   2.507   4.355  10.474  1.2711 -0.0782  1.4833
   36POPC   H2S 4805   2.470   4.511  10.555  0.2621 -0.0601 -0.8744
   36POPC    C3 4806   2.032   4.348  10.533  0.7402 -0.5968 -0.4111
   36POPC    HX 4807   1.936   4.296  10.557 -0.6349  0.2134 -3.6285
   36POPC    HY 4808   2.084   4.262  10.486  0.5272 -2.3890  2.3929
   36POPC   O31 4809   2.005   4.462  10.451  0.5497 -0.4930 -0.3875
   36POPC   C31 4810   1.939   4.430  10.340  0.0656  0.1945 -0.3346
   36POPC   O32 4811   1.898   4.314  10.320  0.1599 -0.1874  0.5938
   36POPC   C32 4812   1.950   4.550  10.256 -0.2341 -0.1228  0.1490
   36POPC   H2X 4813   2.056   4.548  10.223 -0.4638  0.3096 -0.6480
   36POPC   H2Y 4814   1.938   4.646  10.311 -0.0366 -0.3242  0.5475
   36POPC   C23 4815   2.373   4.489  10.356 -0.1352 -0.0234 -0.4124
   36POPC   H3R 4816   2.460   4.521  10.294  0.4488 -3.1506 -1.3998
   36POPC   H3S 4817   2.308   4.575  10.382 -2.0723 -1.8490  1.1505
   36POPC   C24 4818   2.305   4.393  10.262  0.2339  0.3550  0.3497
   36POPC   H4R 4819   2.201   4.379  10.297 -0.4496  1.3813 -1.1763
   36POPC   H4S 4820   2.354   4.293  10.264 -3.2126 -1.4593  1.5628
   36POPC   C25 4821   2.301   4.431  10.113  0.3352  0.0206 -0.5221
   36POPC   H5R 4822   2.400   4.474  10.089  0.5245 -0.3877 -0.4659
   36POPC   H5S 4823   2.228   4.513  10.095 -0.5847 -0.4228  0.9928
   36POPC   C26 4824   2.259   4.313  10.024 -0.2330  0.1873  0.7696
   36POPC   H6R 4825   2.341   4.239  10.032 -1.7329 -1.6023  0.4681
   36POPC   H6S 4826   2.249   4.337   9.916 -1.0831  1.0206  1.0196
   36POPC   C27 4827   2.119   4.251  10.060 -0.8485 -0.2921  0.0283
   36POPC   H7R 4828   2.063   4.339  10.099 -0.5396  0.0297 -0.2508
   36POPC   H7S 4829   2.139   4.177  10.141 -0.2381 -1.1171 -0.8424
   36POPC   C28 4830   2.051   4.180   9.944 -0.7079  0.6144  0.1170
   36POPC   H8R 4831   2.103   4.087   9.912  0.5189  1.8278 -1.6287
   36POPC   H8S 4832   2.069   4.245   9.856 -0.1753 -1.1343 -1.1255
   36POPC   C29 4833   1.906   4.139   9.969 -0.2492 -0.4401  0.2941
   36POPC   H91 4834   1.883   4.096  10.068 -1.5312  1.6932  0.9728
   36POPC  C210 4835   1.808   4.177   9.889  0.6879 -0.0140  0.5292
   36POPC  H101 4836   1.706   4.149   9.921  0.7021  0.4302  0.9782
   36POPC  C211 4837   1.820   4.257   9.755 -0.0054  0.1985 -0.5737
   36POPC  H11R 4838   1.922   4.298   9.739 -0.1734  0.7906 -0.1957
   36POPC  H11S 4839   1.743   4.337   9.749  0.3116  0.4388 -1.6128
   36POPC  C212 4840   1.781   4.174   9.636  0.1702  0.4390 -0.4001
   36POPC  H12R 4841   1.671   4.176   9.621  0.0981 -1.0087 -0.2482
   36POPC  H12S 4842   1.814   4.069   9.652 -0.6105  0.3463  0.7062
   36POPC  C213 4843   1.838   4.229   9.505 -0.5279 -0.2371  0.3481
   36POPC  H13R 4844   1.947   4.213   9.521 -0.3162  0.6081 -0.1580
   36POPC  H13S 4845   1.801   4.334   9.509  1.5961  0.5779  0.2226
   36POPC  C214 4846   1.805   4.150   9.380  0.1518  0.0334  0.7273
   36POPC  H14R 4847   1.697   4.157   9.357  0.0718 -0.5335  0.9139
   36POPC  H14S 4848   1.826   4.041   9.387  0.3664 -0.0327 -0.5897
   36POPC  C215 4849   1.894   4.185   9.256  0.1178 -0.5225 -0.5924
   36POPC  H15R 4850   1.900   4.106   9.179 -0.2125 -3.6528  2.3345
   36POPC  H15S 4851   1.998   4.201   9.294  0.1245 -1.9872  0.0533
   36POPC  C216 4852   1.852   4.318   9.192  0.5986 -0.5240 -0.3422
   36POPC  H16R 4853   1.861   4.401   9.266 -1.9930  1.2680 -1.8615
   36POPC  H16S 4854   1.745   4.300   9.165  0.6835 -1.0432 -0.3489
   36POPC  C217 4855   1.925   4.358   9.073 -0.4317  0.0638 -0.5006
   36POPC  H17R 4856   1.885   4.292   8.993 -0.3814 -0.6403  0.0442
   36POPC  H17S 4857   2.036   4.351   9.072 -0.4947 -1.5098  0.6001
   36POPC  C218 4858   1.880   4.487   9.021 -0.1533  0.1363  0.1017
   36POPC  H18R 4859   1.915   4.568   9.088  0.5508  0.1278 -0.2396
   36POPC  H18S 4860   1.770   4.497   9.024 -0.1711  0.3190 -0.7315
   36POPC  H18T 4861   1.915   4.517   8.919  0.8718 -1.0987  0.0669
   36POPC   C33 4862   1.844   4.561  10.147 -0.7256  0.2354  0.2712
   36POPC   H3X 4863   1.750   4.608  10.182 -0.7431 -0.0218  0.5732
   36POPC   H3Y 4864   1.824   4.458  10.110  1.7715 -0.3929  0.4716
   36POPC   C34 4865   1.917   4.641  10.034 -0.1160 -0.1488  0.4032
   36POPC   H4X 4866   2.008   4.579  10.017 -0.4174 -0.6276  0.5029
   36POPC   H4Y 4867   1.949   4.741  10.070  0.7084 -0.4543  0.5490
   36POPC   C35 4868   1.845   4.631   9.889 -0.1038  0.2587 -0.1150
   36POPC   H5X 4869   1.743   4.675   9.897  0.4062  1.3763  0.5494
   36POPC   H5Y 4870   1.843   4.524   9.861  1.1554 -0.7423  3.1626
   36POPC   C36 4871   1.927   4.693   9.770 -0.3937  0.3341 -0.5584
   36POPC   H6X 4872   2.023   4.638   9.766  1.5708  3.5292 -1.4327
   36POPC   H6Y 4873   1.941   4.801   9.793 -1.7449  0.2713  0.6863
   36POPC   C37 4874   1.852   4.675   9.641  0.4711  0.0056 -0.4112
   36POPC   H7X 4875   1.753   4.725   9.642  0.8209  0.6982  0.7226
   36POPC   H7Y 4876   1.820   4.569   9.628  0.4694 -0.0181 -0.2176
   36POPC   C38 4877   1.933   4.705   9.524 -0.9206  0.1520 -0.0590
   36POPC   H8X 4878   2.010   4.626   9.521  0.3921  1.3276 -3.7629
   36POPC   H8Y 4879   1.983   4.804   9.528  0.2659 -0.3793 -1.0035
   36POPC   C39 4880   1.862   4.696   9.389 -0.1780  0.3064  0.4913
   36POPC   H9X 4881   1.835   4.592   9.361 -1.9726  1.3169 -1.8463
   36POPC   H9Y 4882   1.943   4.730   9.320  1.5017 -1.1721  1.6367
   36POPC  C310 4883   1.738   4.795   9.375 -0.1695  0.2024 -0.0105
   36POPC  H10X 4884   1.772   4.901   9.376 -0.3433  0.2582 -0.0032
   36POPC  H10Y 4885   1.659   4.770   9.449 -1.1740  0.4032 -1.0062
   36POPC  C311 4886   1.679   4.784   9.233  0.3330 -1.0847  0.2319
   36POPC  H11X 4887   1.619   4.693   9.215 -1.1638  0.3158 -2.5637
   36POPC  H11Y 4888   1.767   4.771   9.166  1.6493  3.0683  0.8401
   36POPC  C312 4889   1.620   4.916   9.189  0.3587 -0.6933  0.7670
   36POPC  H12X 4890   1.568   4.909   9.091 -0.0830  1.1230  0.8252
   36POPC  H12Y 4891   1.702   4.989   9.176 -1.3876  0.9468 -2.0309
   36POPC  C313 4892   1.525   4.993   9.285 -0.0175 -0.4265 -0.5147
   36POPC  H13X 4893   1.516   5.102   9.267  1.5608 -0.4672 -1.7944
   36POPC  H13Y 4894   1.573   4.983   9.385  0.6879 -0.2905 -0.8289
   36POPC  C314 4895   1.383   4.932   9.296  0.4004 -0.5843  0.7149
   36POPC  H14X 4896   1.394   4.829   9.337  0.1743 -0.2735  1.5811
   36POPC  H14Y 4897   1.342   4.917   9.194  1.7706 -0.4804  0.1277
   36POPC  C315 4898   1.283   5.015   9.383  0.1031 -0.0864  0.1112
   36POPC  H15X 4899   1.186   4.964   9.370 -1.8476  3.3108  0.1207
   36POPC  H15Y 4900   1.262   5.115   9.340  0.0131 -0.3619 -0.4895
   36POPC  C316 4901   1.323   5.033   9.528 -1.0570 -0.0600 -0.5293
   36POPC  H16X 4902   1.241   5.065   9.595 -0.4289 -0.5213  0.4828
   36POPC  H16Y 4903   1.408   5.099   9.554 -1.0121 -0.8553  1.4896
   36POPC  H16Z 4904   1.355   4.934   9.567 -1.9773  0.7090  2.4246
   37POPC     N 4905   3.564   6.685   6.196 -0.0790  0.3309 -0.2504
   37POPC   C12 4906   3.443   6.700   6.282 -0.5099  0.4196  0.4823
   37POPC  H12A 4907   3.369   6.636   6.237  1.2318 -1.0647 -0.3657
   37POPC  H12B 4908   3.410   6.803   6.272  0.0367  0.4959 -0.6186
   37POPC   C13 4909   3.689   6.751   6.240 -0.0674  0.4319 -0.5150
   37POPC  H13A 4910   3.688   6.858   6.248  0.7623  0.3430  1.2896
   37POPC  H13B 4911   3.718   6.706   6.334  2.2839 -1.6229 -2.0803
   37POPC  H13C 4912   3.773   6.738   6.173 -0.0473  1.1535 -0.6305
   37POPC   C14 4913   3.599   6.542   6.194 -0.4426  0.8754  0.2421
   37POPC  H14A 4914   3.524   6.481   6.146  1.7867 -1.6346 -0.2918
   37POPC  H14B 4915   3.682   6.520   6.129  0.0447 -2.1448  1.7053
   37POPC  H14C 4916   3.623   6.496   6.289 -1.9659 -0.9268 -0.1987
   37POPC   C15 4917   3.527   6.732   6.053 -0.2833  0.2788  0.1809
   37POPC  H15A 4918   3.508   6.838   6.063  2.0144  0.6152  1.8240
   37POPC  H15B 4919   3.443   6.679   6.009  1.2451 -1.6654 -0.5609
   37POPC  H15C 4920   3.610   6.719   5.985  2.5967  0.5765  3.3851
   37POPC   C11 4921   3.456   6.667   6.433  0.2092  0.5341 -0.5179
   37POPC  H11A 4922   3.374   6.705   6.497 -1.4067 -1.8043 -1.0904
   37POPC  H11B 4923   3.550   6.715   6.468  0.1813  0.0720  0.2087
   37POPC     P 4924   3.366   6.412   6.444 -0.1166 -0.2630 -0.1674
   37POPC   O13 4925   3.437   6.297   6.508  0.4758 -0.1136  0.0574
   37POPC   O14 4926   3.311   6.402   6.307  0.9967 -0.2691  0.5020
   37POPC   O12 4927   3.470   6.522   6.454 -0.2481  0.0081  0.6092
   37POPC   O11 4928   3.256   6.479   6.539  0.2973  0.0452  0.2384
   37POPC    C1 4929   3.289   6.506   6.674  1.2005  0.0940 -0.1342
   37POPC    HA 4930   3.217   6.584   6.708 -0.5985 -0.7944 -1.7173
   37POPC    HB 4931   3.386   6.558   6.685  0.5765  1.2895 -0.0467
   37POPC    C2 4932   3.265   6.382   6.770 -0.0193 -0.2657 -0.3076
   37POPC    HS 4933   3.335   6.308   6.726 -0.3443 -0.6334 -0.2070
   37POPC   O21 4934   3.127   6.343   6.759  0.2116 -0.2327 -0.1246
   37POPC   C21 4935   3.120   6.213   6.742  0.1828 -0.3893  0.0609
   37POPC   O22 4936   3.208   6.133   6.760  0.4284 -0.0923  0.3673
   37POPC   C22 4937   2.980   6.181   6.708  0.9279  0.1722 -0.2423
   37POPC   H2R 4938   2.964   6.071   6.695 -0.5603  0.4024 -0.5246
   37POPC   H2S 4939   2.960   6.229   6.610  1.0427 -1.2311 -0.9942
   37POPC    C3 4940   3.308   6.423   6.919 -0.1098  0.3165  0.1249
   37POPC    HX 4941   3.285   6.329   6.973 -0.0315  0.1402 -0.1485
   37POPC    HY 4942   3.240   6.505   6.952 -0.7918  0.2344 -1.0391
   37POPC   O31 4943   3.448   6.460   6.934  0.2491 -0.1855 -0.6274
   37POPC   C31 4944   3.525   6.353   6.949 -0.0656  0.0072 -0.2252
   37POPC   O32 4945   3.495   6.238   6.931 -0.5900  0.1733  0.2714
   37POPC   C32 4946   3.663   6.394   7.001  0.2324  0.0690  0.2841
   37POPC   H2X 4947   3.737   6.388   6.919  0.0208 -1.2708  0.1549
   37POPC   H2Y 4948   3.683   6.323   7.084 -0.1377  0.7214  0.9398
   37POPC   C23 4949   2.878   6.213   6.818  0.0758  0.5843 -0.3438
   37POPC   H3R 4950   2.778   6.204   6.770 -0.3688  0.0675  0.6609
   37POPC   H3S 4951   2.895   6.317   6.851  0.6652  0.5508 -0.5274
   37POPC   C24 4952   2.892   6.127   6.943  0.2731 -0.1149  0.0888
   37POPC   H4R 4953   2.993   6.142   6.987  1.0377  1.0301 -1.9385
   37POPC   H4S 4954   2.899   6.020   6.913 -0.5808 -0.8119  2.1411
   37POPC   C25 4955   2.777   6.150   7.039  0.6903 -0.3488 -0.0723
   37POPC   H5R 4956   2.719   6.055   7.035  0.2058 -0.0267 -0.7066
   37POPC   H5S 4957   2.709   6.226   6.995  1.7258  0.8382  0.3174
   37POPC   C26 4958   2.812   6.177   7.185 -0.3417  0.3433 -0.1008
   37POPC   H6R 4959   2.868   6.273   7.189 -2.6225  1.7723 -0.3609
   37POPC   H6S 4960   2.878   6.093   7.216 -1.0175 -0.0114  0.3919
   37POPC   C27 4961   2.681   6.186   7.268  0.3919  0.4298 -0.5240
   37POPC   H7R 4962   2.625   6.094   7.238 -1.0821  1.1978 -0.2573
   37POPC   H7S 4963   2.634   6.274   7.219  1.0398  0.8020 -0.4814
   37POPC   C28 4964   2.715   6.196   7.420  0.3016  0.2047  0.2094
   37POPC   H8R 4965   2.788   6.115   7.444  0.6050 -0.1780 -1.8234
   37POPC   H8S 4966   2.622   6.177   7.477  0.4256  0.1013  0.3818
   37POPC   C29 4967   2.752   6.332   7.471  0.7117  0.1246 -0.5453
   37POPC   H91 4968   2.724   6.414   7.403 -1.7966  1.0549  1.4405
   37POPC  C210 4969   2.823   6.364   7.582 -0.2989  0.3940 -0.7744
   37POPC  H101 4970   2.840   6.471   7.603 -2.0247  0.8524 -1.5445
   37POPC  C211 4971   2.877   6.263   7.682 -0.1370 -0.5605  0.9012
   37POPC  H11R 4972   2.896   6.165   7.634  0.3123 -0.8078  1.5665
   37POPC  H11S 4973   2.809   6.253   7.770  0.7583  0.3911  1.7336
   37POPC  C212 4974   3.013   6.308   7.740  0.0706  0.0905 -0.1853
   37POPC  H12R 4975   2.998   6.412   7.774 -1.9169 -0.3118  0.3462
   37POPC  H12S 4976   3.088   6.324   7.660  2.0400  1.4741  1.8315
   37POPC  C213 4977   3.084   6.234   7.855 -0.3674  0.2063 -0.4678
   37POPC  H13R 4978   3.170   6.294   7.891  2.3786 -3.5106 -0.2340
   37POPC  H13S 4979   3.124   6.136   7.821  0.9835  1.1192 -1.6079
   37POPC  C214 4980   2.987   6.227   7.977 -0.1913  0.1476 -0.7346
   37POPC  H14R 4981   2.919   6.141   7.961 -0.3387  0.0213  0.5127
   37POPC  H14S 4982   2.920   6.315   7.962  1.2574  1.0983 -1.8287
   37POPC  C215 4983   3.058   6.215   8.110 -0.9988 -0.2127  0.1149
   37POPC  H15R 4984   3.119   6.305   8.131  0.5072 -0.8584 -1.2533
   37POPC  H15S 4985   3.132   6.134   8.092 -0.7967 -0.0101  0.0247
   37POPC  C216 4986   2.968   6.179   8.228 -0.2906  0.4833  0.0603
   37POPC  H16R 4987   3.030   6.145   8.314  0.7966 -0.1562 -0.9387
   37POPC  H16S 4988   2.904   6.093   8.200  0.9415  0.2177 -2.2567
   37POPC  C217 4989   2.877   6.293   8.276 -0.3088  0.2662  0.3642
   37POPC  H17R 4990   2.789   6.250   8.329 -0.8835  0.7670 -0.1723
   37POPC  H17S 4991   2.852   6.350   8.184  0.6337 -0.3541 -0.2892
   37POPC  C218 4992   2.959   6.376   8.381  0.6295  0.0251  0.4183
   37POPC  H18R 4993   2.971   6.311   8.470  0.1135  1.2575  1.4106
   37POPC  H18S 4994   2.907   6.471   8.408 -0.1993 -0.4597  0.5783
   37POPC  H18T 4995   3.062   6.395   8.345  1.5547  0.0737  2.9475
   37POPC   C33 4996   3.661   6.538   7.064 -0.6607  0.0522  0.8572
   37POPC   H3X 4997   3.564   6.561   7.115 -0.8137 -0.0462  0.6151
   37POPC   H3Y 4998   3.678   6.618   6.990  0.4699  0.1010  1.1633
   37POPC   C34 4999   3.773   6.548   7.171 -0.4171 -0.4155  0.3274
   37POPC   H4X 5000   3.868   6.551   7.113 -1.1380 -0.1428 -0.8728
   37POPC   H4Y 5001   3.780   6.462   7.241  1.2342  0.4447  1.2967
   37POPC   C35 5002   3.750   6.659   7.273 -0.0608 -0.3334 -0.4370
   37POPC   H5X 5003   3.651   6.639   7.320  0.1422 -1.1948 -0.3682
   37POPC   H5Y 5004   3.760   6.756   7.220 -0.1352 -0.4379 -0.6426
   37POPC   C36 5005   3.844   6.648   7.387 -1.0672 -0.1455  0.3298
   37POPC   H6X 5006   3.945   6.662   7.342 -0.2885 -4.1012  0.4837
   37POPC   H6Y 5007   3.837   6.545   7.428 -1.0549  0.1232  1.0163
   37POPC   C37 5008   3.819   6.749   7.501 -0.7194 -0.8526  0.2293
   37POPC   H7X 5009   3.713   6.736   7.531 -0.8820  2.9597  1.8863
   37POPC   H7Y 5010   3.828   6.853   7.462  0.4953 -1.2610 -0.6561
   37POPC   C38 5011   3.914   6.734   7.621 -0.1766 -0.2533  0.6305
   37POPC   H8X 5012   3.903   6.830   7.675  1.4072 -0.0898  0.6927
   37POPC   H8Y 5013   4.021   6.738   7.590 -0.4459  3.4199 -0.2347
   37POPC   C39 5014   3.881   6.626   7.727  0.6972  0.4823 -0.0992
   37POPC   H9X 5015   3.848   6.534   7.674 -0.5308  0.8698 -0.0411
   37POPC   H9Y 5016   3.799   6.663   7.791  0.1109 -0.9808  0.0245
   37POPC  C310 5017   4.002   6.582   7.818  1.4000 -0.5402  0.2780
   37POPC  H10X 5018   4.073   6.534   7.747  0.0874 -0.4803 -1.1562
   37POPC  H10Y 5019   3.968   6.513   7.898  2.3356 -0.8418  0.4193
   37POPC  C311 5020   4.049   6.713   7.887  0.0977  1.0290  0.3274
   37POPC  H11X 5021   3.974   6.754   7.958 -0.1770  2.1209 -0.5495
   37POPC  H11Y 5022   4.083   6.788   7.812  1.7462 -0.0081 -0.0085
   37POPC  C312 5023   4.177   6.677   7.972 -0.5228 -0.0283 -0.6218
   37POPC  H12X 5024   4.238   6.766   8.001  1.2980 -0.7919 -1.8924
   37POPC  H12Y 5025   4.238   6.606   7.912 -1.5429 -1.4030 -0.0863
   37POPC  C313 5026   4.137   6.612   8.105  0.4027  0.2124 -0.6357
   37POPC  H13X 5027   4.232   6.584   8.156 -0.5632 -0.5426  0.7959
   37POPC  H13Y 5028   4.084   6.515   8.098 -0.3899  0.6632 -0.9619
   37POPC  C314 5029   4.064   6.704   8.206  0.3500 -0.4095  0.1524
   37POPC  H14X 5030   3.959   6.713   8.172  0.8053 -0.7158 -1.4266
   37POPC  H14Y 5031   4.100   6.806   8.180  0.3388 -0.6472 -0.8445
   37POPC  C315 5032   4.060   6.669   8.355  0.2615 -0.1384  0.3145
   37POPC  H15X 5033   4.016   6.567   8.363  0.9606 -0.4548  0.1619
   37POPC  H15Y 5034   3.985   6.740   8.396  1.1079  1.9599 -1.5882
   37POPC  C316 5035   4.195   6.678   8.433 -0.1626 -0.6421 -0.4603
   37POPC  H16X 5036   4.267   6.603   8.395 -0.8568 -0.5660 -2.0247
   37POPC  H16Y 5037   4.185   6.658   8.542  2.9866  2.5897  0.5911
   37POPC  H16Z 5038   4.251   6.773   8.423  0.7248 -0.7171  2.8501
   38POPC     N 5039   6.339   1.340   5.911  0.4508 -0.3281 -0.1607
   38POPC   C12 5040   6.323   1.289   6.052  0.7707 -0.7954 -0.6744
   38POPC  H12A 5041   6.416   1.242   6.079  0.4005 -2.0144 -1.4498
   38POPC  H12B 5042   6.250   1.209   6.049  1.1346 -1.1780  0.3159
   38POPC   C13 5043   6.366   1.225   5.817  0.7316 -0.2392 -0.5242
   38POPC  H13A 5044   6.274   1.168   5.815  0.0213  0.8052  0.8041
   38POPC  H13B 5045   6.388   1.268   5.720  0.2700  0.3121 -0.3917
   38POPC  H13C 5046   6.437   1.151   5.849 -0.0348  0.1618  2.3780
   38POPC   C14 5047   6.221   1.418   5.863  0.5705 -0.4858 -0.3061
   38POPC  H14A 5048   6.200   1.491   5.939  1.3357 -1.8568  1.2776
   38POPC  H14B 5049   6.240   1.465   5.767 -0.8395 -2.1166 -1.4310
   38POPC  H14C 5050   6.139   1.351   5.842  0.0019 -0.2596  1.1165
   38POPC   C15 5051   6.456   1.428   5.905 -0.1834 -0.0315  0.1091
   38POPC  H15A 5052   6.449   1.504   5.981 -0.9620 -1.3113  1.3778
   38POPC  H15B 5053   6.472   1.466   5.805  2.9426  0.0103  0.5082
   38POPC  H15C 5054   6.545   1.373   5.934 -0.9806 -0.6146  1.5349
   38POPC   C11 5055   6.288   1.398   6.163  0.5081 -0.9001  0.1523
   38POPC  H11A 5056   6.278   1.351   6.263 -0.2665  2.4147  1.7452
   38POPC  H11B 5057   6.188   1.435   6.131  0.1615 -1.5585  0.4567
   38POPC     P 5058   6.521   1.476   6.238  0.2094 -0.4509  0.3645
   38POPC   O13 5059   6.618   1.585   6.224 -0.3147  0.1864  0.0656
   38POPC   O14 5060   6.572   1.340   6.198  0.3444 -0.3537  0.7349
   38POPC   O12 5061   6.382   1.506   6.165 -0.3240 -0.6280  0.0773
   38POPC   O11 5062   6.473   1.464   6.394  0.6325 -0.8770  0.3976
   38POPC    C1 5063   6.407   1.579   6.449 -0.5555 -0.7281 -0.2906
   38POPC    HA 5064   6.372   1.543   6.548  0.0530  1.9322  0.9687
   38POPC    HB 5065   6.315   1.598   6.390 -0.3450 -0.4674 -0.5363
   38POPC    C2 5066   6.499   1.699   6.489 -0.2374 -0.0156  0.1140
   38POPC    HS 5067   6.508   1.754   6.392  0.8582 -0.4256 -0.0408
   38POPC   O21 5068   6.630   1.658   6.545 -0.3271 -0.3006  0.4024
   38POPC   C21 5069   6.730   1.743   6.536 -0.4489  1.0595  0.2083
   38POPC   O22 5070   6.728   1.855   6.484 -0.0689  0.0405 -0.2159
   38POPC   C22 5071   6.856   1.680   6.604 -0.9243  0.9598 -0.2468
   38POPC   H2R 5072   6.908   1.618   6.527 -2.3575  0.4355 -0.8194
   38POPC   H2S 5073   6.821   1.611   6.683 -2.0663  1.2054 -0.5140
   38POPC    C3 5074   6.422   1.805   6.580 -0.3546  0.7188 -0.8395
   38POPC    HX 5075   6.331   1.845   6.531  0.8891  1.9347 -2.2902
   38POPC    HY 5076   6.480   1.900   6.581  2.0029 -0.5995  1.8514
   38POPC   O31 5077   6.395   1.759   6.713 -0.8168 -0.0423  0.3436
   38POPC   C31 5078   6.467   1.820   6.808 -0.3394  0.2958  0.4233
   38POPC   O32 5079   6.554   1.902   6.793 -0.5556  0.1820 -0.1793
   38POPC   C32 5080   6.417   1.767   6.942  0.1280 -0.8621  0.0083
   38POPC   H2X 5081   6.399   1.657   6.941 -0.1659 -0.8157  0.4654
   38POPC   H2Y 5082   6.329   1.829   6.969  2.7092  2.0884  2.4007
   38POPC   C23 5083   6.953   1.776   6.668  0.0555  1.1162  0.3415
   38POPC   H3R 5084   6.913   1.831   6.756  0.3907 -0.0374  1.2315
   38POPC   H3S 5085   6.966   1.850   6.586  0.6600  0.5509 -0.0771
   38POPC   C24 5086   7.097   1.719   6.688  1.0074  0.0487 -0.6983
   38POPC   H4R 5087   7.151   1.816   6.699  0.4864  0.2719  0.0349
   38POPC   H4S 5088   7.131   1.659   6.601 -0.1998 -0.3471 -0.9249
   38POPC   C25 5089   7.109   1.623   6.805  0.3768  0.1206  0.3718
   38POPC   H5R 5090   7.204   1.566   6.801 -1.0935 -2.4770 -1.9883
   38POPC   H5S 5091   7.033   1.541   6.809 -3.3479  3.2657  0.9511
   38POPC   C26 5092   7.104   1.700   6.937 -0.3220 -0.5311 -0.5349
   38POPC   H6R 5093   7.011   1.759   6.952  0.8955  1.4039 -0.1713
   38POPC   H6S 5094   7.182   1.778   6.923 -1.3849  0.8752  0.9945
   38POPC   C27 5095   7.143   1.609   7.051  0.1123 -0.8012 -0.2962
   38POPC   H7R 5096   7.242   1.560   7.040 -0.3425 -2.1178  1.1523
   38POPC   H7S 5097   7.065   1.534   7.077  1.0869 -1.9078 -0.4747
   38POPC   C28 5098   7.179   1.682   7.182 -0.4411 -0.0311 -0.1834
   38POPC   H8R 5099   7.275   1.734   7.163 -0.0240 -0.9563 -0.7310
   38POPC   H8S 5100   7.214   1.610   7.259 -0.4512  1.6093  1.3979
   38POPC   C29 5101   7.062   1.761   7.239  0.1222 -0.1411  0.2628
   38POPC   H91 5102   7.073   1.863   7.198  3.5958 -1.2379 -1.9363
   38POPC  C210 5103   6.970   1.728   7.332  0.3078  0.2482 -0.2661
   38POPC  H101 5104   6.887   1.795   7.358 -0.4582 -0.9886  0.6248
   38POPC  C211 5105   6.962   1.595   7.412  0.1739 -0.0572 -0.3462
   38POPC  H11R 5106   7.045   1.522   7.401  0.0380 -0.7117  2.2368
   38POPC  H11S 5107   6.868   1.539   7.396 -0.7957  0.7308  2.1083
   38POPC  C212 5108   6.937   1.626   7.565 -0.1565 -0.0127 -0.5153
   38POPC  H12R 5109   6.871   1.713   7.587 -0.6358 -0.6175  0.5307
   38POPC  H12S 5110   7.033   1.660   7.609  0.4417 -0.9372 -1.0688
   38POPC  C213 5111   6.886   1.510   7.652  0.4291  0.6241  0.1082
   38POPC  H13R 5112   6.956   1.429   7.622 -1.3744 -0.1807 -2.2144
   38POPC  H13S 5113   6.788   1.473   7.615  1.0106 -1.7886  0.7653
   38POPC  C214 5114   6.894   1.531   7.806  0.4308  0.0304 -0.7601
   38POPC  H14R 5115   6.838   1.622   7.836 -0.3595 -0.4565 -0.7286
   38POPC  H14S 5116   6.997   1.563   7.832 -0.1335  2.7909 -1.5801
   38POPC  C215 5117   6.850   1.411   7.897  0.0600  0.1520  0.4141
   38POPC  H15R 5118   6.902   1.314   7.880  1.4261  1.1173 -1.2886
   38POPC  H15S 5119   6.753   1.400   7.844  1.2345  1.3844 -2.2272
   38POPC  C216 5120   6.848   1.442   8.043  0.3925 -0.1863 -1.6395
   38POPC  H16R 5121   6.952   1.452   8.079  0.0568  0.2146 -0.7609
   38POPC  H16S 5122   6.796   1.362   8.101  0.3100  1.6834  1.0454
   38POPC  C217 5123   6.776   1.570   8.091  0.7390 -0.5166 -0.4618
   38POPC  H17R 5124   6.832   1.651   8.040  0.0609 -0.3632 -0.9768
   38POPC  H17S 5125   6.796   1.579   8.200 -0.8846 -1.6102 -0.0423
   38POPC  C218 5126   6.623   1.583   8.058  0.0280  0.2391  0.8546
   38POPC  H18R 5127   6.580   1.681   8.087  1.0990  0.1595  2.9337
   38POPC  H18S 5128   6.569   1.497   8.103 -3.8837  0.5879 -2.5231
   38POPC  H18T 5129   6.613   1.569   7.948  0.1886 -1.5821  1.0329
   38POPC   C33 5130   6.526   1.814   7.052 -0.1916  0.8632  0.1090
   38POPC   H3X 5131   6.566   1.917   7.038 -0.3883  1.0420  0.7924
   38POPC   H3Y 5132   6.616   1.750   7.044 -0.6751  0.2733 -0.7716
   38POPC   C34 5133   6.473   1.800   7.194 -0.4503 -0.4229 -0.1347
   38POPC   H4X 5134   6.424   1.704   7.222 -0.8062  0.1206  1.1660
   38POPC   H4Y 5135   6.392   1.875   7.210  1.3043  1.7983 -1.0906
   38POPC   C35 5136   6.593   1.826   7.287  0.7331 -0.4621 -0.3470
   38POPC   H5X 5137   6.599   1.934   7.311  0.8038 -0.5866  0.2074
   38POPC   H5Y 5138   6.690   1.803   7.238  1.4659 -0.0039  0.8587
   38POPC   C36 5139   6.589   1.758   7.422  0.4743 -0.0259  0.4698
   38POPC   H6X 5140   6.691   1.767   7.465  0.6608  5.3379 -0.4647
   38POPC   H6Y 5141   6.559   1.651   7.414 -0.9120  0.4298 -1.2313
   38POPC   C37 5142   6.490   1.826   7.521  0.6368  0.3642 -0.3553
   38POPC   H7X 5143   6.385   1.813   7.487 -0.4087  1.7207  2.1141
   38POPC   H7Y 5144   6.511   1.935   7.532 -0.9369  0.5955  0.5577
   38POPC   C38 5145   6.493   1.769   7.664 -0.2479  0.0026 -0.0058
   38POPC   H8X 5146   6.591   1.783   7.713 -0.7726 -2.5294  1.9953
   38POPC   H8Y 5147   6.491   1.658   7.661  2.3791 -0.0967 -0.5718
   38POPC   C39 5148   6.382   1.820   7.760 -0.0458 -0.3706 -0.2281
   38POPC   H9X 5149   6.414   1.784   7.860 -0.6275 -1.4839 -0.4323
   38POPC   H9Y 5150   6.286   1.774   7.730 -0.6250  0.9294 -0.4409
   38POPC  C310 5151   6.361   1.970   7.772  0.2653 -0.1182  0.4891
   38POPC  H10X 5152   6.328   2.007   7.672  1.0173  0.7939  0.5781
   38POPC  H10Y 5153   6.452   2.025   7.803 -0.0571  0.0175  1.2015
   38POPC  C311 5154   6.257   2.007   7.879 -0.2512 -0.4604  0.3600
   38POPC  H11X 5155   6.303   1.997   7.979 -2.3037  1.0365  1.5509
   38POPC  H11Y 5156   6.170   1.939   7.888 -0.5608  0.0675  1.5961
   38POPC  C312 5157   6.216   2.156   7.873 -0.1233  0.2618 -0.3957
   38POPC  H12X 5158   6.145   2.169   7.789 -0.3649 -1.2250 -0.4537
   38POPC  H12Y 5159   6.305   2.220   7.854  2.3013 -2.7009  0.3110
   38POPC  C313 5160   6.168   2.207   8.011  0.7001 -0.2298  0.2763
   38POPC  H13X 5161   6.126   2.310   8.006  0.2404 -0.4297  0.0083
   38POPC  H13Y 5162   6.259   2.205   8.075  0.5866  0.7265  0.4872
   38POPC  C314 5163   6.063   2.115   8.086  0.2174 -0.4396  0.1084
   38POPC  H14X 5164   6.115   2.020   8.111  1.0542  0.2302  0.9898
   38POPC  H14Y 5165   5.974   2.101   8.021 -1.0998 -1.6600  2.0838
   38POPC  C315 5166   6.010   2.180   8.211  0.6187  0.5580 -1.3249
   38POPC  H15X 5167   5.921   2.121   8.242  0.4097  0.4592 -2.0814
   38POPC  H15Y 5168   5.966   2.277   8.179 -1.3564  0.4830  0.8350
   38POPC  C316 5169   6.109   2.191   8.324 -0.1517 -0.4143  0.2973
   38POPC  H16X 5170   6.199   2.252   8.300 -1.5477  1.5860 -0.0817
   38POPC  H16Y 5171   6.144   2.089   8.352  0.9612 -0.2824 -0.5298
   38POPC  H16Z 5172   6.057   2.231   8.414  0.7259 -2.6862  1.9232
   39POPC     N 5173   1.444   1.182   5.814  0.2615  0.1496  0.6077
   39POPC   C12 5174   1.399   1.181   5.958 -0.2383 -0.4025  1.1476
   39POPC  H12A 5175   1.349   1.089   5.985  1.5905 -1.3033  1.7016
   39POPC  H12B 5176   1.316   1.247   5.978  1.0787  0.9565  2.5129
   39POPC   C13 5177   1.460   1.326   5.770 -0.5751  0.2707 -1.2149
   39POPC  H13A 5178   1.363   1.373   5.761 -1.8511 -1.7088  1.0379
   39POPC  H13B 5179   1.504   1.390   5.844  0.8611  1.5857 -3.1202
   39POPC  H13C 5180   1.512   1.335   5.676  0.6575 -3.4145 -1.0566
   39POPC   C14 5181   1.577   1.108   5.794  0.4145  0.1067  0.2013
   39POPC  H14A 5182   1.647   1.144   5.868  0.9310  1.7278 -1.0212
   39POPC  H14B 5183   1.566   1.001   5.797  1.9668 -0.0935 -0.5077
   39POPC  H14C 5184   1.620   1.122   5.696 -1.9351  0.4589 -0.8585
   39POPC   C15 5185   1.348   1.117   5.728 -0.4598 -0.0704  1.0767
   39POPC  H15A 5186   1.373   1.129   5.624 -1.7723 -0.6549  0.6702
   39POPC  H15B 5187   1.250   1.162   5.721 -0.1933  0.3568 -4.7099
   39POPC  H15C 5188   1.333   1.011   5.738 -0.5632  0.0064  1.7739
   39POPC   C11 5189   1.504   1.222   6.060  1.2065 -0.5066  0.3697
   39POPC  H11A 5190   1.446   1.242   6.153  2.6850  1.1354  0.9787
   39POPC  H11B 5191   1.554   1.313   6.022 -1.0393  0.1847 -1.1613
   39POPC     P 5192   1.573   0.967   6.148 -0.3429 -0.1742  0.1079
   39POPC   O13 5193   1.651   0.873   6.062  0.2794  0.0853  0.5340
   39POPC   O14 5194   1.429   0.935   6.166 -0.1495  0.7089 -0.1404
   39POPC   O12 5195   1.595   1.114   6.081 -0.1581  0.0809  0.0173
   39POPC   O11 5196   1.651   0.976   6.285 -0.0666  0.5056 -0.0009
   39POPC    C1 5197   1.668   1.094   6.359 -0.6287 -0.9999  0.1350
   39POPC    HA 5198   1.635   1.183   6.301  0.4257 -0.4870  0.3005
   39POPC    HB 5199   1.771   1.106   6.397 -0.8443  0.7697  0.2519
   39POPC    C2 5200   1.568   1.101   6.479  0.4881 -0.3306 -0.4048
   39POPC    HS 5201   1.465   1.135   6.453 -0.2483  0.5847  3.2080
   39POPC   O21 5202   1.620   1.203   6.573  0.0250  0.1063  0.7647
   39POPC   C21 5203   1.524   1.257   6.651  0.2354  0.4327 -0.8447
   39POPC   O22 5204   1.405   1.251   6.636 -0.1173 -0.6790  0.3179
   39POPC   C22 5205   1.596   1.334   6.773  0.2002  0.0045  0.3707
   39POPC   H2R 5206   1.633   1.425   6.721  0.7557 -1.8994 -2.8307
   39POPC   H2S 5207   1.682   1.279   6.815 -0.0702 -0.5707  0.1839
   39POPC    C3 5208   1.556   0.961   6.543  0.2312  0.0099  0.3616
   39POPC    HX 5209   1.659   0.935   6.574 -0.1134 -0.6785  0.9756
   39POPC    HY 5210   1.529   0.891   6.461 -0.5951  1.6975 -0.8634
   39POPC   O31 5211   1.457   0.954   6.646 -0.2035 -0.1930  0.2003
   39POPC   C31 5212   1.467   0.836   6.711  0.2576  0.6320  0.1704
   39POPC   O32 5213   1.549   0.753   6.691 -0.2933  0.0280 -0.6153
   39POPC   C32 5214   1.370   0.831   6.835  1.1375 -0.6753  0.2906
   39POPC   H2X 5215   1.290   0.906   6.820  0.9316 -0.7604  0.9215
   39POPC   H2Y 5216   1.327   0.728   6.837 -1.0138  0.0394 -2.2151
   39POPC   C23 5217   1.498   1.370   6.884  0.1886 -0.3568 -0.3732
   39POPC   H3R 5218   1.390   1.370   6.858  0.4799  0.5609 -1.6480
   39POPC   H3S 5219   1.517   1.475   6.912 -1.8148 -0.5090  1.8793
   39POPC   C24 5220   1.507   1.281   7.012 -0.4837  0.6111  0.1288
   39POPC   H4R 5221   1.533   1.184   6.963  0.3142  1.4921 -1.2701
   39POPC   H4S 5222   1.404   1.285   7.052 -1.7010  0.5883 -2.7695
   39POPC   C25 5223   1.605   1.325   7.127 -0.0130  0.1658  0.1372
   39POPC   H5R 5224   1.560   1.419   7.167  1.7537  1.5234 -0.9218
   39POPC   H5S 5225   1.709   1.337   7.090  0.6669 -0.9963  1.5541
   39POPC   C26 5226   1.610   1.235   7.253 -0.4486 -0.2096 -0.0566
   39POPC   H6R 5227   1.641   1.130   7.233 -1.1968 -0.8473  1.9473
   39POPC   H6S 5228   1.507   1.221   7.291 -0.5979  2.4405  0.7284
   39POPC   C27 5229   1.696   1.295   7.368  0.5138  0.2045  1.1295
   39POPC   H7R 5230   1.712   1.403   7.349  0.2827  0.3263  1.6112
   39POPC   H7S 5231   1.795   1.246   7.358  0.1343 -0.4566  0.4718
   39POPC   C28 5232   1.643   1.262   7.502 -0.6567 -0.1709 -0.0480
   39POPC   H8R 5233   1.534   1.240   7.504 -0.5954 -0.5604 -0.8100
   39POPC   H8S 5234   1.650   1.355   7.563  0.0998 -1.8207  2.5572
   39POPC   C29 5235   1.714   1.143   7.579 -0.5644 -0.7466 -0.6468
   39POPC   H91 5236   1.741   1.056   7.518  0.0388 -2.7082  2.2373
   39POPC  C210 5237   1.753   1.140   7.712 -0.0670 -0.0115  0.3697
   39POPC  H101 5238   1.801   1.048   7.747 -2.8146 -1.0351  1.6481
   39POPC  C211 5239   1.743   1.272   7.796  0.5166  0.0712  0.3819
   39POPC  H11R 5240   1.647   1.325   7.785  1.4406  1.3599 -2.2453
   39POPC  H11S 5241   1.828   1.339   7.772 -0.2390  0.8745 -0.0970
   39POPC  C212 5242   1.755   1.256   7.950  0.0919  0.1882 -0.4406
   39POPC  H12R 5243   1.737   1.355   7.998  0.0362  0.7867 -1.6554
   39POPC  H12S 5244   1.855   1.210   7.969 -0.2151 -1.1939 -1.9732
   39POPC  C213 5245   1.649   1.156   7.996  0.5517 -0.7034  0.0455
   39POPC  H13R 5246   1.683   1.053   7.976  0.6537 -1.3878  3.1522
   39POPC  H13S 5247   1.554   1.171   7.940  0.1546  1.6497  1.1846
   39POPC  C214 5248   1.625   1.171   8.145 -0.2163 -0.0219  0.2082
   39POPC  H14R 5249   1.582   1.272   8.165  2.0865  1.1749 -0.5671
   39POPC  H14S 5250   1.728   1.165   8.184  0.5842  0.0084 -1.7924
   39POPC  C215 5251   1.537   1.057   8.203  0.2604 -0.2218  0.7296
   39POPC  H15R 5252   1.592   0.963   8.183 -1.4246 -0.4875 -3.5870
   39POPC  H15S 5253   1.436   1.055   8.159 -0.0456  2.3119  1.1501
   39POPC  C216 5254   1.519   1.069   8.354 -0.7415 -0.1664  0.2059
   39POPC  H16R 5255   1.480   1.168   8.385 -0.2040  0.6291 -1.5521
   39POPC  H16S 5256   1.618   1.068   8.403 -0.9725 -1.4370  0.7120
   39POPC  C217 5257   1.423   0.955   8.410  0.4805  0.4209 -0.2159
   39POPC  H17R 5258   1.492   0.868   8.421 -0.3927 -0.2272  0.2966
   39POPC  H17S 5259   1.345   0.928   8.335  1.1873  1.0032 -1.1800
   39POPC  C218 5260   1.341   0.988   8.543 -0.0048  0.3269 -0.0595
   39POPC  H18R 5261   1.239   0.948   8.530 -0.3610  1.0542  0.4323
   39POPC  H18S 5262   1.340   1.098   8.556  1.1857  0.7033 -2.5043
   39POPC  H18T 5263   1.386   0.937   8.631 -1.3063 -0.4690  0.1664
   39POPC   C33 5264   1.451   0.856   6.966  1.1055 -0.0065 -0.6127
   39POPC   H3X 5265   1.501   0.955   6.964  0.2113  0.5566  1.8780
   39POPC   H3Y 5266   1.523   0.773   6.984 -0.2567 -1.3359 -1.1260
   39POPC   C34 5267   1.344   0.858   7.081  0.2595 -0.1389 -0.3100
   39POPC   H4X 5268   1.247   0.897   7.044  0.7162 -0.0321 -1.4480
   39POPC   H4Y 5269   1.385   0.936   7.149  1.7712 -0.5173 -0.7485
   39POPC   C35 5270   1.320   0.728   7.154 -0.0869 -0.0576  0.0207
   39POPC   H5X 5271   1.415   0.673   7.169  0.9794  1.1849 -1.6469
   39POPC   H5Y 5272   1.252   0.669   7.089  0.3960  0.4287 -0.9507
   39POPC   C36 5273   1.245   0.750   7.286 -0.2610 -0.4767  0.1959
   39POPC   H6X 5274   1.182   0.662   7.310  0.5937 -0.9498  0.7608
   39POPC   H6Y 5275   1.178   0.838   7.272  1.8378  0.9442 -1.5255
   39POPC   C37 5276   1.338   0.778   7.403  0.4402 -0.5404 -0.6412
   39POPC   H7X 5277   1.409   0.860   7.378  0.2439 -0.2204 -0.1660
   39POPC   H7Y 5278   1.401   0.690   7.429  0.1483 -0.4855  0.2913
   39POPC   C38 5279   1.275   0.834   7.542  1.3952  0.0300  0.8693
   39POPC   H8X 5280   1.190   0.766   7.561  2.0385 -0.4457  2.1319
   39POPC   H8Y 5281   1.233   0.936   7.526  0.0185 -0.7221 -0.6466
   39POPC   C39 5282   1.372   0.824   7.659  0.1957 -0.2820 -0.6610
   39POPC   H9X 5283   1.477   0.861   7.650  0.6614 -0.7980  1.7572
   39POPC   H9Y 5284   1.398   0.717   7.674 -3.6035 -1.0865  1.2379
   39POPC  C310 5285   1.312   0.892   7.784 -0.1641 -0.4697  0.6341
   39POPC  H10X 5286   1.209   0.853   7.798 -0.0798 -1.0273 -0.2172
   39POPC  H10Y 5287   1.297   0.998   7.756  0.2409 -0.2653  1.1864
   39POPC  C311 5288   1.399   0.877   7.907  0.0753 -0.7151  0.1258
   39POPC  H11X 5289   1.368   0.949   7.986 -0.0565 -0.2122 -0.3790
   39POPC  H11Y 5290   1.504   0.904   7.883 -0.3930  2.1869  0.9458
   39POPC  C312 5291   1.394   0.740   7.959  0.1676 -0.2358  0.2376
   39POPC  H12X 5292   1.435   0.684   7.872 -2.1987  0.0059 -1.1179
   39POPC  H12Y 5293   1.289   0.715   7.988 -1.0018  0.1046 -3.2126
   39POPC  C313 5294   1.497   0.698   8.069 -0.3015  0.6675 -0.0450
   39POPC  H13X 5295   1.477   0.749   8.166  0.2585  1.4205 -0.3146
   39POPC  H13Y 5296   1.604   0.710   8.042  0.2902  0.8660  2.1634
   39POPC  C314 5297   1.487   0.545   8.103  0.2867 -0.7976 -0.5511
   39POPC  H14X 5298   1.556   0.527   8.188  1.5921  3.0223 -0.6102
   39POPC  H14Y 5299   1.531   0.493   8.014 -1.6035  0.0758 -2.0667
   39POPC  C315 5300   1.347   0.507   8.145  0.1397  0.1702 -0.3979
   39POPC  H15X 5301   1.285   0.520   8.054  0.0111 -0.3321 -0.3883
   39POPC  H15Y 5302   1.316   0.583   8.220  0.2593 -0.0673 -0.1026
   39POPC  C316 5303   1.319   0.371   8.202  0.0503  0.4174  0.4666
   39POPC  H16X 5304   1.326   0.287   8.129 -2.4138  1.5117 -1.1460
   39POPC  H16Y 5305   1.218   0.374   8.247 -0.3232 -0.2619 -0.3141
   39POPC  H16Z 5306   1.388   0.339   8.284 -0.8449 -2.2114  0.2698
   40POPC     N 5307   6.772   5.199   6.128 -0.3911 -0.3498  0.5647
   40POPC   C12 5308   6.780   5.351   6.121  0.4919  0.1231  0.1460
   40POPC  H12A 5309   6.746   5.388   6.217 -0.1997 -0.8156  0.2659
   40POPC  H12B 5310   6.709   5.396   6.053  2.1572  0.9089 -1.1326
   40POPC   C13 5311   6.797   5.142   5.989 -0.0786 -0.1018 -0.5562
   40POPC  H13A 5312   6.904   5.154   5.977  0.1049  2.4932  2.5310
   40POPC  H13B 5313   6.766   5.038   5.985 -0.1570 -0.1371  0.7131
   40POPC  H13C 5314   6.754   5.209   5.916  1.7831  1.7255 -0.0888
   40POPC   C14 5315   6.867   5.146   6.227  0.0561  1.1679 -0.8752
   40POPC  H14A 5316   6.963   5.189   6.202 -1.5474  5.0335 -1.0983
   40POPC  H14B 5317   6.846   5.179   6.328  0.0611 -2.1487  0.3330
   40POPC  H14C 5318   6.866   5.038   6.226 -0.5534  1.1484  0.0191
   40POPC   C15 5319   6.634   5.160   6.165 -0.2226  0.6088  0.5100
   40POPC  H15A 5320   6.625   5.052   6.167 -1.1642  0.6597 -0.3417
   40POPC  H15B 5321   6.560   5.209   6.105 -0.4279 -0.8249 -0.4674
   40POPC  H15C 5322   6.619   5.186   6.269 -0.1919 -1.0086  0.9503
   40POPC   C11 5323   6.922   5.409   6.097  0.4022  0.1027 -0.0555
   40POPC  H11A 5324   6.903   5.519   6.092 -3.5419 -0.4253 -0.3912
   40POPC  H11B 5325   6.966   5.380   5.999  0.1698  1.4138 -0.5686
   40POPC     P 5326   7.017   5.427   6.340  0.1509 -0.2685  0.2329
   40POPC   O13 5327   6.883   5.485   6.368 -0.3157  0.8048 -0.1052
   40POPC   O14 5328   7.135   5.518   6.338  0.4112  0.4257 -0.5376
   40POPC   O12 5329   7.016   5.374   6.198  0.1708 -0.4779 -0.6357
   40POPC   O11 5330   7.035   5.309   6.439 -0.3841  0.0307 -0.1953
   40POPC    C1 5331   7.176   5.303   6.483  0.0606 -0.0010  0.0233
   40POPC    HA 5332   7.225   5.396   6.518 -1.6891  0.3104  1.8381
   40POPC    HB 5333   7.233   5.273   6.392  0.4789  2.1224 -0.4739
   40POPC    C2 5334   7.189   5.193   6.598 -0.2045 -0.0235 -0.2702
   40POPC    HS 5335   7.115   5.226   6.675  0.1194 -0.9687  0.4557
   40POPC   O21 5336   7.324   5.190   6.637 -0.6456  0.2364  0.5069
   40POPC   C21 5337   7.350   5.166   6.770  1.0271  0.3546 -0.1829
   40POPC   O22 5338   7.266   5.182   6.858 -0.4713 -0.3047  0.2163
   40POPC   C22 5339   7.488   5.106   6.788 -0.2631 -0.3480 -0.1108
   40POPC   H2R 5340   7.550   5.191   6.752  1.1360 -0.8703  1.0242
   40POPC   H2S 5341   7.490   5.017   6.722  0.6826 -1.1513  0.9622
   40POPC    C3 5342   7.144   5.046   6.562 -0.3590  0.7541  1.0237
   40POPC    HX 5343   7.217   5.024   6.482 -3.0295  0.9194 -1.6443
   40POPC    HY 5344   7.046   5.039   6.510 -0.0194 -1.7119  0.6219
   40POPC   O31 5345   7.147   4.958   6.670 -0.0417 -0.2273 -0.7406
   40POPC   C31 5346   7.044   4.938   6.752  0.0874 -0.5323 -1.3270
   40POPC   O32 5347   6.936   4.988   6.737  0.0408 -0.4119 -0.5219
   40POPC   C32 5348   7.086   4.869   6.880 -0.3877 -0.1063 -0.0152
   40POPC   H2X 5349   7.170   4.921   6.930 -0.6097  0.0883  0.1622
   40POPC   H2Y 5350   7.128   4.779   6.832 -1.7225  0.5003 -2.5052
   40POPC   C23 5351   7.523   5.071   6.937  0.0798  0.0927  0.3977
   40POPC   H3R 5352   7.441   5.004   6.969 -1.4749  1.5285 -0.3766
   40POPC   H3S 5353   7.517   5.166   6.995  2.6794  0.2607  0.5115
   40POPC   C24 5354   7.671   5.018   6.952 -0.0911 -0.1604  0.0033
   40POPC   H4R 5355   7.737   5.102   6.921 -0.0023 -1.3230 -3.3137
   40POPC   H4S 5356   7.690   4.936   6.880  0.5779 -0.8489  0.9437
   40POPC   C25 5357   7.709   4.991   7.102 -0.0159  0.9399 -0.1155
   40POPC   H5R 5358   7.687   5.080   7.166 -0.4734 -1.2586  3.0458
   40POPC   H5S 5359   7.817   4.965   7.103  0.1074  0.3731 -4.8995
   40POPC   C26 5360   7.621   4.876   7.164  0.8425  0.4075 -0.3616
   40POPC   H6R 5361   7.657   4.782   7.117 -1.6696 -0.9166  0.2080
   40POPC   H6S 5362   7.514   4.893   7.138  1.0473  0.8094 -0.9945
   40POPC   C27 5363   7.656   4.856   7.308  0.0895 -0.3087 -0.1808
   40POPC   H7R 5364   7.655   4.958   7.352  1.1610 -0.5229  0.3805
   40POPC   H7S 5365   7.761   4.820   7.312 -0.2230 -1.6674 -2.6955
   40POPC   C28 5366   7.563   4.768   7.394 -0.8026  0.2241 -0.0541
   40POPC   H8R 5367   7.615   4.757   7.491 -1.1042  0.9515  0.1974
   40POPC   H8S 5368   7.558   4.667   7.348 -1.3307 -0.2767  1.0759
   40POPC   C29 5369   7.426   4.831   7.414  0.2186 -0.3223 -0.0186
   40POPC   H91 5370   7.343   4.800   7.348 -0.8501 -1.8984  1.9808
   40POPC  C210 5371   7.411   4.923   7.506 -0.1164 -0.2002 -0.1145
   40POPC  H101 5372   7.312   4.971   7.510 -0.4544 -0.7502 -1.3122
   40POPC  C211 5373   7.508   4.971   7.605 -0.1249  0.0103  0.0667
   40POPC  H11R 5374   7.535   5.075   7.576 -1.2599 -0.0248 -1.2593
   40POPC  H11S 5375   7.607   4.921   7.606  0.5036  1.2083  0.1128
   40POPC  C212 5376   7.453   5.001   7.749  0.0826 -0.1054  0.1992
   40POPC  H12R 5377   7.369   5.073   7.757  0.2841  0.1586 -0.0047
   40POPC  H12S 5378   7.526   5.049   7.818  2.3793 -0.9887 -1.4799
   40POPC  C213 5379   7.416   4.876   7.830 -0.0491 -0.0147 -0.0697
   40POPC  H13R 5380   7.314   4.842   7.802  0.3021 -0.1152 -1.2539
   40POPC  H13S 5381   7.405   4.906   7.937  1.4836  0.9025 -0.1504
   40POPC  C214 5382   7.516   4.756   7.819 -0.0773  0.3266  0.6897
   40POPC  H14R 5383   7.624   4.773   7.800  0.1142 -1.4141  0.0235
   40POPC  H14S 5384   7.493   4.688   7.735 -3.4446  0.5563  1.3088
   40POPC  C215 5385   7.490   4.661   7.938 -0.6874  0.4597  0.5686
   40POPC  H15R 5386   7.387   4.624   7.918 -1.0167  0.7122  1.7077
   40POPC  H15S 5387   7.484   4.706   8.040  0.4543 -0.3461  1.0146
   40POPC  C216 5388   7.593   4.545   7.945  0.3378  0.3616 -0.4606
   40POPC  H16R 5389   7.694   4.586   7.922 -0.4011  1.5700 -1.7292
   40POPC  H16S 5390   7.573   4.457   7.881  0.4196  0.0602 -0.0707
   40POPC  C217 5391   7.606   4.486   8.088  1.1934  0.3572 -0.3205
   40POPC  H17R 5392   7.508   4.440   8.112  1.4725  0.2905  0.7658
   40POPC  H17S 5393   7.613   4.570   8.161 -1.3718  0.2330  0.1471
   40POPC  C218 5394   7.725   4.393   8.112 -0.5906  0.2396  0.2322
   40POPC  H18R 5395   7.824   4.440   8.096 -0.7525  0.1366 -1.3040
   40POPC  H18S 5396   7.721   4.315   8.032  0.5411  2.6796 -2.4045
   40POPC  H18T 5397   7.720   4.351   8.214  0.4202  1.9890  1.0413
   40POPC   C33 5398   6.975   4.854   6.983  0.0729  0.4013 -0.0230
   40POPC   H3X 5399   6.883   4.816   6.934 -0.7280  1.8950  0.2754
   40POPC   H3Y 5400   6.957   4.957   7.019  0.2790  0.8496 -1.1774
   40POPC   C34 5401   7.014   4.754   7.100  0.2469 -0.2346 -0.3626
   40POPC   H4X 5402   7.117   4.769   7.139  0.6576  0.1867 -1.5615
   40POPC   H4Y 5403   7.017   4.654   7.051 -0.4109  0.7386 -2.5418
   40POPC   C35 5404   6.917   4.760   7.216  0.0211 -0.2052  0.5057
   40POPC   H5X 5405   6.901   4.671   7.280  0.2524 -0.2383  0.5171
   40POPC   H5Y 5406   6.815   4.783   7.176  0.2543 -0.4045 -0.2130
   40POPC   C36 5407   6.975   4.871   7.302  0.8195 -1.1968  0.4806
   40POPC   H6X 5408   6.998   4.962   7.244  1.4728 -2.5294 -1.4577
   40POPC   H6Y 5409   7.066   4.833   7.354  0.7360  0.2706  1.7752
   40POPC   C37 5410   6.868   4.911   7.406 -0.3769  0.3019  0.6604
   40POPC   H7X 5411   6.847   4.817   7.461  1.4996 -0.4703  0.1347
   40POPC   H7Y 5412   6.778   4.950   7.354  0.1802 -2.7307 -2.9572
   40POPC   C38 5413   6.922   5.002   7.514 -0.1235  0.2697  0.8782
   40POPC   H8X 5414   6.838   5.065   7.548  0.3758 -0.3789  3.5351
   40POPC   H8Y 5415   7.003   5.063   7.470 -0.8105  1.2779  0.9837
   40POPC   C39 5416   6.977   4.936   7.643  0.4886 -0.2565  0.2775
   40POPC   H9X 5417   7.061   4.874   7.604  0.6162 -0.3096  0.6313
   40POPC   H9Y 5418   6.900   4.863   7.677  1.6254 -1.1017  1.1228
   40POPC  C310 5419   7.003   5.021   7.764 -0.3137  0.0355 -0.1370
   40POPC  H10X 5420   6.912   5.085   7.770 -0.4531 -0.1550 -0.2150
   40POPC  H10Y 5421   7.086   5.090   7.737 -0.6531  1.0899  1.4043
   40POPC  C311 5422   7.016   4.934   7.894 -0.3799  0.3649 -0.4409
   40POPC  H11X 5423   7.103   4.869   7.873 -1.5495 -1.3988 -0.0255
   40POPC  H11Y 5424   6.927   4.872   7.915 -1.6452  2.6680  1.4837
   40POPC  C312 5425   7.039   5.018   8.015  0.3709 -0.6558 -1.0301
   40POPC  H12X 5426   7.003   4.968   8.107  0.5683 -2.7760 -2.0400
   40POPC  H12Y 5427   6.989   5.118   8.009  1.2570 -0.1007  0.4586
   40POPC  C313 5428   7.188   5.036   8.053  0.0487 -0.0507 -0.3363
   40POPC  H13X 5429   7.224   5.105   7.974 -1.8748 -0.6247 -1.8056
   40POPC  H13Y 5430   7.245   4.941   8.036  1.8061  0.0968  3.5182
   40POPC  C314 5431   7.223   5.070   8.198 -0.3131 -0.9671  0.0125
   40POPC  H14X 5432   7.166   5.011   8.272 -0.3331  2.1416  2.7113
   40POPC  H14Y 5433   7.193   5.175   8.221 -0.9569 -0.9275 -0.9349
   40POPC  C315 5434   7.367   5.044   8.227  0.1050 -0.5646 -0.2979
   40POPC  H15X 5435   7.394   4.938   8.209  1.5945 -0.2612  0.0403
   40POPC  H15Y 5436   7.374   5.061   8.337  1.5209 -0.4146 -0.3891
   40POPC  C316 5437   7.468   5.137   8.162  0.3566  0.4653  0.4085
   40POPC  H16X 5438   7.443   5.245   8.162 -2.1586 -0.0550 -0.4164
   40POPC  H16Y 5439   7.469   5.124   8.051  0.1266 -0.5776  0.5119
   40POPC  H16Z 5440   7.572   5.112   8.194 -0.0023 -1.8460 -0.0289
   41CHL1    C3 5441   6.192   2.669  10.100  0.3142  0.2161 -0.3231
   41CHL1    H3 5442   6.084   2.653  10.120  0.2707  0.5817 -0.2617
   41CHL1    O3 5443   6.254   2.650  10.223 -0.0516 -0.1813  0.0870
   41CHL1   H3' 5444   6.282   2.738  10.248  1.3136 -1.1957  2.3736
   41CHL1    C4 5445   6.245   2.572  10.001  0.5290  0.1993  0.0251
   41CHL1   H4A 5446   6.353   2.595   9.994  0.5766 -0.0789 -0.1487
   41CHL1   H4B 5447   6.243   2.463  10.021 -3.0707 -0.4712 -2.9185
   41CHL1    C5 5448   6.183   2.584   9.860 -0.2551 -1.1803 -0.7433
   41CHL1    C6 5449   6.123   2.478   9.801 -0.1605  0.3021  0.3065
   41CHL1    H6 5450   6.126   2.380   9.851  1.9757  0.2728  0.2066
   41CHL1    C7 5451   6.051   2.495   9.676 -0.1741 -0.6520  0.0509
   41CHL1   H7A 5452   6.054   2.398   9.622  2.0756  0.2033 -1.5496
   41CHL1   H7B 5453   5.943   2.517   9.690 -0.3477 -1.5948  0.2342
   41CHL1    C8 5454   6.102   2.608   9.579  0.1266 -0.2676  0.6408
   41CHL1    H8 5455   6.203   2.586   9.540 -0.8462 -0.6969 -1.7897
   41CHL1   C14 5456   6.010   2.631   9.456  0.4860 -0.4916 -0.0266
   41CHL1   H14 5457   5.911   2.653   9.500  0.1183 -0.2442 -0.9591
   41CHL1   C15 5458   5.970   2.514   9.360  0.4346  0.3570 -0.0465
   41CHL1  H15A 5459   6.057   2.449   9.339 -0.7271 -0.6138 -2.1103
   41CHL1  H15B 5460   5.888   2.452   9.404  0.8897 -3.1449 -3.5936
   41CHL1   C16 5461   5.928   2.586   9.235  0.5917 -0.3708  0.6373
   41CHL1  H16A 5462   6.001   2.561   9.155 -0.7256  0.2388 -0.8192
   41CHL1  H16B 5463   5.826   2.549   9.212 -1.0943  2.7304  2.4063
   41CHL1   C17 5464   5.938   2.740   9.269  0.0522 -0.8984  0.5418
   41CHL1   H17 5465   5.846   2.768   9.325 -1.1443 -0.7572 -1.4140
   41CHL1   C13 5466   6.051   2.752   9.378  0.4549 -0.0459  0.4286
   41CHL1   C18 5467   6.192   2.736   9.313 -0.3008 -0.5394  0.3233
   41CHL1  H18A 5468   6.198   2.642   9.253 -0.7692  1.7962 -3.7984
   41CHL1  H18B 5469   6.215   2.819   9.243  0.0153  0.4768  1.6034
   41CHL1  H18C 5470   6.280   2.726   9.379  0.1841 -3.0698 -0.5789
   41CHL1   C12 5471   6.031   2.881   9.463  0.6084 -0.0779  0.1923
   41CHL1  H12A 5472   6.066   2.963   9.397  0.0470 -0.4984 -0.6462
   41CHL1  H12B 5473   5.926   2.900   9.495  1.1850  0.8338  1.6502
   41CHL1   C11 5474   6.126   2.871   9.577 -0.7604 -0.6015  0.4269
   41CHL1  H11A 5475   6.231   2.892   9.548 -1.2032  1.9477  0.4465
   41CHL1  H11B 5476   6.110   2.947   9.657 -0.8029 -0.5552  0.3744
   41CHL1    C9 5477   6.108   2.739   9.664  0.2890 -0.0808  0.4012
   41CHL1    H9 5478   6.004   2.751   9.703  0.8638  1.8174  1.4797
   41CHL1   C10 5479   6.189   2.727   9.803  0.0960 -0.3936  0.4870
   41CHL1   C19 5480   6.339   2.759   9.762  0.1384  0.7950  0.4732
   41CHL1  H19A 5481   6.395   2.750   9.857 -1.1097 -0.4551  1.1323
   41CHL1  H19B 5482   6.374   2.693   9.679 -1.1912  2.0105 -1.1424
   41CHL1  H19C 5483   6.342   2.865   9.731 -1.7370  0.7215 -0.1317
   41CHL1    C1 5484   6.130   2.826   9.911  0.6383  0.3130 -0.0717
   41CHL1   H1A 5485   6.124   2.934   9.885 -0.4040  0.5668  1.1252
   41CHL1   H1B 5486   6.025   2.795   9.926  0.7904 -1.0455 -1.5850
   41CHL1    C2 5487   6.204   2.815  10.051 -0.6298  0.1641 -0.0713
   41CHL1   H2A 5488   6.156   2.893  10.114  0.1460  2.6326 -2.3665
   41CHL1   H2B 5489   6.313   2.834  10.044 -0.0186 -2.5364  0.8403
   41CHL1   C20 5490   5.946   2.838   9.149  0.5763 -0.4970  0.1145
   41CHL1   H20 5491   6.003   2.932   9.167  0.2086 -0.3482  0.5324
   41CHL1   C21 5492   5.799   2.877   9.124  0.2239 -0.3273  0.0456
   41CHL1  H21A 5493   5.760   2.920   9.218  0.1468  2.0225 -0.9796
   41CHL1  H21B 5494   5.734   2.797   9.083  0.4754 -0.1393 -0.7490
   41CHL1  H21C 5495   5.798   2.952   9.042 -1.1441 -0.7233 -0.3177
   41CHL1   C22 5496   6.006   2.769   9.019 -0.2445 -0.1889 -0.0558
   41CHL1  H22A 5497   6.104   2.718   9.033  0.3738  0.2764 -2.2551
   41CHL1  H22B 5498   5.935   2.694   8.979  1.0743  0.5776 -4.3445
   41CHL1   C23 5499   6.030   2.861   8.896  0.1566 -0.7912  0.1888
   41CHL1  H23A 5500   5.937   2.920   8.883  0.8896  0.0711 -1.2975
   41CHL1  H23B 5501   6.114   2.930   8.918  0.5274 -1.6189  1.5534
   41CHL1   C24 5502   6.061   2.783   8.770  0.1054  0.4499  0.6999
   41CHL1  H24A 5503   6.156   2.729   8.793  0.2975  0.4784  0.0128
   41CHL1  H24B 5504   5.979   2.709   8.753  0.8295 -0.6750  1.9011
   41CHL1   C25 5505   6.093   2.862   8.641  1.1361  0.7067 -0.3124
   41CHL1   H25 5506   6.136   2.959   8.673 -1.9848  1.5661  1.7032
   41CHL1   C26 5507   6.183   2.784   8.542 -0.0893 -0.1410 -0.1816
   41CHL1  H26A 5508   6.271   2.747   8.599 -0.7415  1.0091  1.6567
   41CHL1  H26B 5509   6.130   2.697   8.497  1.5386 -1.1818 -0.1699
   41CHL1  H26C 5510   6.208   2.836   8.447  1.5458 -1.1722 -0.3684
   41CHL1   C27 5511   5.957   2.896   8.576 -0.2887  0.2811 -0.2964
   41CHL1  H27A 5512   5.917   2.796   8.546  1.2960 -0.3904 -0.2443
   41CHL1  H27B 5513   5.879   2.937   8.644 -0.4451 -1.0212  0.3454
   41CHL1  H27C 5514   5.965   2.960   8.486 -0.1375 -1.2652 -1.4271
   42CHL1    C3 5515   5.859   1.103   9.752 -0.4754  0.7081 -0.1808
   42CHL1    H3 5516   5.772   1.125   9.687 -1.4005 -0.0309  0.7708
   42CHL1    O3 5517   5.820   1.118   9.883  0.1438  0.4211  0.5425
   42CHL1   H3' 5518   5.866   1.047   9.930 -0.2782 -0.5246 -0.4202
   42CHL1    C4 5519   5.895   0.961   9.719 -0.4091  0.1669 -0.0891
   42CHL1   H4A 5520   5.980   0.930   9.783 -0.1407 -4.1901 -2.2353
   42CHL1   H4B 5521   5.816   0.889   9.748 -2.2055  1.9372 -0.4035
   42CHL1    C5 5522   5.944   0.941   9.573 -0.2879 -0.2369  0.2418
   42CHL1    C6 5523   5.891   0.847   9.492 -0.3604  0.2926 -0.1876
   42CHL1    H6 5524   5.801   0.793   9.527  0.0853 -0.6830 -0.5000
   42CHL1    C7 5525   5.945   0.817   9.353  0.5131 -0.3599 -1.2076
   42CHL1   H7A 5526   5.957   0.710   9.325  0.3266 -0.4450 -0.9689
   42CHL1   H7B 5527   5.872   0.865   9.284  2.5232  2.3778 -1.5961
   42CHL1    C8 5528   6.079   0.896   9.319 -0.1777 -0.1471  0.8817
   42CHL1    H8 5529   6.167   0.837   9.351  1.3600  0.6771 -1.5520
   42CHL1   C14 5530   6.101   0.884   9.174  0.2806  0.0336 -0.1531
   42CHL1   H14 5531   6.015   0.938   9.129  0.0275  0.6630  1.0320
   42CHL1   C15 5532   6.107   0.744   9.107  0.3480  0.4647  0.1157
   42CHL1  H15A 5533   6.156   0.671   9.174 -1.9173  0.1231  1.5015
   42CHL1  H15B 5534   6.002   0.708   9.096 -0.0304  1.2813  0.8696
   42CHL1   C16 5535   6.168   0.765   8.969  0.7692 -0.6590 -0.5759
   42CHL1  H16A 5536   6.257   0.700   8.956  0.8202 -0.2731 -2.4924
   42CHL1  H16B 5537   6.097   0.748   8.885  1.3216  0.7250 -1.3617
   42CHL1   C17 5538   6.213   0.920   8.966 -0.1391 -0.5145 -0.3085
   42CHL1   H17 5539   6.125   0.978   8.932 -0.3708 -0.1456  0.8621
   42CHL1   C13 5540   6.220   0.958   9.118 -0.9909 -0.1381 -0.6789
   42CHL1   C18 5541   6.346   0.891   9.175 -0.0930 -0.3214  0.0299
   42CHL1  H18A 5542   6.436   0.938   9.131  0.9534  1.9647  4.0890
   42CHL1  H18B 5543   6.365   0.922   9.280  0.3598 -0.6858  0.0566
   42CHL1  H18C 5544   6.354   0.780   9.179 -1.8772 -0.5339 -0.9949
   42CHL1   C12 5545   6.210   1.102   9.156 -0.1776 -0.2389 -0.1440
   42CHL1  H12A 5546   6.300   1.163   9.134 -0.1807  0.9236  2.5982
   42CHL1  H12B 5547   6.122   1.147   9.107 -0.1842 -0.5550 -0.4253
   42CHL1   C11 5548   6.180   1.132   9.307 -0.1878 -0.0970  0.2437
   42CHL1  H11A 5549   6.275   1.119   9.364 -1.1130 -0.5512  1.7533
   42CHL1  H11B 5550   6.164   1.240   9.326  2.6654  1.1905 -3.5311
   42CHL1    C9 5551   6.075   1.041   9.369  0.6774 -0.1384  1.1499
   42CHL1    H9 5552   5.978   1.080   9.330  1.6400  1.6214  0.3825
   42CHL1   C10 5553   6.054   1.047   9.523  0.0494 -0.2909 -0.6969
   42CHL1   C19 5554   6.182   1.002   9.595  0.0496  0.2167  0.4368
   42CHL1  H19A 5555   6.179   0.989   9.706  1.4529  0.0665  0.4759
   42CHL1  H19B 5556   6.227   0.907   9.559  0.9965 -0.8263  3.9269
   42CHL1  H19C 5557   6.249   1.089   9.580 -0.6825  0.4207 -2.1277
   42CHL1    C1 5558   6.017   1.190   9.579 -0.3702  0.2013 -0.6245
   42CHL1   H1A 5559   6.110   1.249   9.567  0.7647 -1.3255  0.1550
   42CHL1   H1B 5560   5.941   1.244   9.519  0.9381  1.5967 -1.0757
   42CHL1    C2 5561   5.971   1.193   9.720 -0.0050  0.1996  0.0174
   42CHL1   H2A 5562   5.916   1.286   9.746 -1.5804 -0.9570  1.0612
   42CHL1   H2B 5563   6.059   1.179   9.786  0.0572 -0.0059 -0.1108
   42CHL1   C20 5564   6.328   0.963   8.870  0.2810 -0.4034  0.4237
   42CHL1   H20 5565   6.423   0.920   8.908  0.5937 -0.6563 -0.5986
   42CHL1   C21 5566   6.352   1.113   8.845  0.0194 -0.0726 -0.2284
   42CHL1  H21A 5567   6.446   1.139   8.792 -0.3905 -0.0762 -0.9663
   42CHL1  H21B 5568   6.335   1.179   8.933 -2.4261  1.2836 -1.5665
   42CHL1  H21C 5569   6.274   1.154   8.777  1.7976 -0.6297 -2.7180
   42CHL1   C22 5570   6.318   0.890   8.731 -0.8152  0.3839 -0.1144
   42CHL1  H22A 5571   6.320   0.782   8.755  0.6930  0.8003  1.9065
   42CHL1  H22B 5572   6.219   0.911   8.686 -1.7859 -1.7750  0.8559
   42CHL1   C23 5573   6.431   0.923   8.639 -0.6132 -0.3241 -0.3467
   42CHL1  H23A 5574   6.439   1.033   8.626 -1.3818 -0.1260  0.7739
   42CHL1  H23B 5575   6.523   0.899   8.695  0.1707 -0.7460 -1.7680
   42CHL1   C24 5576   6.432   0.846   8.511 -0.0437 -0.4585  0.1959
   42CHL1  H24A 5577   6.341   0.877   8.457  0.6253  1.5577  0.1119
   42CHL1  H24B 5578   6.523   0.867   8.451 -0.7318  1.3439 -0.2933
   42CHL1   C25 5579   6.441   0.695   8.530  0.2799  1.5595  0.2580
   42CHL1   H25 5580   6.360   0.650   8.591  0.0523 -2.4042 -2.5576
   42CHL1   C26 5581   6.436   0.608   8.396 -0.3861 -0.3514  0.1607
   42CHL1  H26A 5582   6.534   0.617   8.347  0.6186 -1.4300  1.8655
   42CHL1  H26B 5583   6.408   0.502   8.415 -1.2304 -0.3680 -1.0617
   42CHL1  H26C 5584   6.362   0.657   8.329  2.6821  1.8120 -1.8958
   42CHL1   C27 5585   6.581   0.660   8.595 -0.0014 -0.3777  0.9234
   42CHL1  H27A 5586   6.592   0.550   8.604  1.0727 -0.5533 -1.6650
   42CHL1  H27B 5587   6.665   0.708   8.539  0.4267 -1.6678  0.4338
   42CHL1  H27C 5588   6.586   0.699   8.700  0.2892  0.5445  0.5820
   43CHL1    C3 5589   0.366   2.118   9.930  0.0631  0.4805 -0.1366
   43CHL1    H3 5590   0.451   2.189   9.919 -0.2553  0.6073 -2.1217
   43CHL1    O3 5591   0.340   2.071  10.066 -0.3372 -0.0176  0.5687
   43CHL1   H3' 5592   0.250   2.096  10.087  0.4813  1.9453  1.9838
   43CHL1    C4 5593   0.244   2.195   9.886  0.1433  0.5497 -0.4798
   43CHL1   H4A 5594   0.162   2.122   9.901  1.0269 -0.3016  0.3054
   43CHL1   H4B 5595   0.219   2.281   9.952 -1.0729 -0.2773  0.1621
   43CHL1    C5 5596   0.261   2.236   9.739  0.7594  0.4518  0.0859
   43CHL1    C6 5597   0.259   2.368   9.698 -0.1743  0.0706 -0.2030
   43CHL1    H6 5598   0.258   2.456   9.764  3.3576  0.8327 -0.9210
   43CHL1    C7 5599   0.260   2.409   9.557  0.2604  0.3889  0.6054
   43CHL1   H7A 5600   0.180   2.482   9.534 -0.9606 -0.7118  1.2341
   43CHL1   H7B 5601   0.347   2.476   9.540  1.3293 -1.3290 -1.1110
   43CHL1    C8 5602   0.253   2.294   9.448 -0.7320 -0.7734 -0.2651
   43CHL1    H8 5603   0.143   2.275   9.440 -0.8791  0.4626 -1.4630
   43CHL1   C14 5604   0.311   2.335   9.315 -0.3995  0.2792  1.3942
   43CHL1   H14 5605   0.422   2.345   9.322 -0.2676  1.8223 -1.3550
   43CHL1   C15 5606   0.252   2.456   9.252  0.1069 -0.6437  0.1111
   43CHL1  H15A 5607   0.141   2.457   9.262  0.0344  1.9218 -0.2564
   43CHL1  H15B 5608   0.276   2.559   9.287  0.0251  0.1347 -1.9767
   43CHL1   C16 5609   0.289   2.455   9.101  0.2328  0.3946  0.9055
   43CHL1  H16A 5610   0.203   2.479   9.034  0.6834  2.7287  1.0860
   43CHL1  H16B 5611   0.374   2.525   9.090  0.6962  0.0424  2.1501
   43CHL1   C17 5612   0.342   2.304   9.078  0.9416  0.4076  0.5260
   43CHL1   H17 5613   0.452   2.302   9.094  1.1956 -2.2136 -0.9510
   43CHL1   C13 5614   0.291   2.227   9.198  1.0420 -0.0499 -0.0820
   43CHL1   C18 5615   0.140   2.194   9.176  0.1065  0.0153  0.2163
   43CHL1  H18A 5616   0.095   2.282   9.125  0.8987 -0.0194 -0.5644
   43CHL1  H18B 5617   0.134   2.101   9.115 -0.1726  0.4511 -0.4330
   43CHL1  H18C 5618   0.091   2.185   9.276 -1.0248  2.2535 -0.0778
   43CHL1   C12 5619   0.378   2.103   9.251 -0.4000 -0.1057 -0.2393
   43CHL1  H12A 5620   0.375   2.013   9.187  2.6636  0.1068 -0.8709
   43CHL1  H12B 5621   0.486   2.129   9.242 -0.4600  0.5811  0.8401
   43CHL1   C11 5622   0.341   2.053   9.393 -0.9107 -1.5639 -0.0022
   43CHL1  H11A 5623   0.245   2.000   9.374 -1.8942 -0.5405  1.8804
   43CHL1  H11B 5624   0.422   1.987   9.432  0.5926  0.4727  0.4836
   43CHL1    C9 5625   0.323   2.171   9.502 -0.2486  0.4164 -0.1709
   43CHL1    H9 5626   0.425   2.214   9.513 -0.2217  0.9490 -2.2312
   43CHL1   C10 5627   0.285   2.119   9.642  0.4950  0.0460  0.1337
   43CHL1   C19 5628   0.151   2.044   9.629  0.3666  0.2082  0.3568
   43CHL1  H19A 5629   0.103   2.032   9.728 -0.2790  1.0238  0.1605
   43CHL1  H19B 5630   0.074   2.086   9.561  0.5649  0.6914  0.4274
   43CHL1  H19C 5631   0.172   1.940   9.595 -0.1258  0.8027 -1.9609
   43CHL1    C1 5632   0.403   2.031   9.695 -0.0949 -0.0916  0.0089
   43CHL1   H1A 5633   0.406   1.937   9.636  2.2427  1.4119 -2.5137
   43CHL1   H1B 5634   0.495   2.092   9.690  0.1345 -0.3164  1.2036
   43CHL1    C2 5635   0.392   1.993   9.850  0.3347 -0.3055 -0.3933
   43CHL1   H2A 5636   0.491   1.948   9.875  1.4704  0.6484 -2.7787
   43CHL1   H2B 5637   0.308   1.924   9.871  0.1294  0.7255  2.5785
   43CHL1   C20 5638   0.328   2.253   8.933  0.2946 -0.4721 -0.2532
   43CHL1   H20 5639   0.221   2.255   8.901  0.0613 -1.1712  0.4778
   43CHL1   C21 5640   0.396   2.112   8.916 -0.2646 -0.3049  0.0833
   43CHL1  H21A 5641   0.386   2.088   8.808 -0.1113  0.8058 -0.1881
   43CHL1  H21B 5642   0.346   2.033   8.976 -0.1299 -1.1814 -0.9256
   43CHL1  H21C 5643   0.504   2.111   8.941  0.1188 -4.4635 -0.9970
   43CHL1   C22 5644   0.375   2.357   8.820 -0.1357  0.1424 -0.7846
   43CHL1  H22A 5645   0.337   2.458   8.846 -0.5289  0.0465 -0.9767
   43CHL1  H22B 5646   0.484   2.365   8.840 -0.2271 -1.7625  0.7873
   43CHL1   C23 5647   0.334   2.327   8.675 -0.2741  0.4457 -0.1107
   43CHL1  H23A 5648   0.351   2.226   8.632 -1.1704  1.0127 -1.8471
   43CHL1  H23B 5649   0.224   2.337   8.662 -0.1786 -0.7871 -2.3443
   43CHL1   C24 5650   0.397   2.421   8.579  0.8303 -0.0505  0.5373
   43CHL1  H24A 5651   0.355   2.414   8.476  0.6634 -0.8358  0.6558
   43CHL1  H24B 5652   0.404   2.521   8.627  0.4857 -0.6413  1.8601
   43CHL1   C25 5653   0.547   2.387   8.568  0.1493 -0.1671  0.2214
   43CHL1   H25 5654   0.599   2.402   8.665  0.0344  1.4019  0.0673
   43CHL1   C26 5655   0.579   2.245   8.520  0.5395 -0.7955 -0.4389
   43CHL1  H26A 5656   0.669   2.251   8.455  2.8383 -1.3499  2.5314
   43CHL1  H26B 5657   0.600   2.187   8.612  3.2831  1.0976  0.2583
   43CHL1  H26C 5658   0.494   2.211   8.455  1.7090 -0.8404 -2.0050
   43CHL1   C27 5659   0.598   2.496   8.467 -0.3901  0.6896  0.3362
   43CHL1  H27A 5660   0.709   2.487   8.461 -0.2900  2.1510 -0.3642
   43CHL1  H27B 5661   0.555   2.458   8.372 -0.3749 -1.8019  1.2501
   43CHL1  H27C 5662   0.563   2.598   8.493 -1.7389  0.2075  0.4679
   44CHL1    C3 5663   6.716   2.303  10.058  0.1104 -0.8558 -0.5309
   44CHL1    H3 5664   6.824   2.278  10.055  0.4249  0.2190  0.8272
   44CHL1    O3 5665   6.680   2.302  10.194 -0.3213 -0.3487  0.5268
   44CHL1   H3' 5666   6.731   2.375  10.229 -0.5177 -0.3535  0.8294
   44CHL1    C4 5667   6.684   2.447  10.006 -0.6225  0.3294 -0.4672
   44CHL1   H4A 5668   6.584   2.477  10.045 -0.4363  0.1226  0.1652
   44CHL1   H4B 5669   6.761   2.510  10.055  2.3173 -0.9642 -3.0562
   44CHL1    C5 5670   6.686   2.456   9.853  0.4640 -0.3682 -0.0230
   44CHL1    C6 5671   6.751   2.554   9.788  0.2825 -0.1449 -0.5789
   44CHL1    H6 5672   6.794   2.633   9.852  2.1417 -0.2092 -1.6636
   44CHL1    C7 5673   6.755   2.571   9.639  0.5932  0.5750  0.5826
   44CHL1   H7A 5674   6.751   2.676   9.602 -0.4838  0.2589 -0.2400
   44CHL1   H7B 5675   6.852   2.534   9.599  1.8578  2.5412  1.6176
   44CHL1    C8 5676   6.640   2.490   9.571  0.1472  0.4656  0.2339
   44CHL1    H8 5677   6.540   2.536   9.585  0.7533  1.5470  1.1460
   44CHL1   C14 5678   6.661   2.493   9.424 -0.6146  0.5294  0.8112
   44CHL1   H14 5679   6.767   2.458   9.418  0.0061  1.9372  2.7451
   44CHL1   C15 5680   6.662   2.623   9.342 -0.4002  0.4991  0.8231
   44CHL1  H15A 5681   6.566   2.674   9.366 -1.3590 -1.0837  0.5570
   44CHL1  H15B 5682   6.750   2.687   9.365 -0.2159  0.1228  1.1778
   44CHL1   C16 5683   6.674   2.569   9.197  0.4947  0.1040  0.1274
   44CHL1  H16A 5684   6.598   2.618   9.132 -0.7347 -1.3216  0.4417
   44CHL1  H16B 5685   6.777   2.583   9.157 -0.1960  0.5228 -1.5997
   44CHL1   C17 5686   6.641   2.416   9.209  0.5627 -0.4873 -0.7596
   44CHL1   H17 5687   6.736   2.358   9.211  0.2400 -1.0026 -0.2973
   44CHL1   C13 5688   6.576   2.398   9.349 -0.0925  0.7158 -0.6451
   44CHL1   C18 5689   6.431   2.444   9.343  0.3052 -0.3448 -0.4903
   44CHL1  H18A 5690   6.413   2.544   9.300 -3.0364  1.2150  3.7468
   44CHL1  H18B 5691   6.370   2.374   9.282  0.6502 -1.0895  0.0016
   44CHL1  H18C 5692   6.398   2.447   9.450  2.3631  1.7564  0.1566
   44CHL1   C12 5693   6.587   2.247   9.390 -0.2137 -0.9067 -0.6850
   44CHL1  H12A 5694   6.521   2.175   9.337  0.0611 -1.5700 -0.1382
   44CHL1  H12B 5695   6.693   2.214   9.380  0.5689 -0.0509  3.0645
   44CHL1   C11 5696   6.559   2.239   9.542  0.4043  0.3718  0.1848
   44CHL1  H11A 5697   6.451   2.254   9.565  0.7479  0.9708  1.5261
   44CHL1  H11B 5698   6.588   2.137   9.577  0.7899  0.5245  0.3095
   44CHL1    C9 5699   6.642   2.352   9.623 -0.5219  0.5858  0.3010
   44CHL1    H9 5700   6.745   2.316   9.603 -1.1757 -0.0431 -2.3994
   44CHL1   C10 5701   6.620   2.344   9.775 -0.1229  0.1029 -0.0345
   44CHL1   C19 5702   6.464   2.360   9.783 -0.1376  0.6086 -0.0535
   44CHL1  H19A 5703   6.407   2.272   9.748 -0.5041  0.5650  0.6247
   44CHL1  H19B 5704   6.428   2.388   9.884  0.2746 -1.8909  0.8530
   44CHL1  H19C 5705   6.428   2.450   9.728 -0.9710  0.3266  0.0177
   44CHL1    C1 5706   6.668   2.203   9.829 -0.1745 -0.2981  0.3672
   44CHL1   H1A 5707   6.603   2.128   9.778  0.8745  0.1049 -1.6662
   44CHL1   H1B 5708   6.770   2.176   9.795  0.2648 -1.6598  2.5907
   44CHL1    C2 5709   6.642   2.197   9.981  0.4436  0.0451  0.4386
   44CHL1   H2A 5710   6.663   2.095  10.020 -1.6962  0.1033  1.9297
   44CHL1   H2B 5711   6.535   2.215  10.002  0.1102 -0.0594 -1.0903
   44CHL1   C20 5712   6.561   2.364   9.088 -0.5920 -0.5197 -0.2010
   44CHL1   H20 5713   6.509   2.273   9.124 -0.0595 -0.8041 -0.1526
   44CHL1   C21 5714   6.672   2.323   8.993  0.1052  0.2215  0.3140
   44CHL1  H21A 5715   6.643   2.324   8.885 -0.0740 -2.8907  0.2533
   44CHL1  H21B 5716   6.712   2.227   9.030  0.5887  0.8278  1.4151
   44CHL1  H21C 5717   6.758   2.393   8.997  1.3403 -1.3008  1.0377
   44CHL1   C22 5718   6.459   2.458   9.022 -0.2046  0.3187 -0.2560
   44CHL1  H22A 5719   6.417   2.529   9.096 -1.3918  2.1120 -2.5188
   44CHL1  H22B 5720   6.521   2.522   8.956  0.3665  0.6162  0.5554
   44CHL1   C23 5721   6.361   2.380   8.931  0.0497  0.5415  0.0837
   44CHL1  H23A 5722   6.426   2.316   8.868  1.5627  3.4425 -1.4948
   44CHL1  H23B 5723   6.286   2.320   8.987 -0.6200  1.6722  0.4431
   44CHL1   C24 5724   6.276   2.468   8.842  0.8465  0.2200  0.3262
   44CHL1  H24A 5725   6.224   2.549   8.898  1.4451  1.1363 -0.4015
   44CHL1  H24B 5726   6.340   2.532   8.777  1.5026 -0.6990  0.0597
   44CHL1   C25 5727   6.174   2.389   8.748 -0.2536  0.7274 -0.2522
   44CHL1   H25 5728   6.213   2.286   8.731  0.3611  1.1092 -1.3193
   44CHL1   C26 5729   6.032   2.380   8.805  0.0625  0.2377  0.9101
   44CHL1  H26A 5730   6.003   2.484   8.830 -1.7066 -0.2394  1.0340
   44CHL1  H26B 5731   5.972   2.339   8.720  2.5120  1.6680 -1.6637
   44CHL1  H26C 5732   6.026   2.304   8.886  0.9680 -1.0944 -0.2273
   44CHL1   C27 5733   6.176   2.441   8.607 -0.1632 -0.3288  0.2648
   44CHL1  H27A 5734   6.258   2.514   8.592 -1.0748  0.9952  1.3994
   44CHL1  H27B 5735   6.207   2.355   8.545  0.1865  0.3339 -0.4919
   44CHL1  H27C 5736   6.087   2.493   8.567  0.8651 -0.1323 -1.8634
   45CHL1    C3 5737   3.923   6.820  10.265 -0.1286  0.1197 -0.4309
   45CHL1    H3 5738   4.006   6.876  10.312 -0.8638  0.0157  1.0337
   45CHL1    O3 5739   3.820   6.825  10.366 -0.1872 -0.2031  1.0760
   45CHL1   H3' 5740   3.767   6.747  10.349 -1.0236  0.4837  0.3929
   45CHL1    C4 5741   3.877   6.887  10.141  0.2662 -0.6921  0.2881
   45CHL1   H4A 5742   3.783   6.836  10.112 -0.0478  0.3030 -0.4792
   45CHL1   H4B 5743   3.862   6.995  10.163  0.5504 -0.4500 -0.6904
   45CHL1    C5 5744   3.977   6.878  10.026 -0.0513 -0.0294  0.1456
   45CHL1    C6 5745   4.023   6.988   9.959  0.1141 -0.1706 -0.3161
   45CHL1    H6 5746   3.998   7.092   9.983  0.3141 -0.3428  0.6757
   45CHL1    C7 5747   4.110   6.979   9.838  0.0051  0.9187 -0.1832
   45CHL1   H7A 5748   4.052   7.048   9.772 -1.5116  0.9716  1.1432
   45CHL1   H7B 5749   4.211   7.017   9.864  0.7346 -0.2133 -1.2591
   45CHL1    C8 5750   4.140   6.839   9.782  0.2491 -0.2963  0.4244
   45CHL1    H8 5751   4.248   6.844   9.756 -0.1152  0.8601 -1.0688
   45CHL1   C14 5752   4.069   6.815   9.645 -0.0644  0.7009  0.1028
   45CHL1   H14 5753   3.964   6.840   9.675 -0.2239 -2.1714  2.4099
   45CHL1   C15 5754   4.130   6.905   9.532  0.0511 -0.1943  0.3171
   45CHL1  H15A 5755   4.049   6.923   9.459 -0.2753  1.0161  0.9576
   45CHL1  H15B 5756   4.148   7.009   9.567 -1.1296 -0.1545  0.8567
   45CHL1   C16 5757   4.249   6.828   9.474  0.1864  0.4431  0.4384
   45CHL1  H16A 5758   4.251   6.844   9.364 -1.0419 -0.1301  0.3175
   45CHL1  H16B 5759   4.340   6.866   9.525  1.2400 -0.0865 -0.9603
   45CHL1   C17 5760   4.220   6.679   9.511  0.5807 -1.0026 -0.6855
   45CHL1   H17 5761   4.288   6.674   9.599  0.9535  2.9563 -0.5653
   45CHL1   C13 5762   4.082   6.672   9.586 -0.8175  0.1041  0.0371
   45CHL1   C18 5763   3.970   6.654   9.476 -0.0138 -0.2711 -0.0774
   45CHL1  H18A 5764   3.871   6.671   9.522 -0.8440 -0.2931 -1.7723
   45CHL1  H18B 5765   3.981   6.727   9.393  1.8152  1.3485  1.4888
   45CHL1  H18C 5766   3.977   6.556   9.423 -0.0905 -0.5966  0.5064
   45CHL1   C12 5767   4.078   6.556   9.694  0.8761  0.0047  0.5074
   45CHL1  H12A 5768   3.969   6.541   9.711  0.5334  0.0194 -1.5034
   45CHL1  H12B 5769   4.114   6.460   9.651 -0.9725 -0.6417  0.3422
   45CHL1   C11 5770   4.155   6.592   9.825 -0.1091  0.4119 -0.6316
   45CHL1  H11A 5771   4.139   6.519   9.907 -0.8599  0.6667 -0.5440
   45CHL1  H11B 5772   4.266   6.594   9.815  0.2451 -0.8615  2.2522
   45CHL1    C9 5773   4.127   6.728   9.886  0.2139  0.0835 -0.0686
   45CHL1    H9 5774   4.212   6.750   9.955 -0.4961 -1.9739  1.5621
   45CHL1   C10 5775   4.011   6.732   9.994  0.4731  0.1890  1.0667
   45CHL1   C19 5776   3.887   6.669   9.935 -0.3554 -0.1155 -0.2492
   45CHL1  H19A 5777   3.913   6.561   9.929 -0.1302 -0.0328 -0.8192
   45CHL1  H19B 5778   3.784   6.674   9.975 -0.6224  0.2021 -0.9571
   45CHL1  H19C 5779   3.875   6.710   9.832  0.6563  0.6629 -0.0756
   45CHL1    C1 5780   4.045   6.650  10.127 -0.2388 -0.3300  0.3826
   45CHL1   H1A 5781   4.051   6.539  10.115  1.4135 -0.5542  2.5415
   45CHL1   H1B 5782   4.143   6.689  10.160 -0.4331  1.8818 -1.4205
   45CHL1    C2 5783   3.948   6.671  10.243  0.2248 -0.3860  0.5602
   45CHL1   H2A 5784   3.987   6.625  10.336  2.5689 -1.3170 -0.7878
   45CHL1   H2B 5785   3.851   6.620  10.226  0.4782 -0.8758  0.5575
   45CHL1   C20 5786   4.264   6.572   9.414 -0.1685 -0.5514 -0.3762
   45CHL1   H20 5787   4.234   6.471   9.448  0.1313 -0.3148  0.6621
   45CHL1   C21 5788   4.416   6.576   9.434  0.4891  0.5209 -0.3163
   45CHL1  H21A 5789   4.466   6.675   9.430 -1.1743  1.4322  0.3658
   45CHL1  H21B 5790   4.466   6.515   9.356  2.2992  1.2091  0.2410
   45CHL1  H21C 5791   4.451   6.532   9.531 -0.0806 -0.8388 -0.7017
   45CHL1   C22 5792   4.235   6.608   9.266 -0.1242  0.6434  0.2955
   45CHL1  H22A 5793   4.135   6.656   9.258 -1.3291 -1.8418 -0.5659
   45CHL1  H22B 5794   4.309   6.672   9.214 -0.3217 -0.7359 -1.8042
   45CHL1   C23 5795   4.245   6.480   9.179  1.0406  0.1135 -0.1004
   45CHL1  H23A 5796   4.342   6.426   9.188  0.4600 -1.0410 -0.4599
   45CHL1  H23B 5797   4.171   6.414   9.229  2.4714  0.7243  3.0670
   45CHL1   C24 5798   4.196   6.500   9.030 -0.0484 -0.1807 -0.0799
   45CHL1  H24A 5799   4.090   6.534   9.024  0.3056  0.8223 -1.0095
   45CHL1  H24B 5800   4.260   6.582   8.993  1.2619  0.0254  2.4367
   45CHL1   C25 5801   4.220   6.389   8.931 -0.1821  0.0905 -0.5184
   45CHL1   H25 5802   4.159   6.302   8.964  0.5906 -0.3800 -0.3233
   45CHL1   C26 5803   4.172   6.427   8.789  0.5338  0.8823 -0.4788
   45CHL1  H26A 5804   4.062   6.440   8.784 -0.1812 -2.9252  1.4348
   45CHL1  H26B 5805   4.220   6.527   8.779  0.1405  1.1299  0.1144
   45CHL1  H26C 5806   4.199   6.344   8.719 -1.3868 -1.3036  1.2218
   45CHL1   C27 5807   4.370   6.350   8.929  0.8007 -0.5788  0.1347
   45CHL1  H27A 5808   4.388   6.263   8.862  0.0530  0.0606 -0.9156
   45CHL1  H27B 5809   4.436   6.433   8.896  2.3356 -2.1200 -0.8709
   45CHL1  H27C 5810   4.402   6.314   9.029  1.4063 -0.6878 -0.0967
   46CHL1    C3 5811   4.955   6.189   9.960 -0.3852  0.2469 -0.2710
   46CHL1    H3 5812   4.877   6.243   9.903 -2.4559 -0.9611  1.2410
   46CHL1    O3 5813   4.921   6.203  10.094  0.1154  0.4369 -0.1947
   46CHL1   H3' 5814   4.855   6.137  10.117  0.7204  0.7843  2.9644
   46CHL1    C4 5815   4.972   6.041   9.918 -0.5993 -0.5382  0.1701
   46CHL1   H4A 5816   5.058   5.997   9.973  0.4794  0.6394 -0.4978
   46CHL1   H4B 5817   4.883   5.981   9.945 -0.3910 -1.9264 -1.9936
   46CHL1    C5 5818   5.013   6.027   9.770  0.2101 -0.2677 -1.1153
   46CHL1    C6 5819   4.939   5.945   9.692 -0.0024  0.5111 -0.4237
   46CHL1    H6 5820   4.851   5.899   9.740  0.2406  2.2948  1.9166
   46CHL1    C7 5821   4.969   5.930   9.544  0.5189  0.5516 -0.2875
   46CHL1   H7A 5822   4.981   5.823   9.517 -0.6764  0.1807  0.5491
   46CHL1   H7B 5823   4.876   5.960   9.491 -0.6405  0.6732  1.6866
   46CHL1    C8 5824   5.093   6.002   9.488  0.0815 -1.0390 -0.4683
   46CHL1    H8 5825   5.181   5.936   9.503  0.7514  0.0358  0.4580
   46CHL1   C14 5826   5.079   6.023   9.335  0.6591  0.1772 -0.6715
   46CHL1   H14 5827   4.993   6.094   9.326  0.7567  0.5790  1.0598
   46CHL1   C15 5828   5.047   5.901   9.254 -0.3805 -0.3200  0.1160
   46CHL1  H15A 5829   5.104   5.815   9.295 -1.3777 -0.9033  0.3328
   46CHL1  H15B 5830   4.940   5.872   9.269  0.5281 -3.4822  1.1933
   46CHL1   C16 5831   5.094   5.940   9.112  0.2139  0.0914 -0.2709
   46CHL1  H16A 5832   5.170   5.867   9.078  0.6987  0.9335 -1.0293
   46CHL1  H16B 5833   5.009   5.939   9.041  0.7056  0.7619 -0.8839
   46CHL1   C17 5834   5.151   6.084   9.121  0.0875  0.3562 -0.2983
   46CHL1   H17 5835   5.065   6.153   9.106 -2.2989 -1.8068  2.1814
   46CHL1   C13 5836   5.193   6.095   9.271 -0.2536 -0.8864  0.5783
   46CHL1   C18 5837   5.323   6.015   9.286  0.7660 -0.7246 -0.1688
   46CHL1  H18A 5838   5.403   6.067   9.229  2.0349 -1.0581  1.2566
   46CHL1  H18B 5839   5.366   6.006   9.388 -0.0200  2.2062  0.5293
   46CHL1  H18C 5840   5.326   5.915   9.238  1.4859  0.1086 -1.9187
   46CHL1   C12 5841   5.219   6.229   9.345 -0.3037 -0.1165  0.1710
   46CHL1  H12A 5842   5.306   6.285   9.305  0.1341  0.0655  1.3187
   46CHL1  H12B 5843   5.122   6.284   9.335 -0.6634 -1.0748 -1.9204
   46CHL1   C11 5844   5.231   6.219   9.499  0.1258  0.8134 -0.3922
   46CHL1  H11A 5845   5.327   6.169   9.522 -1.7792 -1.8817  2.3372
   46CHL1  H11B 5846   5.219   6.319   9.548 -1.7684  0.6565 -0.4653
   46CHL1    C9 5847   5.120   6.134   9.561  0.1753 -0.0159  0.4245
   46CHL1    H9 5848   5.027   6.191   9.538  0.2070  0.4563  1.4169
   46CHL1   C10 5849   5.125   6.121   9.718  0.3241  0.6830 -0.5147
   46CHL1   C19 5850   5.257   6.046   9.764  0.3340 -0.5080  0.0294
   46CHL1  H19A 5851   5.284   5.976   9.682  1.0971 -1.6011  1.1671
   46CHL1  H19B 5852   5.342   6.117   9.766 -0.2722  0.2273  0.3291
   46CHL1  H19C 5853   5.257   5.989   9.860 -0.2182 -0.9906 -0.2506
   46CHL1    C1 5854   5.106   6.262   9.780 -0.1568  0.6438  0.8017
   46CHL1   H1A 5855   5.198   6.323   9.766  0.7530  0.2063  4.0096
   46CHL1   H1B 5856   5.020   6.317   9.737  0.9977  1.5280 -0.4488
   46CHL1    C2 5857   5.080   6.269   9.933 -0.2772  0.2532 -0.1007
   46CHL1   H2A 5858   5.071   6.374   9.968 -0.3948  0.3229 -0.3379
   46CHL1   H2B 5859   5.159   6.219   9.993 -0.7810  0.6572  0.9247
   46CHL1   C20 5860   5.250   6.111   9.008 -0.0506  0.3453  0.1394
   46CHL1   H20 5861   5.328   6.033   9.019 -1.7276 -1.2800  0.9444
   46CHL1   C21 5862   5.317   6.258   9.012 -0.9023  0.2062 -0.1528
   46CHL1  H21A 5863   5.368   6.285   8.918  0.1032  0.6671  0.5067
   46CHL1  H21B 5864   5.387   6.267   9.098  0.5914 -1.8355 -1.0790
   46CHL1  H21C 5865   5.233   6.325   9.044  0.5742  1.2737  1.7426
   46CHL1   C22 5866   5.187   6.093   8.873 -0.0982  0.3517  0.4754
   46CHL1  H22A 5867   5.140   5.992   8.866  1.7416 -0.4476 -0.9330
   46CHL1  H22B 5868   5.114   6.174   8.854  2.1437  2.7368  1.5245
   46CHL1   C23 5869   5.277   6.096   8.750 -0.1076 -0.2957  0.6794
   46CHL1  H23A 5870   5.321   6.197   8.738  0.1700 -0.5972 -1.2037
   46CHL1  H23B 5871   5.359   6.026   8.776  0.7753  1.2168  2.0855
   46CHL1   C24 5872   5.222   6.048   8.616  0.5112  0.1295  0.2674
   46CHL1  H24A 5873   5.303   6.050   8.540  1.5450  1.6743  1.3575
   46CHL1  H24B 5874   5.189   5.942   8.620  3.0076 -0.6950  1.0490
   46CHL1   C25 5875   5.100   6.128   8.561  0.3203  0.2898  0.0167
   46CHL1   H25 5876   5.021   6.135   8.639  0.2118  1.0225 -0.1428
   46CHL1   C26 5877   5.145   6.279   8.531 -0.3060 -0.6724 -0.1171
   46CHL1  H26A 5878   5.161   6.334   8.626  0.4424 -0.3662 -0.4202
   46CHL1  H26B 5879   5.232   6.280   8.462 -0.7053  0.8909 -0.6422
   46CHL1  H26C 5880   5.054   6.330   8.492 -1.4229 -0.4004  2.6464
   46CHL1   C27 5881   5.039   6.057   8.436  0.7319  0.7718 -0.4103
   46CHL1  H27A 5882   5.055   5.949   8.455  1.0090  0.0558 -4.0313
   46CHL1  H27B 5883   4.935   6.088   8.412  0.4275  0.7161  0.7825
   46CHL1  H27C 5884   5.092   6.076   8.341  0.7318 -2.5692 -1.1970
   47CHL1    C3 5885   6.680   1.056   9.817  0.7894 -0.1763  0.1136
   47CHL1    H3 5886   6.685   0.946   9.802 -1.6605 -0.8022  3.0315
   47CHL1    O3 5887   6.651   1.076   9.954  0.3354 -0.2065 -0.4499
   47CHL1   H3' 5888   6.707   1.147   9.986 -0.0788  0.1052 -0.4082
   47CHL1    C4 5889   6.806   1.142   9.777  0.1485 -0.5886 -0.0790
   47CHL1   H4A 5890   6.788   1.248   9.802 -3.0272 -0.4605 -2.2787
   47CHL1   H4B 5891   6.901   1.122   9.831 -0.5530 -2.2594  0.6306
   47CHL1    C5 5892   6.827   1.124   9.626 -0.4875  0.3015 -0.1478
   47CHL1    C6 5893   6.947   1.089   9.592  1.0091 -0.1357  0.1281
   47CHL1    H6 5894   7.025   1.087   9.670  0.4985  1.5259  0.7396
   47CHL1    C7 5895   6.994   1.081   9.445  0.4064  0.2886  0.8580
   47CHL1   H7A 5896   7.087   1.141   9.434 -0.6880  1.9067  0.0048
   47CHL1   H7B 5897   7.017   0.978   9.413  0.0533 -0.0708  1.7390
   47CHL1    C8 5898   6.891   1.151   9.348 -0.6773  0.0560 -0.1421
   47CHL1    H8 5899   6.899   1.260   9.364 -1.3520 -0.1112  1.7023
   47CHL1   C14 5900   6.913   1.108   9.204 -0.0817 -1.0350  0.1944
   47CHL1   H14 5901   6.891   0.999   9.205  1.2785 -1.3566 -0.9344
   47CHL1   C15 5902   7.055   1.120   9.149  0.3702  0.3330  0.0857
   47CHL1  H15A 5903   7.109   1.210   9.186 -0.2323  1.5426 -1.7798
   47CHL1  H15B 5904   7.114   1.028   9.166 -2.4077 -1.3988  0.9913
   47CHL1   C16 5905   7.040   1.118   8.996 -1.1538  0.2412 -0.0210
   47CHL1  H16A 5906   7.063   1.216   8.949 -1.3966 -0.0018 -0.6472
   47CHL1  H16B 5907   7.106   1.042   8.950  0.0480  0.1950  1.6682
   47CHL1   C17 5908   6.891   1.091   8.971  0.4235 -0.0564 -1.0626
   47CHL1   H17 5909   6.867   0.982   8.972  0.1943 -0.0143 -1.4836
   47CHL1   C13 5910   6.826   1.161   9.098 -0.1392  0.4523  0.0035
   47CHL1   C18 5911   6.859   1.311   9.095  0.5572 -0.2608 -0.4480
   47CHL1  H18A 5912   6.966   1.341   9.092  0.6486 -0.5220  0.0387
   47CHL1  H18B 5913   6.807   1.356   9.008 -1.0317 -0.0319  0.5806
   47CHL1  H18C 5914   6.822   1.364   9.185  1.7187  0.2365 -0.2477
   47CHL1   C12 5915   6.678   1.130   9.130 -0.1200  0.3695  0.5203
   47CHL1  H12A 5916   6.598   1.177   9.069 -1.2620  0.2603  1.8907
   47CHL1  H12B 5917   6.672   1.020   9.114 -2.5574  0.6049 -0.5360
   47CHL1   C11 5918   6.641   1.153   9.278  0.7296 -0.4409 -0.1000
   47CHL1  H11A 5919   6.640   1.263   9.295  3.7890 -0.0062 -1.9895
   47CHL1  H11B 5920   6.542   1.109   9.302 -0.6177  0.1253 -3.9381
   47CHL1    C9 5921   6.742   1.109   9.390 -0.2298  0.3412 -0.3688
   47CHL1    H9 5922   6.750   0.998   9.391  2.9976  0.4930 -0.2311
   47CHL1   C10 5923   6.708   1.154   9.537  0.2898  0.2305  0.2054
   47CHL1   C19 5924   6.681   1.309   9.547  0.4955  0.2606 -0.0108
   47CHL1  H19A 5925   6.751   1.374   9.490 -1.3040  0.8497 -1.6288
   47CHL1  H19B 5926   6.584   1.324   9.495 -0.6752 -2.4079  1.1979
   47CHL1  H19C 5927   6.684   1.354   9.648 -0.1399  1.2865 -0.4419
   47CHL1    C1 5928   6.590   1.068   9.589 -0.2416  0.0492  1.0028
   47CHL1   H1A 5929   6.495   1.091   9.535 -0.3283  1.5254  1.7179
   47CHL1   H1B 5930   6.615   0.962   9.570 -0.2675  0.4369 -1.5519
   47CHL1    C2 5931   6.561   1.096   9.736  0.4499 -0.4736  0.4793
   47CHL1   H2A 5932   6.472   1.036   9.766 -0.6539  0.4345 -0.8964
   47CHL1   H2B 5933   6.542   1.204   9.749  0.4551 -0.2277 -1.3330
   47CHL1   C20 5934   6.834   1.135   8.835 -0.1088  0.1504  0.1142
   47CHL1   H20 5935   6.826   1.246   8.838 -2.3924  0.0152  2.1814
   47CHL1   C21 5936   6.708   1.055   8.808 -0.2330 -0.3065  0.1950
   47CHL1  H21A 5937   6.620   1.086   8.869 -0.2994 -0.2126  0.0518
   47CHL1  H21B 5938   6.717   0.945   8.820  0.1262 -0.7238 -2.9676
   47CHL1  H21C 5939   6.680   1.074   8.702 -0.0128 -1.2757 -0.0455
   47CHL1   C22 5940   6.936   1.106   8.720  0.0138  0.0023  0.1011
   47CHL1  H22A 5941   7.037   1.144   8.747  0.1228  1.4488 -2.0750
   47CHL1  H22B 5942   6.949   0.998   8.698 -1.6801  0.0001 -0.9983
   47CHL1   C23 5943   6.894   1.181   8.592 -0.2086 -0.1145 -0.1753
   47CHL1  H23A 5944   6.815   1.123   8.542 -1.1422  2.1167 -1.4140
   47CHL1  H23B 5945   6.859   1.285   8.607  2.5633  1.2037 -2.0150
   47CHL1   C24 5946   7.019   1.179   8.492  0.0096 -0.6868  0.5706
   47CHL1  H24A 5947   7.114   1.202   8.544 -0.4343 -1.1564  1.6317
   47CHL1  H24B 5948   7.033   1.076   8.454  0.2748 -0.3133 -0.3504
   47CHL1   C25 5949   7.011   1.273   8.362  0.6655  0.0065 -0.4273
   47CHL1   H25 5950   6.907   1.274   8.322 -0.0295 -0.2358  1.2998
   47CHL1   C26 5951   7.046   1.416   8.394  0.3863  0.2283  0.5758
   47CHL1  H26A 5952   6.999   1.456   8.486  0.4574  0.1430  0.6496
   47CHL1  H26B 5953   7.010   1.480   8.311  1.1001 -1.1117 -0.8180
   47CHL1  H26C 5954   7.157   1.425   8.393  0.6145 -2.0240 -0.7053
   47CHL1   C27 5955   7.101   1.213   8.253  0.6055  0.5581  0.2164
   47CHL1  H27A 5956   7.043   1.129   8.210 -0.1669  1.9293 -1.5610
   47CHL1  H27B 5957   7.117   1.301   8.186 -0.4076  0.7300  0.1983
   47CHL1  H27C 5958   7.200   1.185   8.296  1.7237  3.2147 -0.3871
   48CHL1    C3 5959   1.140   2.973  10.043 -0.5469 -0.4304 -0.2243
   48CHL1    H3 5960   1.224   2.922   9.989 -0.6976  0.1736 -1.0482
   48CHL1    O3 5961   1.120   2.904  10.168  0.2556  0.0644 -0.2718
   48CHL1   H3' 5962   1.196   2.923  10.223 -1.1461  1.0457  1.4181
   48CHL1    C4 5963   1.188   3.120  10.071  0.0909 -0.3717  0.0973
   48CHL1   H4A 5964   1.124   3.166  10.150 -0.3113  0.0602 -0.4673
   48CHL1   H4B 5965   1.283   3.112  10.127 -0.6514 -2.5041  1.1397
   48CHL1    C5 5966   1.222   3.194   9.939  0.1813 -0.0930  0.4574
   48CHL1    C6 5967   1.351   3.236   9.917  0.2649  0.1062 -0.3991
   48CHL1    H6 5968   1.428   3.236   9.996 -1.1994  0.6835  1.0869
   48CHL1    C7 5969   1.380   3.325   9.796  0.2869  0.0854  0.0146
   48CHL1   H7A 5970   1.434   3.415   9.831  1.6906 -0.7642  0.1067
   48CHL1   H7B 5971   1.442   3.265   9.727 -0.6876 -1.7917  0.7039
   48CHL1    C8 5972   1.254   3.373   9.721 -0.4636  1.1036 -0.0925
   48CHL1    H8 5973   1.216   3.465   9.769 -2.9278 -0.3498  0.9556
   48CHL1   C14 5974   1.307   3.394   9.581  0.1768 -0.0376  0.9936
   48CHL1   H14 5975   1.337   3.296   9.538  2.1614  0.7681  0.4410
   48CHL1   C15 5976   1.430   3.485   9.548 -0.3064  0.7138 -0.1049
   48CHL1  H15A 5977   1.424   3.561   9.628  1.3617 -1.2567  2.0488
   48CHL1  H15B 5978   1.528   3.434   9.555 -0.4091  0.6264  0.8852
   48CHL1   C16 5979   1.411   3.540   9.408  0.1082 -0.0207 -0.2759
   48CHL1  H16A 5980   1.389   3.649   9.404 -2.9673 -0.5696 -0.1533
   48CHL1  H16B 5981   1.500   3.510   9.348 -0.1350 -1.4805  0.0626
   48CHL1   C17 5982   1.278   3.478   9.357  0.1097  0.5511 -0.5460
   48CHL1   H17 5983   1.308   3.377   9.323 -1.3793 -0.0209 -0.2053
   48CHL1   C13 5984   1.199   3.458   9.491  0.6832 -0.1216 -0.7178
   48CHL1   C18 5985   1.148   3.592   9.547 -0.4869  0.1762 -0.2406
   48CHL1  H18A 5986   1.237   3.648   9.583 -1.7912  3.5795 -1.7843
   48CHL1  H18B 5987   1.108   3.656   9.466  2.2678  1.6017 -0.5982
   48CHL1  H18C 5988   1.075   3.576   9.630 -0.3103 -0.3612 -0.1890
   48CHL1   C12 5989   1.082   3.359   9.478  0.0607 -0.1458 -0.1029
   48CHL1  H12A 5990   0.995   3.403   9.425  0.8173  0.1759 -1.1217
   48CHL1  H12B 5991   1.114   3.277   9.410  0.2062  0.1735 -0.4246
   48CHL1   C11 5992   1.032   3.317   9.618 -0.7944 -0.0884  0.3534
   48CHL1  H11A 5993   0.981   3.406   9.660 -1.1081  0.5139 -1.2179
   48CHL1  H11B 5994   0.961   3.232   9.613  0.3742 -1.0299 -1.1484
   48CHL1    C9 5995   1.147   3.266   9.705  0.7485  0.6455  0.3256
   48CHL1    H9 5996   1.195   3.184   9.647  0.7459  1.4391 -0.8225
   48CHL1   C10 5997   1.104   3.202   9.838 -0.4912 -0.0105 -0.5558
   48CHL1   C19 5998   0.988   3.296   9.890  0.2452 -0.7258  0.1577
   48CHL1  H19A 5999   1.010   3.404   9.889  0.7584 -0.8190 -1.4992
   48CHL1  H19B 6000   0.902   3.261   9.830 -0.6334 -3.9196  2.9370
   48CHL1  H19C 6001   0.962   3.258   9.991  0.3836  0.8711  0.8188
   48CHL1    C1 6002   1.055   3.055   9.817  0.2268 -0.5446 -0.2101
   48CHL1   H1A 6003   0.964   3.072   9.756 -0.1740  2.7152  1.1296
   48CHL1   H1B 6004   1.133   3.004   9.756  0.1850 -0.4484 -0.3451
   48CHL1    C2 6005   1.024   2.975   9.944 -0.0972 -0.0756 -0.8305
   48CHL1   H2A 6006   1.003   2.870   9.917  2.3801 -0.9422  0.3154
   48CHL1   H2B 6007   0.935   3.009  10.000  1.1499 -0.8670  1.7662
   48CHL1   C20 6008   1.217   3.550   9.237  0.0391 -0.2209  0.5140
   48CHL1   H20 6009   1.194   3.656   9.261  1.3101 -0.0473  1.0610
   48CHL1   C21 6010   1.092   3.482   9.177  0.4899 -0.1095 -0.7517
   48CHL1  H21A 6011   0.999   3.478   9.238 -0.7428 -2.0324 -2.6088
   48CHL1  H21B 6012   1.124   3.380   9.149 -0.3193 -0.4594 -0.4307
   48CHL1  H21C 6013   1.062   3.541   9.087  1.7971 -0.2411 -1.3015
   48CHL1   C22 6014   1.333   3.551   9.127 -0.5677  0.5175 -0.1746
   48CHL1  H22A 6015   1.422   3.596   9.176 -0.0122  0.7107 -1.3144
   48CHL1  H22B 6016   1.351   3.444   9.101 -4.5774 -0.1856 -0.6946
   48CHL1   C23 6017   1.291   3.626   8.994  0.2345 -0.9865  0.0020
   48CHL1  H23A 6018   1.210   3.568   8.946 -0.0478 -0.7394  0.1755
   48CHL1  H23B 6019   1.252   3.728   9.017  1.5405  0.2245 -2.6310
   48CHL1   C24 6020   1.402   3.649   8.890 -0.2266  1.0791  0.2120
   48CHL1  H24A 6021   1.497   3.659   8.946 -0.4381  2.2612  0.3958
   48CHL1  H24B 6022   1.405   3.553   8.835 -4.3452 -0.2295  1.8736
   48CHL1   C25 6023   1.396   3.773   8.794 -0.3479  0.3939 -0.4853
   48CHL1   H25 6024   1.488   3.765   8.732  0.8538  0.4648  1.1942
   48CHL1   C26 6025   1.284   3.777   8.686  0.5714  0.3572 -0.0863
   48CHL1  H26A 6026   1.185   3.776   8.736  1.2602 -1.9390  1.4073
   48CHL1  H26B 6027   1.280   3.863   8.616 -0.5597  0.4573  0.0900
   48CHL1  H26C 6028   1.295   3.684   8.625  0.9263 -2.5810  4.0084
   48CHL1   C27 6029   1.404   3.902   8.879 -0.2923  1.0618 -0.0581
   48CHL1  H27A 6030   1.491   3.908   8.948  0.0091  2.2731 -0.5200
   48CHL1  H27B 6031   1.399   3.991   8.813 -1.6671  1.5135  0.6331
   48CHL1  H27C 6032   1.312   3.908   8.941  0.3482  1.7774  0.8500
   49CHL1    C3 6033   5.969   4.527   9.971  0.2362 -0.0637  0.2244
   49CHL1    H3 6034   5.881   4.590   9.945  0.8936  1.2065  0.9539
   49CHL1    O3 6035   5.990   4.523  10.112  0.0280  0.1537  0.0629
   49CHL1   H3' 6036   6.082   4.503  10.131 -0.6735 -0.2190  3.6666
   49CHL1    C4 6037   5.939   4.378   9.932  0.0210  0.2363 -0.5486
   49CHL1   H4A 6038   6.003   4.291   9.957 -2.0688 -1.9428 -2.2531
   49CHL1   H4B 6039   5.841   4.359   9.982  1.3859  1.0806  2.6680
   49CHL1    C5 6040   5.923   4.369   9.785 -0.0195  0.2326  0.3649
   49CHL1    C6 6041   5.816   4.312   9.724 -0.3022 -0.2298 -0.3206
   49CHL1    H6 6042   5.728   4.275   9.779  0.2925  0.2957  1.0232
   49CHL1    C7 6043   5.799   4.300   9.579  0.0221 -0.3602  0.0000
   49CHL1   H7A 6044   5.746   4.205   9.557 -0.8555  0.5903 -2.4382
   49CHL1   H7B 6045   5.727   4.379   9.546 -1.3250 -0.8319  1.6428
   49CHL1    C8 6046   5.933   4.306   9.502  0.4023  0.5551  0.4978
   49CHL1    H8 6047   5.985   4.210   9.519 -0.7704  0.0966  1.6518
   49CHL1   C14 6048   5.919   4.324   9.353 -0.3968 -0.5504  0.1309
   49CHL1   H14 6049   5.877   4.424   9.329  0.0643 -0.5672 -0.7960
   49CHL1   C15 6050   5.825   4.225   9.287  0.6278 -0.0999 -0.0750
   49CHL1  H15A 6051   5.841   4.124   9.332 -0.1167  0.3453  1.2545
   49CHL1  H15B 6052   5.718   4.250   9.302  0.8205 -0.2904  1.8538
   49CHL1   C16 6053   5.869   4.228   9.142 -0.4110  0.9844  0.3480
   49CHL1  H16A 6054   5.904   4.130   9.105 -0.4833  0.9409  0.3936
   49CHL1  H16B 6055   5.791   4.253   9.067 -0.6775  0.0839  0.3126
   49CHL1   C17 6056   5.991   4.326   9.136  0.7585 -0.2888  0.3897
   49CHL1   H17 6057   5.942   4.424   9.116 -0.0619 -0.6624  0.5199
   49CHL1   C13 6058   6.052   4.324   9.278  0.0575  0.0064 -0.6933
   49CHL1   C18 6059   6.124   4.195   9.288 -0.2484 -0.4031  0.2183
   49CHL1  H18A 6060   6.210   4.193   9.218 -0.0184 -1.6819  0.5155
   49CHL1  H18B 6061   6.179   4.172   9.382  0.7431  0.3801 -0.1436
   49CHL1  H18C 6062   6.065   4.103   9.268  3.7216 -2.5457 -3.1175
   49CHL1   C12 6063   6.146   4.443   9.320  0.2773 -0.0186 -0.3076
   49CHL1  H12A 6064   6.245   4.446   9.268  0.7577 -1.8026  0.4220
   49CHL1  H12B 6065   6.093   4.540   9.308  0.1881  0.6985  4.1371
   49CHL1   C11 6066   6.170   4.431   9.471  0.1978 -0.1264 -1.1431
   49CHL1  H11A 6067   6.223   4.339   9.504  1.9499  1.1507 -0.2963
   49CHL1  H11B 6068   6.232   4.512   9.513 -0.6686  0.1638 -0.3771
   49CHL1    C9 6069   6.027   4.420   9.553 -0.3413 -0.1728  0.6234
   49CHL1    H9 6070   5.977   4.512   9.517  0.3672  0.1072  0.3514
   49CHL1   C10 6071   6.047   4.428   9.710  0.2904 -0.0464 -0.5922
   49CHL1   C19 6072   6.170   4.334   9.751 -0.1392  0.6302 -0.0237
   49CHL1  H19A 6073   6.266   4.372   9.710  0.1628 -1.7307 -1.7192
   49CHL1  H19B 6074   6.189   4.327   9.860  1.2011  2.4248 -0.0984
   49CHL1  H19C 6075   6.145   4.234   9.710 -1.9422  0.6658  0.8758
   49CHL1    C1 6076   6.072   4.580   9.751 -0.1331  0.8113 -0.3705
   49CHL1   H1A 6077   6.167   4.614   9.704  1.8807 -1.3392  1.8204
   49CHL1   H1B 6078   5.981   4.640   9.730 -0.7355  0.1417  0.2623
   49CHL1    C2 6079   6.093   4.590   9.902  0.2228 -0.0541  0.0170
   49CHL1   H2A 6080   6.107   4.696   9.932 -0.2355  0.2947 -0.9469
   49CHL1   H2B 6081   6.179   4.527   9.933 -0.2663 -0.8854 -0.2694
   49CHL1   C20 6082   6.081   4.308   9.012  0.5519 -0.7452  0.0114
   49CHL1   H20 6083   6.103   4.200   9.019 -1.1815 -1.0120  3.0368
   49CHL1   C21 6084   6.210   4.401   9.017 -0.3414 -0.9222 -0.8211
   49CHL1  H21A 6085   6.288   4.361   9.085  0.1816 -1.5112 -1.7492
   49CHL1  H21B 6086   6.190   4.503   9.057 -0.0859 -1.6292  1.1991
   49CHL1  H21C 6087   6.249   4.389   8.913  1.6110 -0.1139 -0.2210
   49CHL1   C22 6088   5.998   4.339   8.883 -0.5517 -0.4052  0.1803
   49CHL1  H22A 6089   5.895   4.300   8.874 -0.3574 -0.8682 -0.0729
   49CHL1  H22B 6090   5.986   4.449   8.876  1.8290 -0.1382 -0.8585
   49CHL1   C23 6091   6.068   4.304   8.749  0.2626  0.1876  0.5119
   49CHL1  H23A 6092   6.155   4.371   8.731 -0.3790  1.0029  0.4217
   49CHL1  H23B 6093   6.105   4.200   8.762 -0.4714 -0.1151  0.2373
   49CHL1   C24 6094   5.985   4.331   8.627  0.4523  0.2128 -0.5949
   49CHL1  H24A 6095   5.887   4.285   8.653  1.5800 -0.9470  1.9218
   49CHL1  H24B 6096   5.969   4.441   8.614  1.3388  0.3862 -0.2794
   49CHL1   C25 6097   6.040   4.273   8.503 -0.4921 -0.4770  0.5456
   49CHL1   H25 6098   6.146   4.305   8.491 -1.0420  1.2937  0.0680
   49CHL1   C26 6099   6.032   4.119   8.490 -0.7918 -0.1078 -0.0340
   49CHL1  H26A 6100   5.928   4.083   8.483  0.0368 -2.6467 -0.3218
   49CHL1  H26B 6101   6.082   4.086   8.397  1.1846  0.9836  0.5681
   49CHL1  H26C 6102   6.075   4.075   8.583  1.7608 -0.0772 -1.1250
   49CHL1   C27 6103   5.966   4.333   8.380  0.7066 -0.2726 -0.1635
   49CHL1  H27A 6104   5.999   4.283   8.286  2.3926 -0.2127  0.3629
   49CHL1  H27B 6105   5.856   4.333   8.394  0.2990  0.3551 -2.9211
   49CHL1  H27C 6106   5.987   4.442   8.371 -0.3545 -0.2378 -3.8652
   50CHL1    C3 6107   1.859   0.490   9.914 -0.6231  0.9902 -0.1638
   50CHL1    H3 6108   1.784   0.410   9.931 -1.6277  1.9741  0.1819
   50CHL1    O3 6109   1.866   0.565  10.033 -0.7091 -0.1005 -0.0124
   50CHL1   H3' 6110   1.958   0.592  10.035 -0.3546 -1.2810  1.2520
   50CHL1    C4 6111   2.005   0.431   9.886 -0.1944 -0.6252  0.0476
   50CHL1   H4A 6112   2.074   0.516   9.902  0.0865 -0.9813  0.7775
   50CHL1   H4B 6113   2.021   0.356   9.967  2.0578  1.9850  2.1963
   50CHL1    C5 6114   2.035   0.382   9.749 -0.2858 -0.5802  0.5737
   50CHL1    C6 6115   2.106   0.275   9.728  0.2997  0.5409 -0.2303
   50CHL1    H6 6116   2.145   0.219   9.814 -1.2818 -1.7564 -0.9075
   50CHL1    C7 6117   2.127   0.205   9.591 -0.0823 -0.2630 -1.0089
   50CHL1   H7A 6118   2.233   0.172   9.589  0.6141  1.4964  1.5284
   50CHL1   H7B 6119   2.058   0.120   9.577 -0.4412 -0.5891  2.0283
   50CHL1    C8 6120   2.102   0.309   9.482 -0.1805 -0.9447  0.8299
   50CHL1    H8 6121   2.192   0.373   9.475 -0.0184 -1.2800 -0.3901
   50CHL1   C14 6122   2.080   0.225   9.351 -0.3097 -0.2762  0.0837
   50CHL1   H14 6123   1.994   0.155   9.348  1.1205 -2.0918 -0.3840
   50CHL1   C15 6124   2.197   0.130   9.310  0.5904 -0.0822  0.1816
   50CHL1  H15A 6125   2.289   0.190   9.323  1.3631 -1.3436  0.7867
   50CHL1  H15B 6126   2.193   0.033   9.365 -3.6361  0.1484  0.6398
   50CHL1   C16 6127   2.170   0.098   9.160  0.2111 -0.7405  0.4439
   50CHL1  H16A 6128   2.264   0.117   9.104 -0.8629  0.3400 -1.0557
   50CHL1  H16B 6129   2.115   0.002   9.149 -2.4531  0.9445 -1.8315
   50CHL1   C17 6130   2.059   0.204   9.119  0.0691 -0.2447  0.2662
   50CHL1   H17 6131   1.961   0.152   9.127  0.2337 -0.5797  0.1100
   50CHL1   C13 6132   2.054   0.318   9.231  0.5206  0.1703 -0.7384
   50CHL1   C18 6133   2.165   0.425   9.214  0.4309 -0.1544  0.0740
   50CHL1  H18A 6134   2.253   0.379   9.164  0.0109  0.9092 -1.7348
   50CHL1  H18B 6135   2.123   0.505   9.149 -0.4203 -0.1884  0.5657
   50CHL1  H18C 6136   2.203   0.477   9.304  2.2508 -0.2248 -0.6199
   50CHL1   C12 6137   1.921   0.385   9.253  0.2765  0.2530  0.1696
   50CHL1  H12A 6138   1.904   0.464   9.177 -0.9563  0.2381  0.4096
   50CHL1  H12B 6139   1.840   0.310   9.264  1.4335 -0.8811  1.3304
   50CHL1   C11 6140   1.921   0.469   9.385  0.3896 -0.3730 -0.3694
   50CHL1  H11A 6141   1.987   0.557   9.367  0.5500  0.0671  2.0203
   50CHL1  H11B 6142   1.815   0.499   9.398 -0.1908 -2.0522 -1.0225
   50CHL1    C9 6143   1.977   0.392   9.508  0.1213 -0.2164 -0.2501
   50CHL1    H9 6144   1.893   0.320   9.517 -1.2774  1.1833 -1.5358
   50CHL1   C10 6145   1.978   0.475   9.635  0.3174  0.2541 -0.0800
   50CHL1   C19 6146   2.076   0.593   9.616 -0.5750 -1.3088  0.4958
   50CHL1  H19A 6147   2.177   0.550   9.601  0.3523  0.6250  0.8179
   50CHL1  H19B 6148   2.050   0.667   9.537  0.1747 -1.2686  0.2798
   50CHL1  H19C 6149   2.086   0.658   9.706 -0.8135  0.5595 -0.7814
   50CHL1    C1 6150   1.837   0.513   9.671 -0.5320  0.7350  0.3936
   50CHL1   H1A 6151   1.813   0.591   9.596 -0.1929  0.3072 -0.1684
   50CHL1   H1B 6152   1.772   0.425   9.651  2.7292 -1.7865  0.0045
   50CHL1    C2 6153   1.815   0.578   9.804 -0.1150 -0.5439 -0.3959
   50CHL1   H2A 6154   1.706   0.591   9.821 -0.2301 -3.3672  1.7106
   50CHL1   H2B 6155   1.876   0.671   9.812 -0.2419 -0.5551  0.8513
   50CHL1   C20 6156   2.082   0.248   8.977 -0.4765  0.0598  0.4049
   50CHL1   H20 6157   2.189   0.271   8.954 -1.0178  0.4731 -2.0367
   50CHL1   C21 6158   1.985   0.360   8.923 -0.1910  0.0068  0.2630
   50CHL1  H21A 6159   2.014   0.459   8.965  2.1044 -0.1656 -0.7871
   50CHL1  H21B 6160   1.880   0.340   8.953  0.5043 -1.0450  2.1385
   50CHL1  H21C 6161   1.999   0.378   8.814  1.4565 -1.0058  0.2920
   50CHL1   C22 6162   2.053   0.122   8.889  0.1750  0.3608  0.0109
   50CHL1  H22A 6163   2.070   0.025   8.940 -3.5214 -0.6102 -0.2614
   50CHL1  H22B 6164   1.943   0.130   8.876  0.2299  1.3801  0.1147
   50CHL1   C23 6165   2.112   0.106   8.754 -1.1384 -0.2712 -0.1238
   50CHL1  H23A 6166   2.099   0.196   8.689  0.5588 -0.5313 -0.8630
   50CHL1  H23B 6167   2.222   0.100   8.767 -1.1599  0.3942  0.4275
   50CHL1   C24 6168   2.063  -0.018   8.675  0.2353 -0.3633  0.1234
   50CHL1  H24A 6169   2.102  -0.110   8.724  1.9073 -0.8971 -2.0477
   50CHL1  H24B 6170   1.955  -0.009   8.700  0.4138  1.9218  0.2713
   50CHL1   C25 6171   2.093  -0.018   8.526 -0.1922  0.5569  0.1442
   50CHL1   H25 6172   2.034   0.064   8.479 -0.3437  0.4525  0.1499
   50CHL1   C26 6173   2.242   0.003   8.499 -0.2468 -0.1864  0.0834
   50CHL1  H26A 6174   2.272  -0.036   8.400 -0.0744 -1.0125  0.4494
   50CHL1  H26B 6175   2.275   0.109   8.510 -1.8467  0.3484  0.1529
   50CHL1  H26C 6176   2.300  -0.056   8.573 -0.0683 -0.6058 -0.3926
   50CHL1   C27 6177   2.055  -0.159   8.457 -0.5500 -1.2474  0.0241
   50CHL1  H27A 6178   1.945  -0.173   8.466 -0.8691  0.3304 -0.8864
   50CHL1  H27B 6179   2.091  -0.168   8.352  1.4970  1.0558  0.4229
   50CHL1  H27C 6180   2.111  -0.238   8.511  1.2481  0.7226  1.2134
   51CHL1    C3 6181   4.387   2.236  10.253 -0.2418 -0.1124 -0.1706
   51CHL1    H3 6182   4.309   2.313  10.232 -1.1056 -0.6094  1.0734
   51CHL1    O3 6183   4.377   2.190  10.391 -0.3019  0.2473  1.4296
   51CHL1   H3' 6184   4.460   2.148  10.415  0.9758 -0.2696 -2.9849
   51CHL1    C4 6185   4.365   2.113  10.159 -0.1954  0.4954  0.1984
   51CHL1   H4A 6186   4.442   2.033  10.170 -2.1468 -2.1069 -3.0741
   51CHL1   H4B 6187   4.264   2.072  10.183  0.9599 -3.8027 -1.3368
   51CHL1    C5 6188   4.377   2.155  10.013 -0.0430  0.0155  0.0516
   51CHL1    C6 6189   4.277   2.126   9.918 -0.0461 -0.1903 -0.6418
   51CHL1    H6 6190   4.182   2.084   9.954  1.4508 -1.2697  2.4089
   51CHL1    C7 6191   4.302   2.143   9.773 -0.6784 -0.1294 -0.1638
   51CHL1   H7A 6192   4.265   2.050   9.725 -1.7039  0.6522 -0.9292
   51CHL1   H7B 6193   4.230   2.221   9.742  1.3033  1.2878 -1.4142
   51CHL1    C8 6194   4.448   2.172   9.731 -0.1405  0.1542  0.3018
   51CHL1    H8 6195   4.505   2.078   9.713 -0.2600  0.1546 -0.0966
   51CHL1   C14 6196   4.443   2.247   9.600 -1.2603 -0.0364  0.3878
   51CHL1   H14 6197   4.392   2.345   9.610 -1.8257 -0.1470 -1.0611
   51CHL1   C15 6198   4.374   2.184   9.483  0.4509 -0.1146  0.2793
   51CHL1  H15A 6199   4.394   2.075   9.479  4.0638  0.4364 -0.3695
   51CHL1  H15B 6200   4.264   2.196   9.493  0.5401 -0.3941  1.7513
   51CHL1   C16 6201   4.438   2.250   9.355  0.2292  0.2599  0.5106
   51CHL1  H16A 6202   4.474   2.170   9.287  0.2311 -1.4991  2.5037
   51CHL1  H16B 6203   4.352   2.305   9.310  0.9943 -0.5449 -2.1045
   51CHL1   C17 6204   4.550   2.338   9.404 -0.5960 -0.4320  0.5865
   51CHL1   H17 6205   4.507   2.435   9.434 -1.2545 -0.7757  0.7755
   51CHL1   C13 6206   4.587   2.275   9.546 -0.2068  0.0946  0.0803
   51CHL1   C18 6207   4.674   2.146   9.525  0.3400 -0.0616  0.3261
   51CHL1  H18A 6208   4.776   2.179   9.494  0.5866 -2.0285 -1.1687
   51CHL1  H18B 6209   4.672   2.082   9.615 -1.5540 -0.5894 -0.0365
   51CHL1  H18C 6210   4.641   2.083   9.439  1.8962  0.0952 -0.4329
   51CHL1   C12 6211   4.663   2.365   9.648 -0.6340  0.1392 -0.0692
   51CHL1  H12A 6212   4.771   2.376   9.624 -0.1073 -0.8983  1.6426
   51CHL1  H12B 6213   4.613   2.464   9.660  1.2470  1.1223  0.0463
   51CHL1   C11 6214   4.655   2.311   9.798 -0.6794 -0.4264 -0.7961
   51CHL1  H11A 6215   4.724   2.225   9.789 -0.5836 -0.3930 -0.4210
   51CHL1  H11B 6216   4.701   2.392   9.859  0.4387 -0.3343 -1.7430
   51CHL1    C9 6217   4.516   2.270   9.834  0.1700 -0.1475  1.0705
   51CHL1    H9 6218   4.457   2.364   9.833  0.1108 -0.1454 -1.2133
   51CHL1   C10 6219   4.511   2.220   9.981 -0.0706  0.3743  0.1327
   51CHL1   C19 6220   4.625   2.112  10.001  0.4676 -0.6824  0.4196
   51CHL1  H19A 6221   4.606   2.032   9.926  1.2285 -0.6134  0.1484
   51CHL1  H19B 6222   4.728   2.152   9.990 -0.0885  0.8645  0.6164
   51CHL1  H19C 6223   4.616   2.065  10.102 -0.9716 -1.5535 -0.0840
   51CHL1    C1 6224   4.532   2.342  10.071  0.2112  0.1097  0.5980
   51CHL1   H1A 6225   4.638   2.364  10.044 -0.2687 -1.8188 -3.6287
   51CHL1   H1B 6226   4.463   2.422  10.037 -0.1624 -0.3597  0.2545
   51CHL1    C2 6227   4.523   2.314  10.221 -0.1538  0.0704 -0.5255
   51CHL1   H2A 6228   4.526   2.409  10.278 -2.4550  0.8275 -1.5677
   51CHL1   H2B 6229   4.605   2.244  10.250 -0.3340 -0.3579 -1.0471
   51CHL1   C20 6230   4.653   2.356   9.293 -0.1401 -1.0098  0.1415
   51CHL1   H20 6231   4.684   2.257   9.253  0.2698 -0.9541  0.3178
   51CHL1   C21 6232   4.782   2.430   9.352  0.0178 -0.0532  0.3480
   51CHL1  H21A 6233   4.836   2.367   9.425  0.0939 -0.6673 -0.2267
   51CHL1  H21B 6234   4.759   2.524   9.406  0.5681 -0.8935  2.0934
   51CHL1  H21C 6235   4.855   2.445   9.269  0.6044 -3.5334  0.0925
   51CHL1   C22 6236   4.586   2.425   9.173  0.2611  0.0043 -0.2576
   51CHL1  H22A 6237   4.658   2.445   9.090  0.5592  2.1355  0.4466
   51CHL1  H22B 6238   4.507   2.365   9.123  2.7199 -1.6281 -2.4475
   51CHL1   C23 6239   4.521   2.566   9.205  0.2174 -0.0861  0.9714
   51CHL1  H23A 6240   4.439   2.551   9.278 -0.4935 -2.5009 -0.2084
   51CHL1  H23B 6241   4.598   2.629   9.255  0.4561  0.2141  0.2397
   51CHL1   C24 6242   4.474   2.639   9.076 -0.1361 -0.0923  0.2803
   51CHL1  H24A 6243   4.563   2.656   9.012  0.4710 -0.6648  0.9515
   51CHL1  H24B 6244   4.403   2.568   9.029 -1.1743 -2.1574  4.4258
   51CHL1   C25 6245   4.397   2.776   9.101 -0.9939 -1.4892 -0.8398
   51CHL1   H25 6246   4.360   2.814   9.004  0.5904  1.7077 -0.3262
   51CHL1   C26 6247   4.282   2.764   9.195  0.0976  0.4762 -0.2388
   51CHL1  H26A 6248   4.213   2.687   9.155  2.3352 -2.6891  1.5413
   51CHL1  H26B 6249   4.326   2.738   9.294 -1.5113  1.6752  0.8540
   51CHL1  H26C 6250   4.234   2.864   9.198 -0.1676  0.3334  0.7013
   51CHL1   C27 6251   4.493   2.877   9.153  0.3886 -0.3166 -0.4567
   51CHL1  H27A 6252   4.445   2.978   9.158  1.2469  0.0820  0.0668
   51CHL1  H27B 6253   4.524   2.845   9.255  0.6105 -1.4841 -0.8845
   51CHL1  H27C 6254   4.583   2.888   9.089  1.0085 -2.3545 -0.0106
   52CHL1    C3 6255   0.929   1.887  10.069 -0.9423 -0.7899 -0.1207
   52CHL1    H3 6256   0.919   1.981  10.010  0.1324  1.0475  2.4358
   52CHL1    O3 6257   0.921   1.920  10.206 -0.1599 -0.2103 -0.6795
   52CHL1   H3' 6258   0.901   1.838  10.251 -2.5437 -0.4292 -1.9515
   52CHL1    C4 6259   0.833   1.772  10.041  0.9148 -0.7593 -0.3362
   52CHL1   H4A 6260   0.846   1.690  10.115  0.4073 -1.6787 -1.2370
   52CHL1   H4B 6261   0.735   1.819  10.066  0.9935 -0.0945 -1.2371
   52CHL1    C5 6262   0.842   1.723   9.899  1.0877 -0.6343  0.2982
   52CHL1    C6 6263   0.731   1.727   9.818 -0.5092 -0.0655  0.0729
   52CHL1    H6 6264   0.638   1.771   9.858  1.5779  3.0269  1.8854
   52CHL1    C7 6265   0.715   1.683   9.675 -0.0069 -0.2449 -0.2309
   52CHL1   H7A 6266   0.628   1.615   9.659  0.1273 -0.1754 -1.3729
   52CHL1   H7B 6267   0.691   1.768   9.608 -0.0235  2.2086  2.7024
   52CHL1    C8 6268   0.842   1.606   9.640 -0.6619 -0.9980 -0.2585
   52CHL1    H8 6269   0.835   1.498   9.665 -1.2967 -1.5343 -2.5214
   52CHL1   C14 6270   0.848   1.603   9.489  0.4117  0.0183  0.1987
   52CHL1   H14 6271   0.848   1.710   9.457 -0.5040  0.2811  1.0152
   52CHL1   C15 6272   0.722   1.549   9.407  0.1614 -0.4304 -0.2828
   52CHL1  H15A 6273   0.670   1.459   9.446 -2.1645  0.0091 -2.1326
   52CHL1  H15B 6274   0.641   1.625   9.404  0.5195  0.0402  1.2754
   52CHL1   C16 6275   0.777   1.511   9.265  0.4122 -0.3402 -0.3453
   52CHL1  H16A 6276   0.771   1.401   9.258  0.0361 -0.4383  1.1994
   52CHL1  H16B 6277   0.718   1.557   9.183 -0.9955  0.6371  1.1569
   52CHL1   C17 6278   0.928   1.543   9.268  0.2898  0.3407  0.5984
   52CHL1   H17 6279   0.924   1.651   9.243 -1.5697 -0.0069 -0.7904
   52CHL1   C13 6280   0.961   1.534   9.421 -0.1591 -0.4449 -0.4569
   52CHL1   C18 6281   0.966   1.379   9.455  0.3511  0.4265 -0.4624
   52CHL1  H18A 6282   0.876   1.321   9.425  1.1533 -1.3400  0.4101
   52CHL1  H18B 6283   1.049   1.319   9.412 -0.6199  0.0486 -1.8839
   52CHL1  H18C 6284   0.980   1.374   9.565  1.1901  2.4038 -0.4333
   52CHL1   C12 6285   1.087   1.605   9.481 -0.4282  0.1638  0.2941
   52CHL1  H12A 6286   1.180   1.558   9.443  0.3678  1.1196  1.0114
   52CHL1  H12B 6287   1.102   1.709   9.445  1.9787  0.4768  1.9801
   52CHL1   C11 6288   1.093   1.608   9.637 -0.4894 -0.7374 -0.3209
   52CHL1  H11A 6289   1.103   1.507   9.680 -0.2805  0.0195  1.4800
   52CHL1  H11B 6290   1.180   1.670   9.667 -1.9781 -0.0655  3.0185
   52CHL1    C9 6291   0.969   1.672   9.696  0.3780  0.1764 -0.3230
   52CHL1    H9 6292   0.965   1.780   9.670 -2.5638  0.0361 -0.8710
   52CHL1   C10 6293   0.968   1.674   9.847 -0.2206 -0.5663  0.0645
   52CHL1   C19 6294   0.991   1.530   9.903  0.5484 -0.6098 -0.4976
   52CHL1  H19A 6295   0.987   1.531  10.015  0.5480 -0.8289 -0.4951
   52CHL1  H19B 6296   0.914   1.458   9.866 -0.2619 -0.6500  1.1499
   52CHL1  H19C 6297   1.091   1.487   9.881  0.6632 -0.8395  0.4163
   52CHL1    C1 6298   1.078   1.778   9.889  0.5408  1.1466 -0.4091
   52CHL1   H1A 6299   1.176   1.725   9.882  0.3879  0.6562  0.7976
   52CHL1   H1B 6300   1.080   1.861   9.816 -0.9906  1.4154 -0.1724
   52CHL1    C2 6301   1.067   1.829  10.037  0.0043 -0.1780 -0.7183
   52CHL1   H2A 6302   1.143   1.907  10.059 -2.1011  1.9742 -0.6309
   52CHL1   H2B 6303   1.092   1.742  10.102  0.9478  0.7298  0.1802
   52CHL1   C20 6304   1.006   1.460   9.161  1.0734  0.5141  0.3907
   52CHL1   H20 6305   0.979   1.352   9.168  4.4245 -0.3505  1.5162
   52CHL1   C21 6306   1.159   1.470   9.181  0.2131  0.0872  0.0804
   52CHL1  H21A 6307   1.192   1.385   9.245 -2.3961 -1.2819 -0.2201
   52CHL1  H21B 6308   1.191   1.565   9.228  1.9009 -0.4999  0.1913
   52CHL1  H21C 6309   1.221   1.453   9.091 -0.7249  3.0207 -1.2486
   52CHL1   C22 6310   0.973   1.525   9.021 -0.4477  0.8942  0.0901
   52CHL1  H22A 6311   0.863   1.537   9.014 -0.9591 -1.7720  2.1227
   52CHL1  H22B 6312   1.033   1.619   9.027 -0.7473  1.0912  0.0531
   52CHL1   C23 6313   1.027   1.437   8.912 -1.0082  0.2002  0.2426
   52CHL1  H23A 6314   1.138   1.425   8.915 -0.9526  0.7571  2.0790
   52CHL1  H23B 6315   0.984   1.336   8.926 -0.7646  0.1113  0.3577
   52CHL1   C24 6316   0.991   1.483   8.774 -0.1383  0.3373  0.1151
   52CHL1  H24A 6317   0.880   1.477   8.770 -0.0833 -0.5883 -0.2553
   52CHL1  H24B 6318   1.034   1.575   8.729 -0.9177  0.8288  0.3517
   52CHL1   C25 6319   1.025   1.370   8.671 -0.4401 -0.7287  0.0491
   52CHL1   H25 6320   0.980   1.277   8.712  1.9322 -0.7892  2.8009
   52CHL1   C26 6321   0.968   1.395   8.525 -0.5140  0.3309 -0.0588
   52CHL1  H26A 6322   0.992   1.308   8.461 -0.2362 -1.3268  2.2052
   52CHL1  H26B 6323   0.858   1.407   8.537 -0.6520  0.1680 -1.0651
   52CHL1  H26C 6324   1.015   1.488   8.485  1.0383 -0.0750  0.7543
   52CHL1   C27 6325   1.181   1.352   8.655 -0.0912 -0.4944 -0.2906
   52CHL1  H27A 6326   1.217   1.451   8.619  2.8533 -1.2303  0.3599
   52CHL1  H27B 6327   1.239   1.320   8.744  2.6610  2.2611 -0.8938
   52CHL1  H27C 6328   1.208   1.283   8.572 -0.7052 -0.3474 -0.6145
   53CHL1    C3 6329   1.303   2.394  10.060 -0.1542  0.7440 -0.8105
   53CHL1    H3 6330   1.371   2.480  10.082 -0.0028 -0.3043  3.5378
   53CHL1    O3 6331   1.285   2.329  10.181 -0.1429  0.5736  0.1275
   53CHL1   H3' 6332   1.221   2.259  10.169  0.4572  0.4260 -3.2288
   53CHL1    C4 6333   1.175   2.434  10.003  0.5835 -0.8506 -0.1998
   53CHL1   H4A 6334   1.099   2.353   9.994 -2.6760  2.0267 -1.2752
   53CHL1   H4B 6335   1.125   2.497  10.081 -0.2325 -0.0254 -1.3441
   53CHL1    C5 6336   1.181   2.488   9.859 -0.1571 -0.5045 -0.1724
   53CHL1    C6 6337   1.133   2.608   9.832  0.0291 -0.1148 -0.6574
   53CHL1    H6 6338   1.078   2.654   9.915 -1.6923  0.1322 -1.8971
   53CHL1    C7 6339   1.121   2.669   9.697  0.2517  0.2936 -0.3837
   53CHL1   H7A 6340   1.018   2.691   9.662  0.5010  0.5445 -0.9800
   53CHL1   H7B 6341   1.173   2.767   9.697 -0.7845  0.8536 -0.3134
   53CHL1    C8 6342   1.171   2.573   9.589 -0.2862 -0.3332  1.1529
   53CHL1    H8 6343   1.090   2.500   9.569 -2.3193  2.0243  0.3037
   53CHL1   C14 6344   1.190   2.650   9.458 -0.5400 -0.2786 -0.9128
   53CHL1   H14 6345   1.271   2.724   9.477 -0.7484 -0.2566 -0.0460
   53CHL1   C15 6346   1.075   2.740   9.400 -0.6511 -0.0095  0.6210
   53CHL1  H15A 6347   0.979   2.690   9.426 -0.4686  0.5846  2.6330
   53CHL1  H15B 6348   1.072   2.842   9.443 -1.5577  0.8270 -1.3159
   53CHL1   C16 6349   1.129   2.758   9.252  0.0670  0.0953  0.0337
   53CHL1  H16A 6350   1.045   2.725   9.188  1.0731  0.4017 -1.4934
   53CHL1  H16B 6351   1.139   2.865   9.227  2.0903 -0.2401 -0.7543
   53CHL1   C17 6352   1.255   2.671   9.231  0.1060 -0.0423 -0.0658
   53CHL1   H17 6353   1.349   2.728   9.250  1.3218 -1.4934 -1.4511
   53CHL1   C13 6354   1.243   2.564   9.343  0.2077 -0.1266 -0.2569
   53CHL1   C18 6355   1.144   2.452   9.299 -0.0205  0.8067  0.6346
   53CHL1  H18A 6356   1.189   2.395   9.216 -0.8311  1.3110 -0.1665
   53CHL1  H18B 6357   1.125   2.373   9.375  1.0304 -2.4049 -2.1991
   53CHL1  H18C 6358   1.046   2.502   9.279  1.1146  2.5634 -0.8797
   53CHL1   C12 6359   1.379   2.507   9.386  0.7926 -0.3287 -0.1576
   53CHL1  H12A 6360   1.417   2.442   9.305  0.0337  0.6978 -1.3798
   53CHL1  H12B 6361   1.445   2.593   9.409  0.9319 -0.4863  0.0340
   53CHL1   C11 6362   1.363   2.423   9.514 -0.0501  0.4135 -0.3709
   53CHL1  H11A 6363   1.299   2.341   9.475 -0.0521  1.1405 -1.9869
   53CHL1  H11B 6364   1.462   2.387   9.546 -0.4804  0.4084  1.0422
   53CHL1    C9 6365   1.294   2.499   9.631  0.1226 -0.0540  0.0069
   53CHL1    H9 6366   1.369   2.569   9.673 -0.0207 -0.2638  0.6112
   53CHL1   C10 6367   1.259   2.409   9.756  0.2785 -0.1067 -0.3015
   53CHL1   C19 6368   1.176   2.283   9.734  0.1433  0.5327  0.2530
   53CHL1  H19A 6369   1.089   2.306   9.669  0.2092 -0.2785 -0.1418
   53CHL1  H19B 6370   1.234   2.217   9.666 -2.7883 -2.0461  0.0543
   53CHL1  H19C 6371   1.156   2.227   9.828 -3.9685  0.8810 -0.2521
   53CHL1    C1 6372   1.397   2.372   9.823 -0.2429 -0.2374 -0.2724
   53CHL1   H1A 6373   1.447   2.308   9.748 -0.5471 -0.9936  0.1620
   53CHL1   H1B 6374   1.457   2.464   9.840  0.7865 -0.7684 -0.9871
   53CHL1    C2 6375   1.382   2.305   9.959  0.5749 -0.2166 -0.2746
   53CHL1   H2A 6376   1.481   2.287  10.007 -0.2206 -2.6975  0.6118
   53CHL1   H2B 6377   1.321   2.212   9.953 -2.6146  1.6912  0.3820
   53CHL1   C20 6378   1.276   2.619   9.091  0.3782 -0.8153  0.0748
   53CHL1   H20 6379   1.191   2.553   9.062  1.1743 -1.2767 -1.2986
   53CHL1   C21 6380   1.407   2.535   9.070 -0.6715  0.3559  0.0603
   53CHL1  H21A 6381   1.494   2.584   9.119 -1.8941  0.2016  2.5136
   53CHL1  H21B 6382   1.414   2.527   8.959 -0.3547 -0.1599  0.1135
   53CHL1  H21C 6383   1.393   2.431   9.105 -1.2114  0.6999  0.8908
   53CHL1   C22 6384   1.274   2.736   8.986 -0.3462  0.4317  0.0678
   53CHL1  H22A 6385   1.204   2.818   9.010 -0.2088  0.3621  0.7405
   53CHL1  H22B 6386   1.373   2.784   9.004 -0.3452  1.1546 -1.7387
   53CHL1   C23 6387   1.266   2.705   8.836  0.1130  0.7762  0.0885
   53CHL1  H23A 6388   1.288   2.802   8.786  1.0403  0.2946 -0.4824
   53CHL1  H23B 6389   1.340   2.627   8.808  0.6362  0.3580  2.4194
   53CHL1   C24 6390   1.126   2.652   8.791  0.0290 -0.4454 -0.6285
   53CHL1  H24A 6391   1.099   2.567   8.857  0.3234  0.2071  0.3597
   53CHL1  H24B 6392   1.044   2.726   8.801  0.4315 -0.0589 -0.1243
   53CHL1   C25 6393   1.127   2.609   8.642 -0.2469 -0.8009 -0.3232
   53CHL1   H25 6394   1.194   2.522   8.627 -0.3284 -0.9047 -0.0824
   53CHL1   C26 6395   0.994   2.560   8.586 -0.2584  0.4044  0.0397
   53CHL1  H26A 6396   0.993   2.517   8.484 -0.5777 -2.6637  1.2287
   53CHL1  H26B 6397   0.958   2.484   8.659  0.0936  0.3823  0.1936
   53CHL1  H26C 6398   0.914   2.637   8.592  1.3436  2.6676 -3.8625
   53CHL1   C27 6399   1.168   2.728   8.546 -0.7276  0.1308 -0.0353
   53CHL1  H27A 6400   1.157   2.704   8.439 -1.5981  1.6488 -0.3076
   53CHL1  H27B 6401   1.107   2.820   8.557 -0.5968  0.1581  0.4992
   53CHL1  H27C 6402   1.269   2.768   8.572 -1.2531  1.8947 -0.6113
   54CHL1    C3 6403   2.344   1.806   9.979  0.3499  0.8019 -0.0580
   54CHL1    H3 6404   2.310   1.701   9.960  0.9256  0.5466  0.3066
   54CHL1    O3 6405   2.356   1.800  10.126  0.8258 -0.2131  1.3416
   54CHL1   H3' 6406   2.405   1.882  10.136  0.2720  0.4609 -1.0250
   54CHL1    C4 6407   2.483   1.823   9.914  0.2493  0.3066 -0.5651
   54CHL1   H4A 6408   2.521   1.914   9.967 -2.5459 -0.4883  3.2286
   54CHL1   H4B 6409   2.541   1.732   9.937  0.4516  0.8777  1.3823
   54CHL1    C5 6410   2.466   1.842   9.766 -0.5825  0.2701  0.5636
   54CHL1    C6 6411   2.531   1.764   9.680  0.0225 -0.4862 -0.5147
   54CHL1    H6 6412   2.606   1.695   9.721 -0.5136 -0.7003  0.1323
   54CHL1    C7 6413   2.531   1.774   9.530 -0.2062 -0.3778  0.6225
   54CHL1   H7A 6414   2.633   1.770   9.486 -0.0607  0.9965  0.7931
   54CHL1   H7B 6415   2.482   1.686   9.484  0.5091 -0.4194 -0.0933
   54CHL1    C8 6416   2.472   1.908   9.483  0.9618  0.6804 -0.1925
   54CHL1    H8 6417   2.548   1.988   9.496  0.6281  0.8229  0.9426
   54CHL1   C14 6418   2.437   1.900   9.328 -0.0864 -1.1550 -0.1691
   54CHL1   H14 6419   2.363   1.820   9.308  0.6293 -1.3934 -2.2068
   54CHL1   C15 6420   2.548   1.870   9.231  0.2856 -0.3953 -0.1738
   54CHL1  H15A 6421   2.635   1.935   9.253  0.4388 -0.8725  0.6662
   54CHL1  H15B 6422   2.583   1.765   9.224  1.8554 -0.1006  2.1538
   54CHL1   C16 6423   2.491   1.911   9.097 -0.7839  0.6205 -0.5839
   54CHL1  H16A 6424   2.548   1.990   9.043  0.3315  0.3761  0.2065
   54CHL1  H16B 6425   2.472   1.832   9.021  0.7699  0.3076 -0.6700
   54CHL1   C17 6426   2.358   1.979   9.126  0.0497  0.7995 -0.7212
   54CHL1   H17 6427   2.279   1.901   9.121  0.6768  0.0966  0.0520
   54CHL1   C13 6428   2.371   2.022   9.277  0.0024  0.7079 -0.6520
   54CHL1   C18 6429   2.469   2.141   9.286 -0.1257  0.5289  0.0880
   54CHL1  H18A 6430   2.409   2.230   9.255  2.5081  2.0984 -0.8232
   54CHL1  H18B 6431   2.497   2.154   9.393  0.4313 -0.5723  0.0865
   54CHL1  H18C 6432   2.557   2.143   9.220 -0.4065 -1.2859 -0.3951
   54CHL1   C12 6433   2.239   2.036   9.366 -0.0672  0.2037 -0.0051
   54CHL1  H12A 6434   2.177   2.121   9.330 -1.2367 -0.7310 -0.2736
   54CHL1  H12B 6435   2.171   1.949   9.353 -1.2519  1.1682 -0.4642
   54CHL1   C11 6436   2.270   2.064   9.514 -0.4112  0.8933 -0.5806
   54CHL1  H11A 6437   2.328   2.159   9.513 -0.4977  0.9614  0.2236
   54CHL1  H11B 6438   2.168   2.081   9.555 -0.5092 -1.2658  0.2021
   54CHL1    C9 6439   2.346   1.948   9.568 -0.3473  0.0162  0.1316
   54CHL1    H9 6440   2.283   1.860   9.546  0.5472 -0.7505  0.5703
   54CHL1   C10 6441   2.366   1.947   9.718 -0.2058 -0.2520 -0.0246
   54CHL1   C19 6442   2.426   2.087   9.748 -0.0463  0.0381 -0.3727
   54CHL1  H19A 6443   2.362   2.175   9.722 -2.0795 -1.8261 -2.1411
   54CHL1  H19B 6444   2.438   2.095   9.858  2.6296  1.6211 -0.6895
   54CHL1  H19C 6445   2.529   2.103   9.710 -0.5996 -0.1865 -2.0391
   54CHL1    C1 6446   2.231   1.919   9.785 -0.2617  0.4071  0.4800
   54CHL1   H1A 6447   2.159   2.002   9.768 -1.9647 -1.3302 -1.3297
   54CHL1   H1B 6448   2.180   1.829   9.744 -0.9266  0.8574  0.3142
   54CHL1    C2 6449   2.242   1.909   9.937  0.1645 -0.0397  0.2410
   54CHL1   H2A 6450   2.146   1.877   9.983 -0.8648 -0.0489 -1.7777
   54CHL1   H2B 6451   2.260   2.012   9.974 -1.1650  1.3843 -2.6756
   54CHL1   C20 6452   2.313   2.097   9.025 -0.1113  0.5649  0.7348
   54CHL1   H20 6453   2.392   2.176   9.024  0.3635  0.2569 -3.8920
   54CHL1   C21 6454   2.182   2.167   9.062  0.5154  0.2341 -0.2687
   54CHL1  H21A 6455   2.189   2.218   9.161 -3.3109 -0.3779  0.4681
   54CHL1  H21B 6456   2.096   2.097   9.064 -0.5881  1.5463 -0.6073
   54CHL1  H21C 6457   2.154   2.248   8.991 -1.9386 -0.4232 -0.1453
   54CHL1   C22 6458   2.310   2.050   8.879  0.2091  0.0657  0.7169
   54CHL1  H22A 6459   2.289   2.138   8.815  1.7687 -1.1121 -1.5724
   54CHL1  H22B 6460   2.414   2.019   8.853  0.4395  1.3534  0.0272
   54CHL1   C23 6461   2.209   1.937   8.845 -0.2536 -0.2316 -0.5906
   54CHL1  H23A 6462   2.256   1.842   8.879  0.5130  0.2085 -0.4045
   54CHL1  H23B 6463   2.115   1.956   8.902 -0.5052  0.2626 -1.1664
   54CHL1   C24 6464   2.183   1.928   8.688 -0.9320 -0.0385  0.0285
   54CHL1  H24A 6465   2.114   1.843   8.670  0.4921 -1.4685  0.9270
   54CHL1  H24B 6466   2.127   2.017   8.652  1.0398  0.8112 -1.1130
   54CHL1   C25 6467   2.314   1.933   8.602  0.6383 -0.5007 -0.5903
   54CHL1   H25 6468   2.376   2.024   8.613 -0.4003 -0.0680  2.4124
   54CHL1   C26 6469   2.409   1.813   8.625  0.1166 -0.3082  0.5885
   54CHL1  H26A 6470   2.362   1.725   8.575 -1.8717  1.3835 -0.7301
   54CHL1  H26B 6471   2.501   1.837   8.567 -0.7980  1.5554 -0.1962
   54CHL1  H26C 6472   2.434   1.800   8.732  0.8510  0.4510  0.5224
   54CHL1   C27 6473   2.271   1.937   8.451 -0.3395 -0.4747 -0.6779
   54CHL1  H27A 6474   2.357   1.949   8.381 -0.5050 -1.4209 -1.0585
   54CHL1  H27B 6475   2.223   1.845   8.414  1.0718 -0.6273 -2.2663
   54CHL1  H27C 6476   2.206   2.026   8.434 -0.1241 -0.2656 -0.4163
   55CHL1    C3 6477   1.797   1.124   9.879  1.0441  0.0933  0.2764
   55CHL1    H3 6478   1.810   1.025   9.928  2.3943 -0.2875 -0.7729
   55CHL1    O3 6479   1.728   1.208   9.971  0.6425  0.4469 -0.1794
   55CHL1   H3' 6480   1.659   1.149  10.001  1.9614 -0.6545  0.7796
   55CHL1    C4 6481   1.932   1.186   9.840  0.4415  0.4794  0.4074
   55CHL1   H4A 6482   1.923   1.294   9.813  3.8113  1.0624  1.1465
   55CHL1   H4B 6483   2.001   1.174   9.926 -0.5808 -2.2519  0.9367
   55CHL1    C5 6484   1.997   1.121   9.715  0.4664  0.5237 -0.1447
   55CHL1    C6 6485   2.133   1.093   9.713  0.0568 -0.2120 -0.0999
   55CHL1    H6 6486   2.184   1.118   9.807 -1.3678  0.6997  0.4717
   55CHL1    C7 6487   2.205   1.040   9.592  0.0847  0.2204  0.0292
   55CHL1   H7A 6488   2.308   1.080   9.580 -0.3572  0.8778 -1.9929
   55CHL1   H7B 6489   2.217   0.931   9.609 -2.0306 -0.1135 -0.3548
   55CHL1    C8 6490   2.118   1.047   9.461 -1.0154  0.4630  0.1769
   55CHL1    H8 6491   2.124   1.147   9.413  1.2180  0.0611 -0.4846
   55CHL1   C14 6492   2.170   0.944   9.358 -0.5425  0.4841 -0.8058
   55CHL1   H14 6493   2.163   0.842   9.403  0.7777  0.0019 -1.6202
   55CHL1   C15 6494   2.331   0.938   9.336  0.0782 -0.0339 -0.1750
   55CHL1  H15A 6495   2.354   1.046   9.320  1.5843 -0.4238 -0.7974
   55CHL1  H15B 6496   2.405   0.899   9.409 -0.2465 -0.0351  0.1589
   55CHL1   C16 6497   2.336   0.861   9.200  0.4378  0.1736 -0.4693
   55CHL1  H16A 6498   2.373   0.938   9.129 -1.1780  0.1178 -1.4355
   55CHL1  H16B 6499   2.396   0.768   9.204  1.9967  1.1100 -1.0693
   55CHL1   C17 6500   2.189   0.822   9.164  0.5147  0.1590  0.4677
   55CHL1   H17 6501   2.170   0.721   9.206 -0.8274 -0.3405 -1.2376
   55CHL1   C13 6502   2.097   0.925   9.230  1.1479  0.1705  0.7523
   55CHL1   C18 6503   2.096   1.058   9.150  0.5990 -0.2666  0.2308
   55CHL1  H18A 6504   2.197   1.082   9.112 -0.3909  1.5908 -1.4126
   55CHL1  H18B 6505   2.027   1.048   9.064 -0.7683  0.5096  1.1949
   55CHL1  H18C 6506   2.064   1.145   9.211  0.8511 -1.1635  1.7146
   55CHL1   C12 6507   1.951   0.890   9.250  0.4631 -0.3858  0.0380
   55CHL1  H12A 6508   1.885   0.886   9.161  1.0273 -0.1216 -0.3996
   55CHL1  H12B 6509   1.950   0.783   9.281  1.8082 -0.6894 -0.8824
   55CHL1   C11 6510   1.892   0.981   9.356 -0.1296 -1.0830 -0.3897
   55CHL1  H11A 6511   1.870   1.081   9.313  0.7349 -0.7655 -0.1097
   55CHL1  H11B 6512   1.794   0.932   9.375  0.9271 -3.7530 -1.3759
   55CHL1    C9 6513   1.972   0.997   9.488 -0.4220 -0.4803 -0.3526
   55CHL1    H9 6514   1.972   0.892   9.524  0.2341 -1.2961 -2.5685
   55CHL1   C10 6515   1.904   1.091   9.594 -0.2571  0.0442  0.1849
   55CHL1   C19 6516   1.869   1.228   9.525  0.4236  0.5000  1.1667
   55CHL1  H19A 6517   1.958   1.270   9.475 -1.1318  2.0192 -0.4454
   55CHL1  H19B 6518   1.785   1.210   9.455  0.9185 -1.2216  0.9727
   55CHL1  H19C 6519   1.833   1.306   9.596  0.6416  0.2735  1.5288
   55CHL1    C1 6520   1.775   1.020   9.651 -0.0264 -0.3553 -0.3481
   55CHL1   H1A 6521   1.704   1.016   9.565 -0.8007  2.2589  0.0753
   55CHL1   H1B 6522   1.800   0.916   9.680  0.2174 -0.1363  0.2371
   55CHL1    C2 6523   1.706   1.094   9.759 -0.4908  0.0376  0.5044
   55CHL1   H2A 6524   1.616   1.040   9.797 -0.7165  0.3791  0.4667
   55CHL1   H2B 6525   1.669   1.191   9.719 -3.3979 -0.5628  1.4671
   55CHL1   C20 6526   2.171   0.797   9.011 -0.0307 -0.1809  0.2125
   55CHL1   H20 6527   2.189   0.891   8.954 -0.2618  0.1858  0.7356
   55CHL1   C21 6528   2.035   0.740   8.967 -0.3653  0.3474 -0.3079
   55CHL1  H21A 6529   1.963   0.823   8.950  0.0039  0.2044 -2.9942
   55CHL1  H21B 6530   1.994   0.691   9.058 -0.1367 -0.1816 -0.4842
   55CHL1  H21C 6531   2.057   0.673   8.881  1.2429  0.3342  0.0981
   55CHL1   C22 6532   2.279   0.708   8.946  0.1240 -0.1188 -0.4440
   55CHL1  H22A 6533   2.379   0.722   8.993  0.6713  0.8312 -1.8334
   55CHL1  H22B 6534   2.241   0.605   8.961 -0.9578  0.3510  0.1628
   55CHL1   C23 6535   2.313   0.735   8.796  0.2547 -0.1776  1.3007
   55CHL1  H23A 6536   2.218   0.768   8.749  0.9380  1.2595  0.8700
   55CHL1  H23B 6537   2.385   0.817   8.771 -0.7102 -0.3479 -2.7853
   55CHL1   C24 6538   2.373   0.615   8.714  0.1068 -0.0032  0.1734
   55CHL1  H24A 6539   2.391   0.650   8.610  1.4483  1.7432  0.9401
   55CHL1  H24B 6540   2.470   0.587   8.760 -1.3115 -2.6978  1.7907
   55CHL1   C25 6541   2.285   0.498   8.698 -0.1588 -0.2309  0.3381
   55CHL1   H25 6542   2.259   0.459   8.799 -0.0013 -0.3129  0.3466
   55CHL1   C26 6543   2.159   0.520   8.610  0.1128 -0.3153  0.3104
   55CHL1  H26A 6544   2.103   0.424   8.613 -0.9492  0.0682 -3.0351
   55CHL1  H26B 6545   2.089   0.599   8.645  0.1824 -0.3313  0.4889
   55CHL1  H26C 6546   2.195   0.533   8.506 -0.8972  2.8662  0.2441
   55CHL1   C27 6547   2.370   0.378   8.642  0.1995  0.9845  0.4272
   55CHL1  H27A 6548   2.416   0.411   8.546 -0.1883 -0.9771 -0.4773
   55CHL1  H27B 6549   2.438   0.347   8.724  1.3081  0.1519 -0.7752
   55CHL1  H27C 6550   2.307   0.291   8.616  2.4483 -0.9155  0.9811
   56CHL1    C3 6551   4.719   5.102  10.038  0.5422 -0.6355 -0.2851
   56CHL1    H3 6552   4.673   5.013   9.989 -0.3500 -0.7244  0.6739
   56CHL1    O3 6553   4.747   5.079  10.176 -0.4005  0.1750  0.3000
   56CHL1   H3' 6554   4.700   4.997  10.193  0.5527 -0.1345  1.7062
   56CHL1    C4 6555   4.857   5.127   9.967 -0.0452 -0.2353 -0.2954
   56CHL1   H4A 6556   4.916   5.205  10.020 -0.1065 -0.3757 -0.0207
   56CHL1   H4B 6557   4.913   5.031   9.974 -0.6257 -0.5995 -0.5328
   56CHL1    C5 6558   4.828   5.176   9.832 -0.6512  0.6947  0.3707
   56CHL1    C6 6559   4.879   5.108   9.728  0.4723  0.4786 -0.1673
   56CHL1    H6 6560   4.931   5.014   9.748 -1.1283 -0.0681  1.8346
   56CHL1    C7 6561   4.878   5.157   9.588 -0.0417 -0.6044 -0.2081
   56CHL1   H7A 6562   4.976   5.166   9.536  0.1540  2.5340  0.5385
   56CHL1   H7B 6563   4.821   5.086   9.525  0.8801  0.0744 -1.8595
   56CHL1    C8 6564   4.818   5.306   9.574 -0.7229  0.1319 -0.1907
   56CHL1    H8 6565   4.896   5.378   9.605 -0.7473 -0.7236  2.0525
   56CHL1   C14 6566   4.778   5.330   9.425 -0.0077  0.2787  0.4949
   56CHL1   H14 6567   4.700   5.255   9.401  0.3463  0.4650 -1.3436
   56CHL1   C15 6568   4.877   5.295   9.316  0.0290  0.4417 -0.2997
   56CHL1  H15A 6569   4.978   5.339   9.332  0.6968 -0.7042 -1.2326
   56CHL1  H15B 6570   4.893   5.186   9.310 -1.3364  0.1471  0.8647
   56CHL1   C16 6571   4.819   5.361   9.192  0.2820  0.0381 -0.2281
   56CHL1  H16A 6572   4.903   5.419   9.147 -1.3201  1.3305 -1.6694
   56CHL1  H16B 6573   4.764   5.299   9.118 -2.2842  0.8481  0.8974
   56CHL1   C17 6574   4.697   5.457   9.241 -0.2729 -0.4448  0.1394
   56CHL1   H17 6575   4.609   5.393   9.221 -0.6166  0.3217 -0.8841
   56CHL1   C13 6576   4.723   5.471   9.390  0.8850  0.6450 -0.0307
   56CHL1   C18 6577   4.844   5.575   9.424 -0.1106 -0.0800  0.0433
   56CHL1  H18A 6578   4.845   5.592   9.534 -2.5573 -0.1202  0.1358
   56CHL1  H18B 6579   4.941   5.541   9.384 -0.6168 -0.1459 -1.1700
   56CHL1  H18C 6580   4.827   5.672   9.373  1.8217  0.2495 -0.0361
   56CHL1   C12 6581   4.606   5.487   9.488  0.3793  0.0543 -0.7408
   56CHL1  H12A 6582   4.548   5.578   9.461  1.4766  0.6012 -1.3413
   56CHL1  H12B 6583   4.539   5.403   9.460  0.6162 -0.1195 -0.7857
   56CHL1   C11 6584   4.637   5.468   9.640 -0.8056  0.3271  0.0689
   56CHL1  H11A 6585   4.700   5.552   9.676  0.3103  1.1554 -3.4326
   56CHL1  H11B 6586   4.545   5.481   9.700 -0.6775  0.0375  0.3324
   56CHL1    C9 6587   4.704   5.329   9.667 -0.1567  0.7197  0.2162
   56CHL1    H9 6588   4.627   5.255   9.635  1.0628 -0.3672 -0.2775
   56CHL1   C10 6589   4.742   5.298   9.819 -1.5855  0.1044 -0.2966
   56CHL1   C19 6590   4.809   5.429   9.870 -0.0917  0.1282 -0.3559
   56CHL1  H19A 6591   4.843   5.415   9.975  1.6848  0.5405 -0.8336
   56CHL1  H19B 6592   4.901   5.448   9.810  0.6240 -1.3182  0.2444
   56CHL1  H19C 6593   4.733   5.509   9.860  0.5291  0.6204 -1.3736
   56CHL1    C1 6594   4.604   5.274   9.889  0.6300 -0.1320  0.1140
   56CHL1   H1A 6595   4.556   5.373   9.905 -1.8334 -1.0604 -0.9546
   56CHL1   H1B 6596   4.526   5.226   9.825 -0.8817  0.7322  1.2369
   56CHL1    C2 6597   4.618   5.219  10.027  0.1018 -0.4430  0.9098
   56CHL1   H2A 6598   4.525   5.179  10.071 -0.5607  0.1117  0.0476
   56CHL1   H2B 6599   4.657   5.300  10.092  0.8669 -1.0323  1.2006
   56CHL1   C20 6600   4.691   5.588   9.163  0.8980  0.0038  0.4401
   56CHL1   H20 6601   4.790   5.636   9.176 -0.4578  2.9040  1.1395
   56CHL1   C21 6602   4.583   5.689   9.220 -0.2598 -0.2929  0.1766
   56CHL1  H21A 6603   4.478   5.655   9.211  0.1543 -1.9921  1.2635
   56CHL1  H21B 6604   4.592   5.777   9.152 -0.6392  0.2734  0.8460
   56CHL1  H21C 6605   4.590   5.728   9.323 -1.0605 -0.6556  0.3733
   56CHL1   C22 6606   4.664   5.578   9.009 -0.7263  0.2411  0.3780
   56CHL1  H22A 6607   4.615   5.481   8.987  1.3505 -0.9922  0.9650
   56CHL1  H22B 6608   4.587   5.656   8.988 -0.3267  0.4918 -0.1635
   56CHL1   C23 6609   4.786   5.592   8.915  0.3093 -0.0532  0.0041
   56CHL1  H23A 6610   4.861   5.518   8.950 -0.2448 -1.3617 -1.4602
   56CHL1  H23B 6611   4.757   5.562   8.812  0.2194  2.5118 -0.7767
   56CHL1   C24 6612   4.847   5.729   8.916 -0.1239 -0.4763  0.2987
   56CHL1  H24A 6613   4.833   5.779   9.014  0.2824  0.6855 -0.2170
   56CHL1  H24B 6614   4.957   5.726   8.900 -0.3234 -0.7624 -1.2107
   56CHL1   C25 6615   4.804   5.832   8.802 -0.2135 -0.3326 -0.0466
   56CHL1   H25 6616   4.697   5.814   8.779  0.3182 -1.2875 -1.9679
   56CHL1   C26 6617   4.810   5.975   8.857  0.2764 -0.1998  0.1410
   56CHL1  H26A 6618   4.760   5.983   8.956  2.1116 -0.4231  1.1384
   56CHL1  H26B 6619   4.913   6.014   8.872  0.3496 -0.1517 -0.4437
   56CHL1  H26C 6620   4.758   6.054   8.799  0.2240  0.8397  1.5369
   56CHL1   C27 6621   4.886   5.814   8.670  0.9299 -0.2802  0.3349
   56CHL1  H27A 6622   4.847   5.890   8.598 -0.9937 -1.0875  0.4568
   56CHL1  H27B 6623   4.996   5.829   8.679  1.0280 -0.1968 -0.8562
   56CHL1  H27C 6624   4.863   5.712   8.633 -1.6681  0.8224 -1.4465
   57CHL1    C3 6625   2.388   0.229  10.267 -0.3294  0.6898 -0.1277
   57CHL1    H3 6626   2.328   0.137  10.281 -0.5305  0.9546  0.8444
   57CHL1    O3 6627   2.369   0.302  10.382 -0.4086 -0.1407  0.0815
   57CHL1   H3' 6628   2.365   0.393  10.351 -0.6706  0.8363  2.7383
   57CHL1    C4 6629   2.543   0.203  10.249 -0.0729 -0.2802 -0.1155
   57CHL1   H4A 6630   2.588   0.304  10.246 -1.1022  0.2573  1.4807
   57CHL1   H4B 6631   2.578   0.146  10.339 -2.6889 -1.3309  0.3347
   57CHL1    C5 6632   2.574   0.138  10.118  0.3517 -0.1427 -0.0068
   57CHL1    C6 6633   2.635   0.019  10.116 -0.1197  0.2318 -0.8058
   57CHL1    H6 6634   2.673  -0.028  10.208  1.1782 -0.6894 -1.7698
   57CHL1    C7 6635   2.685  -0.043   9.986 -0.2749  0.1294 -0.3231
   57CHL1   H7A 6636   2.792  -0.070   9.998 -0.2968 -0.3622 -1.1492
   57CHL1   H7B 6637   2.632  -0.137   9.960  0.6906 -0.9779  1.4980
   57CHL1    C8 6638   2.672   0.044   9.863  0.4040  0.1107  0.4604
   57CHL1    H8 6639   2.751   0.122   9.864  1.7694 -1.2113  2.0155
   57CHL1   C14 6640   2.685  -0.036   9.736 -0.7844 -0.2887  0.1975
   57CHL1   H14 6641   2.612  -0.119   9.746  0.7379 -1.7916 -0.6851
   57CHL1   C15 6642   2.813  -0.117   9.713 -0.6262  0.3208 -0.4472
   57CHL1  H15A 6643   2.902  -0.059   9.745  0.4742 -1.7106  0.4298
   57CHL1  H15B 6644   2.821  -0.201   9.785  1.9265  0.4435 -0.4889
   57CHL1   C16 6645   2.809  -0.156   9.567 -0.1192 -0.9224 -0.5011
   57CHL1  H16A 6646   2.908  -0.151   9.517 -0.4051 -0.9643 -1.0833
   57CHL1  H16B 6647   2.785  -0.264   9.559  1.7666 -1.3193 -1.2735
   57CHL1   C17 6648   2.708  -0.069   9.500 -0.2492 -0.3987  0.6222
   57CHL1   H17 6649   2.608  -0.116   9.483  0.9383 -2.2063 -2.0897
   57CHL1   C13 6650   2.662   0.036   9.603 -0.6903 -0.0031 -0.2399
   57CHL1   C18 6651   2.765   0.150   9.588  0.1177  0.0264  0.3422
   57CHL1  H18A 6652   2.753   0.210   9.680  0.2639  0.7285 -0.0880
   57CHL1  H18B 6653   2.869   0.115   9.574 -0.9364 -3.3425  0.0325
   57CHL1  H18C 6654   2.736   0.224   9.509 -0.2545 -0.3722  0.0989
   57CHL1   C12 6655   2.519   0.082   9.611 -0.2220 -0.0294 -0.4731
   57CHL1  H12A 6656   2.486   0.116   9.510 -0.4275  0.6413 -0.1879
   57CHL1  H12B 6657   2.451  -0.004   9.629 -0.6676  0.6349  1.2623
   57CHL1   C11 6658   2.491   0.184   9.729 -0.0608  0.2079 -0.8543
   57CHL1  H11A 6659   2.538   0.281   9.702  1.0775  1.0495  3.3285
   57CHL1  H11B 6660   2.381   0.196   9.734  0.0443  0.7877  0.8596
   57CHL1    C9 6661   2.541   0.124   9.870  0.3545  0.4601  0.5996
   57CHL1    H9 6662   2.473   0.037   9.886  0.7282 -0.6061 -2.7922
   57CHL1   C10 6663   2.522   0.217  10.000  0.2053 -0.4059  0.1911
   57CHL1   C19 6664   2.603   0.343   9.980  0.6938  0.1744 -0.3292
   57CHL1  H19A 6665   2.586   0.393   9.883  0.5116  3.6413  1.3299
   57CHL1  H19B 6666   2.586   0.418  10.060 -0.9098  0.4530 -0.9014
   57CHL1  H19C 6667   2.712   0.319   9.987  0.3317 -1.1290  2.2345
   57CHL1    C1 6668   2.367   0.242  10.022 -0.0627  0.3861 -0.0250
   57CHL1   H1A 6669   2.331   0.309   9.940  2.3492  1.5249 -0.2350
   57CHL1   H1B 6670   2.320   0.141  10.017  0.2247  0.2439  0.1295
   57CHL1    C2 6671   2.331   0.305  10.153  0.0562 -0.0743  0.2141
   57CHL1   H2A 6672   2.220   0.297  10.155  0.0621 -0.1392  0.3546
   57CHL1   H2B 6673   2.365   0.411  10.165  0.9423 -0.3823  0.5180
   57CHL1   C20 6674   2.740  -0.027   9.362  1.1748 -0.1435  0.4927
   57CHL1   H20 6675   2.829   0.039   9.357  2.3641 -1.6932  0.8259
   57CHL1   C21 6676   2.619   0.060   9.301 -0.4552  0.2134  0.0664
   57CHL1  H21A 6677   2.521   0.016   9.329 -0.4192  0.7731  1.1485
   57CHL1  H21B 6678   2.636   0.072   9.192  1.3526 -0.4471  0.2355
   57CHL1  H21C 6679   2.621   0.164   9.343  1.4052  1.0942 -2.0171
   57CHL1   C22 6680   2.774  -0.140   9.261  0.6110  1.1444  0.1387
   57CHL1  H22A 6681   2.755  -0.105   9.158 -1.1171  0.8570  0.3353
   57CHL1  H22B 6682   2.882  -0.166   9.272  0.2079 -0.1817  1.1653
   57CHL1   C23 6683   2.691  -0.271   9.266  0.3636 -0.0567  0.1301
   57CHL1  H23A 6684   2.723  -0.334   9.352  3.7079 -0.5603 -1.3133
   57CHL1  H23B 6685   2.582  -0.249   9.266  0.6149  1.3356  1.2435
   57CHL1   C24 6686   2.702  -0.360   9.142  0.4080  0.0662  0.2563
   57CHL1  H24A 6687   2.668  -0.304   9.052 -0.9596 -0.6031  0.3335
   57CHL1  H24B 6688   2.808  -0.386   9.120  0.2516  0.8263 -1.5804
   57CHL1   C25 6689   2.619  -0.491   9.143  0.4873  0.0123 -0.7370
   57CHL1   H25 6690   2.516  -0.448   9.138  1.2034  2.2159  1.3063
   57CHL1   C26 6691   2.637  -0.558   9.004 -0.3465  0.7776 -0.7170
   57CHL1  H26A 6692   2.745  -0.560   8.979  0.2025  2.1170  1.2849
   57CHL1  H26B 6693   2.595  -0.660   8.999 -3.0339  1.5096  2.9800
   57CHL1  H26C 6694   2.599  -0.498   8.918 -0.4854  1.6004 -0.0937
   57CHL1   C27 6695   2.655  -0.586   9.266  0.3910 -0.0096  0.0030
   57CHL1  H27A 6696   2.598  -0.540   9.350 -2.2893 -2.1852 -0.4730
   57CHL1  H27B 6697   2.631  -0.692   9.240 -1.0525  0.3368 -0.1778
   57CHL1  H27C 6698   2.766  -0.581   9.270  0.3953 -0.6052  0.9570
   58CHL1    C3 6699   3.470   5.469  10.184  0.3719  0.4586 -0.0680
   58CHL1    H3 6700   3.575   5.435  10.179  0.0154 -0.6968  0.0686
   58CHL1    O3 6701   3.465   5.590  10.260 -0.3313 -0.2116  0.2159
   58CHL1   H3' 6702   3.429   5.561  10.344 -0.3638 -1.6867 -0.2925
   58CHL1    C4 6703   3.416   5.510  10.043  0.3802 -0.2529  0.7349
   58CHL1   H4A 6704   3.321   5.566  10.058  0.9999  0.7636  0.9607
   58CHL1   H4B 6705   3.497   5.576  10.004 -0.1818  0.7616  1.2439
   58CHL1    C5 6706   3.376   5.395   9.956  0.9795  1.0077 -0.0716
   58CHL1    C6 6707   3.415   5.393   9.830 -0.4490  0.2975 -0.6077
   58CHL1    H6 6708   3.484   5.471   9.793 -0.6278 -0.0489 -1.7235
   58CHL1    C7 6709   3.380   5.287   9.729 -0.6740 -0.6258  0.5754
   58CHL1   H7A 6710   3.339   5.342   9.641  3.4442  0.9029 -0.6014
   58CHL1   H7B 6711   3.469   5.227   9.703 -0.5818 -1.0323  1.7721
   58CHL1    C8 6712   3.279   5.194   9.776 -0.2114 -0.1672 -0.0276
   58CHL1    H8 6713   3.180   5.244   9.780  0.8555  2.0206  0.6827
   58CHL1   C14 6714   3.283   5.068   9.687  0.2012 -0.0437  0.1592
   58CHL1   H14 6715   3.389   5.035   9.692  0.2691  0.3124  1.1285
   58CHL1   C15 6716   3.271   5.085   9.532  0.2612 -0.4948 -0.7180
   58CHL1  H15A 6717   3.179   5.146   9.515  1.1480  1.0583 -0.0718
   58CHL1  H15B 6718   3.354   5.141   9.485  1.4166 -1.8490 -0.3459
   58CHL1   C16 6719   3.236   4.940   9.487 -0.3095  0.4684 -0.2444
   58CHL1  H16A 6720   3.141   4.949   9.431 -1.2132  2.2740  1.4802
   58CHL1  H16B 6721   3.318   4.898   9.424  0.4601 -0.7687  1.4961
   58CHL1   C17 6722   3.223   4.846   9.611 -0.4925  0.1102  0.4030
   58CHL1   H17 6723   3.323   4.804   9.632  0.3110  0.8509 -1.7000
   58CHL1   C13 6724   3.204   4.942   9.726  0.9063 -0.7447  0.5110
   58CHL1   C18 6725   3.062   4.990   9.739  0.3719  0.0108 -0.2446
   58CHL1  H18A 6726   2.997   4.912   9.784  0.5199 -0.6622 -1.1640
   58CHL1  H18B 6727   3.049   5.093   9.778 -0.4127 -0.0981 -0.2130
   58CHL1  H18C 6728   3.017   5.004   9.639  0.4641  0.7032 -0.1963
   58CHL1   C12 6729   3.249   4.898   9.864 -0.6240 -0.1830 -1.3625
   58CHL1  H12A 6730   3.186   4.814   9.902  1.4007 -1.3199 -0.3624
   58CHL1  H12B 6731   3.355   4.865   9.864 -0.3145  0.7644 -0.8865
   58CHL1   C11 6732   3.239   5.018   9.966 -0.3277  0.0666  0.3108
   58CHL1  H11A 6733   3.132   5.044   9.976 -0.6546 -0.5105 -1.2928
   58CHL1  H11B 6734   3.252   4.981  10.070 -0.4005 -0.6734  0.0631
   58CHL1    C9 6735   3.319   5.153   9.919  0.3530  0.2882  0.1660
   58CHL1    H9 6736   3.427   5.129   9.920  0.8121  2.1194 -0.7651
   58CHL1   C10 6737   3.298   5.278  10.023 -0.0389  0.3551  0.7348
   58CHL1   C19 6738   3.153   5.312  10.045 -0.0268  0.0652 -0.0349
   58CHL1  H19A 6739   3.120   5.360   9.951  2.5950 -2.4132 -2.4074
   58CHL1  H19B 6740   3.094   5.226  10.082  0.5985 -0.2908  0.1534
   58CHL1  H19C 6741   3.143   5.384  10.130 -1.5403 -0.0067 -0.1210
   58CHL1    C1 6742   3.363   5.240  10.163  0.8239 -0.6971 -0.7173
   58CHL1   H1A 6743   3.296   5.171  10.218  2.1372 -1.3316  0.1332
   58CHL1   H1B 6744   3.454   5.178  10.146 -0.2162 -2.2629 -0.7431
   58CHL1    C2 6745   3.386   5.361  10.251 -0.4155 -0.4176 -0.3261
   58CHL1   H2A 6746   3.434   5.327  10.345  1.2109 -0.9467 -1.2957
   58CHL1   H2B 6747   3.292   5.416  10.271  0.7121  1.5863 -0.2478
   58CHL1   C20 6748   3.121   4.731   9.589 -0.1984  0.7650 -0.5258
   58CHL1   H20 6749   3.023   4.784   9.588  0.3450  1.8126  0.0933
   58CHL1   C21 6750   3.127   4.633   9.704  0.1824  0.1178  0.2691
   58CHL1  H21A 6751   3.079   4.684   9.790  0.0112  0.3857  0.0161
   58CHL1  H21B 6752   3.231   4.613   9.735 -0.0460 -0.2425  0.8229
   58CHL1  H21C 6753   3.069   4.539   9.687  0.9973 -0.7687  2.1885
   58CHL1   C22 6754   3.130   4.662   9.454  0.3331  0.4066  0.1990
   58CHL1  H22A 6755   3.148   4.742   9.380  2.1607  0.4684  0.6775
   58CHL1  H22B 6756   3.205   4.581   9.468 -0.2982 -0.3796 -0.7979
   58CHL1   C23 6757   2.998   4.597   9.415  0.2008  0.4879  0.6756
   58CHL1  H23A 6758   2.960   4.531   9.495  0.3241 -0.7425 -0.2606
   58CHL1  H23B 6759   2.922   4.678   9.403 -0.4087  0.0520  1.4863
   58CHL1   C24 6760   3.006   4.521   9.277  0.6132  0.0829 -0.3947
   58CHL1  H24A 6761   3.066   4.589   9.213  1.9787  0.7453  1.4874
   58CHL1  H24B 6762   3.060   4.424   9.277  0.3800 -0.0903  1.6325
   58CHL1   C25 6763   2.871   4.500   9.212 -0.1149  0.1264 -0.4328
   58CHL1   H25 6764   2.817   4.596   9.201 -1.6407 -0.5711  0.6391
   58CHL1   C26 6765   2.897   4.436   9.073 -0.9160  0.2241  0.1218
   58CHL1  H26A 6766   2.800   4.429   9.019 -0.0886  2.1478 -1.7631
   58CHL1  H26B 6767   2.967   4.503   9.017  0.5225  1.4258  3.1180
   58CHL1  H26C 6768   2.953   4.340   9.069  1.4183  1.4480  1.3291
   58CHL1   C27 6769   2.782   4.412   9.303  0.4973 -0.3149 -0.8442
   58CHL1  H27A 6770   2.731   4.459   9.390 -0.7989 -1.4891 -0.9178
   58CHL1  H27B 6771   2.689   4.367   9.260 -2.1420  2.4216  1.5195
   58CHL1  H27C 6772   2.833   4.324   9.347  1.2744  0.9685  0.9681
   59CHL1    C3 6773   2.677   4.986  10.276  0.0494  0.6805  0.8453
   59CHL1    H3 6774   2.609   5.071  10.252 -1.5572 -0.6812  0.3379
   59CHL1    O3 6775   2.720   5.010  10.412 -0.1414 -0.2786  0.4837
   59CHL1   H3' 6776   2.762   5.097  10.413 -0.6459  0.0048 -0.9464
   59CHL1    C4 6777   2.603   4.858  10.259 -0.1578  0.0777  0.4878
   59CHL1   H4A 6778   2.659   4.769  10.293 -1.3193 -0.9631 -0.2305
   59CHL1   H4B 6779   2.511   4.855  10.321 -1.2724 -1.7081 -1.1171
   59CHL1    C5 6780   2.565   4.836  10.115  1.2681 -0.1055 -0.5631
   59CHL1    C6 6781   2.432   4.817  10.089 -0.1470 -0.6042 -0.5612
   59CHL1    H6 6782   2.356   4.815  10.169 -0.3852 -1.6770 -0.7967
   59CHL1    C7 6783   2.384   4.782   9.953 -0.2772  0.7305 -0.2110
   59CHL1   H7A 6784   2.320   4.691   9.948  0.8530 -0.1564  0.7006
   59CHL1   H7B 6785   2.313   4.857   9.913 -1.6082 -0.3615  0.0110
   59CHL1    C8 6786   2.500   4.760   9.844 -0.4683  0.0888 -0.0395
   59CHL1    H8 6787   2.542   4.657   9.840  2.4485  1.1318  1.0746
   59CHL1   C14 6788   2.442   4.783   9.702 -0.0079  0.5351 -0.0824
   59CHL1   H14 6789   2.411   4.889   9.698 -1.6458  0.0504 -1.8332
   59CHL1   C15 6790   2.326   4.697   9.655  0.3572 -0.1975 -0.9140
   59CHL1  H15A 6791   2.345   4.591   9.680 -0.7980 -0.0835  0.5332
   59CHL1  H15B 6792   2.229   4.732   9.695 -0.8865 -2.4871 -1.7676
   59CHL1   C16 6793   2.317   4.720   9.505  0.9227  0.9764 -0.2190
   59CHL1  H16A 6794   2.294   4.626   9.451  0.7710  1.0272 -0.2444
   59CHL1  H16B 6795   2.233   4.788   9.479 -0.3260  0.9613  3.2108
   59CHL1   C17 6796   2.451   4.779   9.459  0.0218 -0.0667 -0.6031
   59CHL1   H17 6797   2.435   4.889   9.462 -0.3136 -0.1126  1.7101
   59CHL1   C13 6798   2.539   4.773   9.584 -0.6766 -0.1564 -0.2117
   59CHL1   C18 6799   2.607   4.633   9.598  0.1241 -0.0935 -0.0006
   59CHL1  H18A 6800   2.537   4.548   9.585 -0.3803  0.7095 -3.7938
   59CHL1  H18B 6801   2.670   4.620   9.507 -1.2632 -1.7575 -0.7801
   59CHL1  H18C 6802   2.667   4.609   9.689  1.4820 -0.9102 -1.0659
   59CHL1   C12 6803   2.647   4.888   9.610 -0.1248 -0.2487 -0.0284
   59CHL1  H12A 6804   2.720   4.895   9.527  1.1530  1.8743  1.1793
   59CHL1  H12B 6805   2.589   4.983   9.608  0.8859  0.4735  2.2343
   59CHL1   C11 6806   2.713   4.872   9.748 -0.1382 -0.0007  0.5287
   59CHL1  H11A 6807   2.773   4.780   9.734  3.4430  2.5598 -3.3941
   59CHL1  H11B 6808   2.772   4.962   9.775  0.1334  0.1065 -0.3698
   59CHL1    C9 6809   2.614   4.860   9.866  0.4017 -1.1121 -0.0899
   59CHL1    H9 6810   2.553   4.952   9.858 -1.6900 -2.5357 -1.2742
   59CHL1   C10 6811   2.674   4.851  10.005 -0.7283  0.3643 -0.1883
   59CHL1   C19 6812   2.772   4.726  10.010 -0.0400  0.0521 -0.2944
   59CHL1  H19A 6813   2.712   4.632  10.003  0.0139 -0.1193  1.2890
   59CHL1  H19B 6814   2.856   4.723   9.937  1.2448  0.5343  1.1385
   59CHL1  H19C 6815   2.819   4.719  10.110  1.8222  0.8211 -1.0718
   59CHL1    C1 6816   2.761   4.974  10.034  0.3403  0.2918  0.0482
   59CHL1   H1A 6817   2.854   4.978   9.973  0.8614  1.5904  0.8694
   59CHL1   H1B 6818   2.702   5.062  10.001 -0.5911 -0.4706 -0.3562
   59CHL1    C2 6819   2.801   4.985  10.181  0.8842  0.1592  0.3750
   59CHL1   H2A 6820   2.857   5.081  10.188  0.1358  0.7989 -1.6479
   59CHL1   H2B 6821   2.867   4.899  10.206 -2.7522 -3.6394 -1.8068
   59CHL1   C20 6822   2.500   4.736   9.318  0.1905 -0.2827  0.3348
   59CHL1   H20 6823   2.516   4.627   9.317  0.7097 -0.2067 -0.3706
   59CHL1   C21 6824   2.635   4.807   9.289  0.2976 -0.1909  0.5913
   59CHL1  H21A 6825   2.627   4.915   9.314 -1.1531  0.2560 -1.4988
   59CHL1  H21B 6826   2.661   4.802   9.182 -2.4137 -0.5406 -0.1379
   59CHL1  H21C 6827   2.710   4.748   9.345 -1.9182 -3.9871 -0.0629
   59CHL1   C22 6828   2.402   4.757   9.196 -0.2016  0.0036 -0.3359
   59CHL1  H22A 6829   2.303   4.721   9.231 -0.3279  1.9753  1.5562
   59CHL1  H22B 6830   2.386   4.865   9.177 -4.0129 -0.8413 -3.0749
   59CHL1   C23 6831   2.456   4.692   9.065 -0.4103 -0.1366 -0.9060
   59CHL1  H23A 6832   2.445   4.774   8.990  0.2055  0.7451 -0.0529
   59CHL1  H23B 6833   2.557   4.652   9.087  0.7622  2.7156 -0.6404
   59CHL1   C24 6834   2.357   4.577   9.027 -0.3008 -1.1324 -0.3256
   59CHL1  H24A 6835   2.359   4.506   9.113  1.6055  1.1749  1.6696
   59CHL1  H24B 6836   2.256   4.623   9.028 -0.8744 -2.3342  1.4729
   59CHL1   C25 6837   2.393   4.510   8.887 -0.4993  0.4999  0.1349
   59CHL1   H25 6838   2.316   4.431   8.873 -1.2671  0.4457  3.7560
   59CHL1   C26 6839   2.388   4.607   8.767 -0.6578 -0.7013 -0.2913
   59CHL1  H26A 6840   2.426   4.551   8.680  1.9614  0.2519  0.1413
   59CHL1  H26B 6841   2.287   4.649   8.753 -0.2959  0.2630 -0.0810
   59CHL1  H26C 6842   2.465   4.685   8.786 -2.9602  1.4108  1.0060
   59CHL1   C27 6843   2.528   4.439   8.887  0.2777 -0.1412 -1.0853
   59CHL1  H27A 6844   2.610   4.514   8.888  0.2718 -0.0796 -2.7292
   59CHL1  H27B 6845   2.535   4.377   8.979 -0.5542  0.4136 -0.6353
   59CHL1  H27C 6846   2.538   4.371   8.800 -0.1456 -0.5265 -0.8373
   60CHL1    C3 6847   4.427   2.773  10.186  0.4215  0.2947 -0.0714
   60CHL1    H3 6848   4.317   2.789  10.174  0.1812 -0.6669  0.6947
   60CHL1    O3 6849   4.435   2.677  10.295  0.2167  0.3323  0.1850
   60CHL1   H3' 6850   4.528   2.668  10.314 -0.2323  0.0156  2.4852
   60CHL1    C4 6851   4.481   2.706  10.059  0.1585  0.1442  0.4212
   60CHL1   H4A 6852   4.581   2.666  10.086 -0.4210  0.3380  3.1420
   60CHL1   H4B 6853   4.411   2.624  10.036 -1.6949  1.5614  0.7827
   60CHL1    C5 6854   4.489   2.800   9.942 -0.1492  0.4314 -0.0200
   60CHL1    C6 6855   4.433   2.781   9.822 -0.2508 -0.1008 -0.8396
   60CHL1    H6 6856   4.376   2.687   9.812 -1.6795  0.7245 -0.7978
   60CHL1    C7 6857   4.432   2.871   9.708  0.0477  0.1951 -0.1939
   60CHL1   H7A 6858   4.445   2.816   9.611  1.5964  0.0261  0.0774
   60CHL1   H7B 6859   4.334   2.923   9.713 -0.2152 -0.1958 -0.9309
   60CHL1    C8 6860   4.547   2.978   9.719  0.1229 -0.0492 -0.5139
   60CHL1    H8 6861   4.648   2.934   9.709 -0.5885 -2.3677  1.4017
   60CHL1   C14 6862   4.508   3.087   9.612  0.2924 -1.0441 -0.3709
   60CHL1   H14 6863   4.414   3.129   9.654  0.9401 -1.8405  2.0334
   60CHL1   C15 6864   4.489   3.032   9.472 -0.2401  0.0181  0.4207
   60CHL1  H15A 6865   4.581   2.974   9.453 -0.0930 -0.6149  2.8321
   60CHL1  H15B 6866   4.395   2.976   9.453  0.6841 -1.4726  0.0629
   60CHL1   C16 6867   4.499   3.162   9.384  0.3566  0.0114 -0.1338
   60CHL1  H16A 6868   4.575   3.151   9.304  1.0814 -1.0830  0.6821
   60CHL1  H16B 6869   4.399   3.190   9.343  0.6646  3.1518  1.0498
   60CHL1   C17 6870   4.553   3.276   9.481  0.5668 -0.1706  0.0160
   60CHL1   H17 6871   4.458   3.325   9.512  0.0592  0.5637 -2.4423
   60CHL1   C13 6872   4.607   3.201   9.606 -0.1766 -0.5029 -0.9257
   60CHL1   C18 6873   4.750   3.148   9.573  0.1933  0.0904  0.3359
   60CHL1  H18A 6874   4.780   3.066   9.642  0.7571  0.2464  0.2854
   60CHL1  H18B 6875   4.755   3.102   9.472  1.6382 -1.0653  0.8915
   60CHL1  H18C 6876   4.831   3.224   9.565  0.2421  0.2078  1.7587
   60CHL1   C12 6877   4.606   3.264   9.748  0.8536 -0.4406  0.2060
   60CHL1  H12A 6878   4.681   3.345   9.757  0.4766 -0.1178  0.4846
   60CHL1  H12B 6879   4.502   3.304   9.748  0.2345 -1.9268 -0.6759
   60CHL1   C11 6880   4.632   3.164   9.863 -0.6521 -0.8464 -0.5839
   60CHL1  H11A 6881   4.735   3.123   9.854 -0.2262  0.1670 -0.4725
   60CHL1  H11B 6882   4.614   3.214   9.960 -1.3924 -0.9017 -0.6859
   60CHL1    C9 6883   4.544   3.038   9.858  0.0555 -0.1994 -0.3593
   60CHL1    H9 6884   4.444   3.080   9.882 -0.8004 -2.0039 -0.5545
   60CHL1   C10 6885   4.562   2.935   9.977 -0.2316 -0.1233  0.0305
   60CHL1   C19 6886   4.714   2.911   9.998 -0.0687 -0.2335 -0.6380
   60CHL1  H19A 6887   4.715   2.831  10.075  0.8831  1.0779  0.7763
   60CHL1  H19B 6888   4.765   2.872   9.907 -1.3558 -1.3213 -0.9349
   60CHL1  H19C 6889   4.765   2.994  10.050 -0.8980 -0.1741  0.1072
   60CHL1    C1 6890   4.503   2.999  10.105  0.1538  0.4979  0.2665
   60CHL1   H1A 6891   4.558   3.095  10.112  0.6409  0.2275  0.2791
   60CHL1   H1B 6892   4.401   3.024  10.069  0.9839 -0.4573 -3.2072
   60CHL1    C2 6893   4.506   2.899  10.222 -0.1258  0.1044 -0.1843
   60CHL1   H2A 6894   4.445   2.946  10.302  1.3296 -0.1675  1.1294
   60CHL1   H2B 6895   4.607   2.877  10.262  0.0306  1.4782  0.2549
   60CHL1   C20 6896   4.631   3.386   9.412 -0.2020 -0.1019 -0.2459
   60CHL1   H20 6897   4.734   3.343   9.406 -0.7614 -1.4279 -0.7149
   60CHL1   C21 6898   4.646   3.507   9.501  0.1515 -0.1283  0.0194
   60CHL1  H21A 6899   4.552   3.567   9.505  0.1493 -0.1957  2.5576
   60CHL1  H21B 6900   4.728   3.567   9.457  0.4367 -1.4837 -1.3574
   60CHL1  H21C 6901   4.672   3.480   9.605 -3.0259 -1.1414  0.6715
   60CHL1   C22 6902   4.572   3.420   9.275  0.4060 -0.2866  0.6531
   60CHL1  H22A 6903   4.572   3.330   9.211 -0.0309 -0.2808  0.6400
   60CHL1  H22B 6904   4.463   3.440   9.285  0.8171  2.7885  0.1380
   60CHL1   C23 6905   4.644   3.534   9.199 -0.5633 -0.3969  0.0763
   60CHL1  H23A 6906   4.628   3.630   9.253 -3.0258 -1.1538  0.7874
   60CHL1  H23B 6907   4.753   3.519   9.183 -0.3069  2.0462 -0.8960
   60CHL1   C24 6908   4.580   3.563   9.064  0.0847 -0.2640 -0.6972
   60CHL1  H24A 6909   4.582   3.469   9.005  0.8135 -0.3321 -0.5768
   60CHL1  H24B 6910   4.480   3.608   9.085  1.1294  1.1363  1.6809
   60CHL1   C25 6911   4.664   3.673   8.984  0.9052  0.5575 -0.1565
   60CHL1   H25 6912   4.687   3.760   9.050 -0.5345  2.7684 -2.3777
   60CHL1   C26 6913   4.804   3.633   8.937  0.3632  0.3806 -0.0475
   60CHL1  H26A 6914   4.870   3.713   8.899  1.6874 -1.1216 -1.0531
   60CHL1  H26B 6915   4.858   3.588   9.023  1.5540  3.3811  0.9064
   60CHL1  H26C 6916   4.803   3.574   8.843  1.8111  0.6104 -0.2275
   60CHL1   C27 6917   4.583   3.730   8.872 -0.0738  0.1159  0.5541
   60CHL1  H27A 6918   4.640   3.815   8.828  0.6054 -0.0109  1.1593
   60CHL1  H27B 6919   4.568   3.650   8.796 -0.4694 -0.8507  1.6221
   60CHL1  H27C 6920   4.492   3.769   8.921  0.1064  1.5823 -0.2021
   61CHL1    C3 6921   6.841   4.031  10.114  0.5908 -0.1364 -0.5481
   61CHL1    H3 6922   6.918   4.105  10.081  2.1187 -0.6881  1.5572
   61CHL1    O3 6923   6.835   4.025  10.255 -0.7116 -0.5265  0.1661
   61CHL1   H3' 6924   6.775   3.954  10.279 -1.2577  0.4225  1.7114
   61CHL1    C4 6925   6.705   4.085  10.078  0.0026 -1.0718  0.3484
   61CHL1   H4A 6926   6.615   4.034  10.117  0.6152 -2.9721 -0.6185
   61CHL1   H4B 6927   6.710   4.184  10.129  2.8757  1.2318 -3.8009
   61CHL1    C5 6928   6.687   4.100   9.926 -0.0189  1.0212 -0.1825
   61CHL1    C6 6929   6.663   4.215   9.864 -0.0001 -0.2394 -0.6963
   61CHL1    H6 6930   6.659   4.305   9.926  0.5989 -0.3029 -0.5611
   61CHL1    C7 6931   6.646   4.224   9.719  0.1430  0.1067 -0.2436
   61CHL1   H7A 6932   6.554   4.282   9.697  0.6308  0.8364 -0.3788
   61CHL1   H7B 6933   6.734   4.275   9.677 -0.2577 -0.1101 -1.3848
   61CHL1    C8 6934   6.620   4.089   9.650 -0.3384 -0.1407 -0.4500
   61CHL1    H8 6935   6.522   4.042   9.677  0.2583  0.2038  2.6719
   61CHL1   C14 6936   6.641   4.108   9.500 -0.5462 -0.4508  0.1991
   61CHL1   H14 6937   6.749   4.132   9.492 -0.9672  1.4416 -0.4090
   61CHL1   C15 6938   6.572   4.222   9.437 -0.1236  0.1094  0.6778
   61CHL1  H15A 6939   6.471   4.240   9.481 -0.3172  0.1318  0.2289
   61CHL1  H15B 6940   6.628   4.318   9.438  0.8961 -0.4729  0.5777
   61CHL1   C16 6941   6.560   4.178   9.286 -0.6304  0.6119  0.6157
   61CHL1  H16A 6942   6.451   4.175   9.264 -0.5295  1.2311 -0.0093
   61CHL1  H16B 6943   6.614   4.246   9.216  1.2756 -0.4230  1.0268
   61CHL1   C17 6944   6.613   4.033   9.273 -0.3474 -0.4699 -0.5600
   61CHL1   H17 6945   6.723   4.047   9.261 -0.3544 -2.1848 -3.5351
   61CHL1   C13 6946   6.610   3.980   9.419 -1.0000  0.5039 -0.3496
   61CHL1   C18 6947   6.472   3.920   9.442 -0.5103  0.2391  0.0278
   61CHL1  H18A 6948   6.406   3.998   9.398 -0.3470  0.0088 -0.6413
   61CHL1  H18B 6949   6.460   3.826   9.385 -1.0674 -0.6350  1.5601
   61CHL1  H18C 6950   6.440   3.908   9.547 -0.4454 -1.1848 -0.1005
   61CHL1   C12 6951   6.717   3.878   9.466 -0.2484 -0.2745  0.3856
   61CHL1  H12A 6952   6.714   3.779   9.415 -0.4623 -0.0596 -0.0228
   61CHL1  H12B 6953   6.813   3.919   9.427 -0.4548  0.9909  1.1682
   61CHL1   C11 6954   6.709   3.853   9.617  0.0720  0.0651 -0.3652
   61CHL1  H11A 6955   6.618   3.794   9.642 -0.0870  0.7296  0.6874
   61CHL1  H11B 6956   6.797   3.791   9.642  1.4741  1.1350 -2.3756
   61CHL1    C9 6957   6.717   3.987   9.705 -0.1704 -0.0549 -0.1130
   61CHL1    H9 6958   6.820   4.024   9.682 -0.6554  0.9113 -0.7811
   61CHL1   C10 6959   6.712   3.965   9.853  0.6789 -0.2588  0.5108
   61CHL1   C19 6960   6.596   3.861   9.878 -0.0227  0.2300  0.2576
   61CHL1  H19A 6961   6.509   3.887   9.814 -0.9806 -1.7481  0.6860
   61CHL1  H19B 6962   6.631   3.759   9.852  0.3708  0.2477  0.7094
   61CHL1  H19C 6963   6.561   3.860   9.983  0.4036  0.4767  0.4047
   61CHL1    C1 6964   6.849   3.904   9.900 -0.3548  0.5131 -0.3563
   61CHL1   H1A 6965   6.872   3.803   9.859  0.0712  0.7258 -0.6604
   61CHL1   H1B 6966   6.935   3.967   9.869  0.9004  0.7864  3.2151
   61CHL1    C2 6967   6.868   3.895  10.051  0.6600 -0.0467 -0.6497
   61CHL1   H2A 6968   6.969   3.862  10.085  0.0888  2.0343  3.6863
   61CHL1   H2B 6969   6.785   3.827  10.078 -0.8304  1.0991 -2.1391
   61CHL1   C20 6970   6.564   3.951   9.152  0.2299 -0.2596 -0.0643
   61CHL1   H20 6971   6.466   3.901   9.170 -0.1716  0.0558 -1.2627
   61CHL1   C21 6972   6.666   3.841   9.120  0.9382  0.2446  0.0643
   61CHL1  H21A 6973   6.666   3.771   9.206 -0.2054 -0.5512 -0.5604
   61CHL1  H21B 6974   6.764   3.894   9.116  0.1011  1.7987 -0.6198
   61CHL1  H21C 6975   6.649   3.793   9.021 -1.5985 -1.2268  1.1238
   61CHL1   C22 6976   6.545   4.047   9.033 -0.2914  0.1218  0.0131
   61CHL1  H22A 6977   6.492   4.143   9.052  0.3833  0.6722 -0.7465
   61CHL1  H22B 6978   6.645   4.075   8.994 -0.8838  0.3360 -1.4271
   61CHL1   C23 6979   6.476   3.983   8.916 -0.2170 -0.6982 -0.1841
   61CHL1  H23A 6980   6.505   3.877   8.902  1.6838 -0.3504  0.8243
   61CHL1  H23B 6981   6.369   3.988   8.947  0.4610 -2.4415  2.7270
   61CHL1   C24 6982   6.498   4.069   8.789 -0.4897 -0.0404 -0.2535
   61CHL1  H24A 6983   6.460   4.173   8.805  2.6708  1.2570 -0.4701
   61CHL1  H24B 6984   6.605   4.084   8.763 -0.2936 -1.0980 -0.0761
   61CHL1   C25 6985   6.428   4.000   8.671 -0.3804 -0.0714 -0.2446
   61CHL1   H25 6986   6.320   3.989   8.697 -0.7727 -0.3102 -1.8891
   61CHL1   C26 6987   6.450   4.097   8.553  0.2843  0.4100 -0.2142
   61CHL1  H26A 6988   6.555   4.111   8.519 -0.5073 -0.0240 -3.1317
   61CHL1  H26B 6989   6.403   4.034   8.474  1.9607 -2.6962  1.1000
   61CHL1  H26C 6990   6.402   4.195   8.572  0.7530  0.7095 -0.5563
   61CHL1   C27 6991   6.474   3.853   8.638 -0.0823 -0.4954  0.5340
   61CHL1  H27A 6992   6.583   3.845   8.615 -0.5165 -0.0183 -1.9808
   61CHL1  H27B 6993   6.457   3.785   8.725 -1.2235  0.2094  0.8777
   61CHL1  H27C 6994   6.415   3.812   8.554 -1.3700  2.6841 -0.2647
   62CHL1    C3 6995   1.377   0.566  10.076 -0.0251 -0.1264 -0.7781
   62CHL1    H3 6996   1.486   0.543  10.081  0.3225  0.5804 -3.5439
   62CHL1    O3 6997   1.319   0.589  10.204 -0.2521  0.4602  0.2253
   62CHL1   H3' 6998   1.225   0.593  10.183 -0.3772  1.3309  0.8964
   62CHL1    C4 6999   1.359   0.690   9.988  0.1104 -0.7334  0.3209
   62CHL1   H4A 7000   1.249   0.705   9.993 -0.0464 -1.5440 -0.3577
   62CHL1   H4B 7001   1.405   0.780  10.033  1.0288 -0.5326 -0.9424
   62CHL1    C5 7002   1.398   0.672   9.844  0.1133  0.1888  0.4642
   62CHL1    C6 7003   1.473   0.759   9.773 -0.2303 -1.0262 -0.9413
   62CHL1    H6 7004   1.528   0.835   9.831 -0.3219 -0.8881 -1.0367
   62CHL1    C7 7005   1.510   0.752   9.634  0.1536 -0.4184 -0.2539
   62CHL1   H7A 7006   1.491   0.851   9.588 -0.6687 -0.2741  0.3768
   62CHL1   H7B 7007   1.614   0.715   9.621  0.2397 -0.8188  1.3721
   62CHL1    C8 7008   1.422   0.652   9.556  0.1638 -0.3564  0.3617
   62CHL1    H8 7009   1.323   0.696   9.536 -0.4550 -2.1463 -0.7531
   62CHL1   C14 7010   1.482   0.628   9.419  0.4619  0.2385  0.3024
   62CHL1   H14 7011   1.580   0.581   9.438  0.9037  1.6591  1.7386
   62CHL1   C15 7012   1.509   0.739   9.319 -0.2256 -0.2576  0.5473
   62CHL1  H15A 7013   1.420   0.805   9.325  0.7440  1.1627  0.0015
   62CHL1  H15B 7014   1.593   0.796   9.364  2.2161 -1.5027 -2.0866
   62CHL1   C16 7015   1.542   0.669   9.188  0.1985 -0.2383  0.0604
   62CHL1  H16A 7016   1.463   0.715   9.125 -1.1104  0.2308  1.9798
   62CHL1  H16B 7017   1.648   0.679   9.154 -0.2009 -0.3311 -1.2705
   62CHL1   C17 7018   1.504   0.517   9.210 -1.4498  0.2178 -0.1089
   62CHL1   H17 7019   1.604   0.482   9.242 -0.7532  2.2276  0.0880
   62CHL1   C13 7020   1.422   0.514   9.338  0.5378 -0.0015  0.1613
   62CHL1   C18 7021   1.269   0.548   9.297 -0.9067  0.2011 -0.0716
   62CHL1  H18A 7022   1.224   0.460   9.245  0.7273 -0.7081 -0.0250
   62CHL1  H18B 7023   1.208   0.553   9.390  1.1456  2.0249  1.2509
   62CHL1  H18C 7024   1.247   0.635   9.233 -1.3694  0.5192  0.5025
   62CHL1   C12 7025   1.425   0.384   9.419 -0.2995 -0.3333  0.6856
   62CHL1  H12A 7026   1.396   0.297   9.356  1.8097 -0.0095 -0.8236
   62CHL1  H12B 7027   1.525   0.354   9.456  0.3214  1.4648  0.5425
   62CHL1   C11 7028   1.347   0.406   9.551 -0.1257  0.1101 -0.4178
   62CHL1  H11A 7029   1.240   0.434   9.544 -0.3726 -0.0848  1.6757
   62CHL1  H11B 7030   1.354   0.309   9.605 -0.4447  0.3626  0.0813
   62CHL1    C9 7031   1.410   0.522   9.633  0.0703 -0.6359  0.3692
   62CHL1    H9 7032   1.516   0.497   9.657  0.4117  2.5398  2.7604
   62CHL1   C10 7033   1.339   0.546   9.771 -0.0352 -0.2828  0.1182
   62CHL1   C19 7034   1.188   0.570   9.749  0.0609  0.5089  0.3194
   62CHL1  H19A 7035   1.169   0.658   9.684  2.0324 -0.8052 -2.1841
   62CHL1  H19B 7036   1.130   0.490   9.700  0.1643  1.5682 -1.6198
   62CHL1  H19C 7037   1.139   0.606   9.842  1.2270  0.4707  0.9629
   62CHL1    C1 7038   1.362   0.422   9.864  0.0566  0.6761  0.5776
   62CHL1   H1A 7039   1.326   0.330   9.813  1.3886  0.3522  0.1914
   62CHL1   H1B 7040   1.472   0.416   9.874  0.0410  1.5610  1.3972
   62CHL1    C2 7041   1.315   0.435  10.014 -0.1180  0.9055 -0.1149
   62CHL1   H2A 7042   1.337   0.344  10.074 -0.6371 -0.2828 -1.6793
   62CHL1   H2B 7043   1.206   0.459  10.012  0.3132  3.1155 -0.0908
   62CHL1   C20 7044   1.465   0.439   9.082 -0.1119  0.0584  0.0875
   62CHL1   H20 7045   1.398   0.356   9.114 -0.1892  0.5693  1.3256
   62CHL1   C21 7046   1.591   0.369   9.028  0.0026 -0.1975 -0.4659
   62CHL1  H21A 7047   1.617   0.283   9.095  0.8031 -0.2739 -0.8667
   62CHL1  H21B 7048   1.669   0.447   9.027 -1.8073  1.7296  0.4177
   62CHL1  H21C 7049   1.563   0.326   8.929  1.1383 -1.2403 -0.3524
   62CHL1   C22 7050   1.387   0.523   8.978 -0.1200 -0.5822 -0.0924
   62CHL1  H22A 7051   1.299   0.575   9.023 -0.0556 -1.8614  1.6168
   62CHL1  H22B 7052   1.462   0.591   8.933 -0.8982  1.0017  0.8916
   62CHL1   C23 7053   1.329   0.435   8.868  0.2383  0.1202 -0.4964
   62CHL1  H23A 7054   1.408   0.371   8.823  1.2154  1.9725 -1.5867
   62CHL1  H23B 7055   1.257   0.367   8.918  0.9200  1.1833  2.1277
   62CHL1   C24 7056   1.257   0.519   8.757 -0.1020 -0.3618  1.2031
   62CHL1  H24A 7057   1.166   0.564   8.801  0.0390  2.9815 -1.5582
   62CHL1  H24B 7058   1.317   0.612   8.752  1.3069 -1.2435  1.1725
   62CHL1   C25 7059   1.230   0.453   8.624 -0.5078  0.2146 -0.3624
   62CHL1   H25 7060   1.326   0.423   8.576  0.7064  2.3920  0.5366
   62CHL1   C26 7061   1.141   0.335   8.634  0.3795 -0.0372 -0.3309
   62CHL1  H26A 7062   1.099   0.300   8.538 -2.0549  2.1027 -0.1613
   62CHL1  H26B 7063   1.178   0.245   8.688 -0.0063  1.6403  2.9840
   62CHL1  H26C 7064   1.044   0.367   8.678  1.0415  0.7829  0.5910
   62CHL1   C27 7065   1.174   0.556   8.524  0.3020  0.1622  0.3860
   62CHL1  H27A 7066   1.151   0.510   8.426 -0.1825 -1.4300  1.2042
   62CHL1  H27B 7067   1.077   0.588   8.567  0.7157 -1.6326  2.9040
   62CHL1  H27C 7068   1.240   0.642   8.501 -0.8767  0.4276 -2.3349
   63CHL1    C3 7069   3.386   1.569  10.341 -0.0721 -0.3377  0.8394
   63CHL1    H3 7070   3.304   1.508  10.297 -0.0829  0.5051 -0.3655
   63CHL1    O3 7071   3.389   1.557  10.482  0.5978 -0.2769  0.2943
   63CHL1   H3' 7072   3.477   1.578  10.516  1.4904 -0.2621 -1.8626
   63CHL1    C4 7073   3.524   1.522  10.271  0.1616  0.0939 -0.1686
   63CHL1   H4A 7074   3.603   1.583  10.321 -1.2647  1.3521  0.6349
   63CHL1   H4B 7075   3.538   1.416  10.301  0.4776  0.2116  0.0975
   63CHL1    C5 7076   3.513   1.537  10.118 -0.1755  0.2018 -0.4852
   63CHL1    C6 7077   3.526   1.431  10.035 -0.2257  0.8622 -0.7762
   63CHL1    H6 7078   3.553   1.338  10.087  0.7102  1.2057 -0.6229
   63CHL1    C7 7079   3.534   1.426   9.885 -0.6158 -0.4048 -0.5148
   63CHL1   H7A 7080   3.619   1.373   9.836 -2.4962 -1.1573 -3.2113
   63CHL1   H7B 7081   3.441   1.369   9.863 -0.6249 -1.5556  2.1253
   63CHL1    C8 7082   3.539   1.573   9.833 -0.0596 -0.4424  0.2361
   63CHL1    H8 7083   3.642   1.616   9.832 -0.7522  1.2807  0.0817
   63CHL1   C14 7084   3.484   1.564   9.694  0.6351 -0.6579  0.3062
   63CHL1   H14 7085   3.379   1.530   9.705 -0.0083  0.5125 -1.6751
   63CHL1   C15 7086   3.550   1.466   9.596 -0.4955  0.4677 -0.4452
   63CHL1  H15A 7087   3.661   1.473   9.597 -0.5507  2.1345  1.3110
   63CHL1  H15B 7088   3.520   1.362   9.621  0.0305  0.1448 -1.1259
   63CHL1   C16 7089   3.505   1.517   9.462 -0.3230 -0.5133  0.7281
   63CHL1  H16A 7090   3.592   1.533   9.395  0.2556 -0.8573  1.3906
   63CHL1  H16B 7091   3.449   1.430   9.423  0.0919 -0.0030 -1.1191
   63CHL1   C17 7092   3.422   1.649   9.485  0.3551 -0.1457 -0.3293
   63CHL1   H17 7093   3.317   1.623   9.510  0.4398  0.9631  1.3730
   63CHL1   C13 7094   3.475   1.695   9.622 -0.2952  0.7950 -0.1095
   63CHL1   C18 7095   3.621   1.745   9.606 -0.3917 -0.1981  0.1947
   63CHL1  H18A 7096   3.683   1.678   9.542 -2.1343 -0.2222 -1.5863
   63CHL1  H18B 7097   3.616   1.843   9.553 -3.6236  0.6493  1.8128
   63CHL1  H18C 7098   3.671   1.761   9.704  0.2618 -2.7179  0.3550
   63CHL1   C12 7099   3.396   1.802   9.698  0.1569 -0.0839 -0.4853
   63CHL1  H12A 7100   3.414   1.899   9.646  1.7699 -0.8580 -1.4851
   63CHL1  H12B 7101   3.289   1.774   9.693  0.0890 -0.7212  2.5735
   63CHL1   C11 7102   3.452   1.806   9.845 -0.3370 -0.5416  0.0765
   63CHL1  H11A 7103   3.553   1.851   9.846  0.4378 -2.2302  0.6769
   63CHL1  H11B 7104   3.386   1.875   9.903  1.1726  1.0481 -0.0044
   63CHL1    C9 7105   3.448   1.671   9.913 -0.3973  0.1158  0.0429
   63CHL1    H9 7106   3.344   1.633   9.906  0.2029 -1.7835  0.6921
   63CHL1   C10 7107   3.474   1.677  10.068 -0.8752  0.6970  0.2144
   63CHL1   C19 7108   3.598   1.760  10.106  0.5147  0.2949 -0.5754
   63CHL1  H19A 7109   3.605   1.775  10.215 -2.2480  0.5188 -0.3673
   63CHL1  H19B 7110   3.694   1.711  10.077  1.8378  2.3572  0.0682
   63CHL1  H19C 7111   3.596   1.857  10.050 -0.2333  0.0570 -0.9807
   63CHL1    C1 7112   3.349   1.724  10.145 -0.2785  0.1269  0.3340
   63CHL1   H1A 7113   3.329   1.829  10.115  1.9956  1.0746  1.9045
   63CHL1   H1B 7114   3.260   1.663  10.118  0.9883 -1.7915  0.3054
   63CHL1    C2 7115   3.371   1.715  10.295 -0.3842 -0.2702  0.1084
   63CHL1   H2A 7116   3.277   1.749  10.343 -0.3577  1.9805 -1.3166
   63CHL1   H2B 7117   3.452   1.770  10.346  0.1140 -0.0730 -0.8808
   63CHL1   C20 7118   3.418   1.732   9.360 -0.1219  0.2343  0.0829
   63CHL1   H20 7119   3.512   1.791   9.348 -0.1520  0.0470 -1.3149
   63CHL1   C21 7120   3.305   1.836   9.376 -0.3139  0.3098 -0.4968
   63CHL1  H21A 7121   3.286   1.905   9.291  0.5475  0.2427 -0.7497
   63CHL1  H21B 7122   3.313   1.901   9.466  2.4919 -2.3315  1.3315
   63CHL1  H21C 7123   3.207   1.783   9.386 -0.7471  1.4440  2.3520
   63CHL1   C22 7124   3.392   1.647   9.231  0.4234  0.6595 -0.8662
   63CHL1  H22A 7125   3.475   1.577   9.212  0.0730 -0.5879  1.7147
   63CHL1  H22B 7126   3.303   1.587   9.258  0.3066  0.5316 -1.5395
   63CHL1   C23 7127   3.368   1.737   9.102  0.6648 -0.2465 -0.4667
   63CHL1  H23A 7128   3.269   1.785   9.104  1.0509  0.5733 -0.5905
   63CHL1  H23B 7129   3.452   1.810   9.103  0.9635 -0.5578  1.2498
   63CHL1   C24 7130   3.380   1.649   8.980  0.2810  0.2358 -0.5776
   63CHL1  H24A 7131   3.477   1.595   8.981 -0.3593 -0.9546 -0.9453
   63CHL1  H24B 7132   3.301   1.571   8.982  1.4068 -0.9247  1.2266
   63CHL1   C25 7133   3.389   1.736   8.846 -0.2490 -0.2538 -0.9414
   63CHL1   H25 7134   3.458   1.820   8.868  1.2192 -2.2090  2.8035
   63CHL1   C26 7135   3.435   1.637   8.739 -0.4799 -0.1039  0.3287
   63CHL1  H26A 7136   3.363   1.553   8.728 -0.4447  0.0937 -2.1554
   63CHL1  H26B 7137   3.447   1.687   8.640 -0.7363 -0.2523  0.2210
   63CHL1  H26C 7138   3.528   1.589   8.778  0.7863  0.4750 -1.8025
   63CHL1   C27 7139   3.249   1.789   8.800 -0.4523 -0.2792  0.1408
   63CHL1  H27A 7140   3.184   1.699   8.789  0.8666 -1.3089  0.4310
   63CHL1  H27B 7141   3.201   1.852   8.877  0.7899 -0.4244  1.0590
   63CHL1  H27C 7142   3.255   1.844   8.704 -2.6670  0.1438  0.1993
   64CHL1    C3 7143   1.499   6.821   9.942 -0.7705 -0.3659  0.3667
   64CHL1    H3 7144   1.435   6.731   9.932 -1.3892  0.1221 -0.2096
   64CHL1    O3 7145   1.508   6.879  10.077  0.2950 -0.4315 -0.7107
   64CHL1   H3' 7146   1.507   6.805  10.138 -0.4028 -1.2789 -1.7243
   64CHL1    C4 7147   1.643   6.758   9.915 -0.0675  0.5252 -0.9783
   64CHL1   H4A 7148   1.717   6.830   9.956 -1.7373  2.0083 -0.4130
   64CHL1   H4B 7149   1.649   6.672   9.984 -1.9512  0.0717 -1.3069
   64CHL1    C5 7150   1.665   6.710   9.775 -0.3676  0.8158 -0.6838
   64CHL1    C6 7151   1.704   6.582   9.752 -0.5015 -0.7642 -0.2933
   64CHL1    H6 7152   1.736   6.521   9.838 -0.1441 -1.1378 -0.6807
   64CHL1    C7 7153   1.717   6.534   9.611 -0.1566  0.8809 -1.0063
   64CHL1   H7A 7154   1.812   6.477   9.602 -0.8316 -0.6221  0.7508
   64CHL1   H7B 7155   1.639   6.455   9.596  0.2777 -0.6460  3.4068
   64CHL1    C8 7156   1.716   6.645   9.501  0.3407 -0.1550  0.4535
   64CHL1    H8 7157   1.812   6.700   9.510  0.4998 -0.0264 -1.5996
   64CHL1   C14 7158   1.697   6.590   9.360  0.5211  0.0495  0.2249
   64CHL1   H14 7159   1.592   6.553   9.356  0.5268  0.0568 -0.0343
   64CHL1   C15 7160   1.786   6.470   9.307  0.0313 -0.5304 -0.4148
   64CHL1  H15A 7161   1.894   6.475   9.331  0.4456 -1.0959 -2.0810
   64CHL1  H15B 7162   1.740   6.373   9.336  0.7724 -0.8275 -0.2220
   64CHL1   C16 7163   1.780   6.482   9.145  0.2465  0.2863 -0.4077
   64CHL1  H16A 7164   1.884   6.510   9.115  0.8681 -0.5444  0.8624
   64CHL1  H16B 7165   1.750   6.391   9.090 -0.1493  1.4712 -2.2419
   64CHL1   C17 7166   1.692   6.607   9.118  0.3228  0.2790  0.4945
   64CHL1   H17 7167   1.585   6.575   9.115  0.8874 -1.6437 -0.5607
   64CHL1   C13 7168   1.705   6.693   9.243 -0.2368  0.1407 -0.3520
   64CHL1   C18 7169   1.840   6.763   9.244  0.1565 -0.1017  0.2468
   64CHL1  H18A 7170   1.827   6.845   9.170  2.7343 -0.2677 -0.5082
   64CHL1  H18B 7171   1.876   6.803   9.341 -1.1342 -1.0622  1.1416
   64CHL1  H18C 7172   1.926   6.708   9.201  0.2095  0.1949 -0.0317
   64CHL1   C12 7173   1.591   6.794   9.269 -0.2642  0.2246 -0.6908
   64CHL1  H12A 7174   1.603   6.878   9.197 -1.7936 -0.9232 -2.3762
   64CHL1  H12B 7175   1.492   6.745   9.252 -0.5768  0.7134 -0.3121
   64CHL1   C11 7176   1.594   6.855   9.410 -0.2565  0.6823  0.2799
   64CHL1  H11A 7177   1.686   6.917   9.412 -0.3089  0.8653 -1.6695
   64CHL1  H11B 7178   1.500   6.913   9.417 -0.9151  0.3297 -3.5531
   64CHL1    C9 7179   1.608   6.746   9.530 -0.4969  0.5072 -0.1927
   64CHL1    H9 7180   1.522   6.677   9.526 -0.1458 -0.2844  3.0350
   64CHL1   C10 7181   1.620   6.813   9.669  0.1270 -0.0980  0.6220
   64CHL1   C19 7182   1.734   6.923   9.673 -0.6724 -0.5052  0.0117
   64CHL1  H19A 7183   1.702   7.009   9.610  3.2000  1.5218  0.4979
   64CHL1  H19B 7184   1.758   6.961   9.775 -1.3524 -0.1284  0.0400
   64CHL1  H19C 7185   1.826   6.883   9.627 -0.8414 -0.2335 -0.5653
   64CHL1    C1 7186   1.484   6.885   9.692 -0.9569  0.1397 -0.6108
   64CHL1   H1A 7187   1.469   6.980   9.636  1.1673 -0.0720 -1.6155
   64CHL1   H1B 7188   1.393   6.829   9.660 -1.8842  0.9654  0.4761
   64CHL1    C2 7189   1.458   6.928   9.840  0.4747 -0.8479  0.5882
   64CHL1   H2A 7190   1.350   6.951   9.850  0.2355 -1.9295  0.5473
   64CHL1   H2B 7191   1.519   7.017   9.868 -0.4187 -0.4713  1.4092
   64CHL1   C20 7192   1.727   6.667   8.977 -0.6563  0.2210 -0.6596
   64CHL1   H20 7193   1.834   6.694   8.987 -1.0605  2.1918 -1.2463
   64CHL1   C21 7194   1.647   6.799   8.955 -0.2685 -0.0943  0.4576
   64CHL1  H21A 7195   1.540   6.785   8.981 -0.8892 -1.9404 -2.5315
   64CHL1  H21B 7196   1.654   6.849   8.856 -2.3076 -0.7805 -0.0695
   64CHL1  H21C 7197   1.699   6.874   9.018  0.7160 -2.4463  2.6208
   64CHL1   C22 7198   1.692   6.569   8.867 -0.4431  0.2843  0.1942
   64CHL1  H22A 7199   1.693   6.467   8.911  0.2872  0.4453  0.5601
   64CHL1  H22B 7200   1.594   6.597   8.823  0.4791  2.0650 -0.8621
   64CHL1   C23 7201   1.803   6.553   8.747  1.0038 -0.1759 -0.5028
   64CHL1  H23A 7202   1.747   6.493   8.674  1.1185 -1.5450  0.4917
   64CHL1  H23B 7203   1.824   6.653   8.703 -3.4531  0.6339 -1.2365
   64CHL1   C24 7204   1.922   6.471   8.793 -0.2463 -0.0411 -0.0696
   64CHL1  H24A 7205   1.991   6.482   8.706  0.2052  3.8832  0.6098
   64CHL1  H24B 7206   1.972   6.520   8.879 -0.9885  0.9910 -0.2096
   64CHL1   C25 7207   1.905   6.325   8.836 -0.2614  0.1532 -0.0587
   64CHL1   H25 7208   1.813   6.308   8.896 -0.2617  2.2349  0.5813
   64CHL1   C26 7209   1.894   6.238   8.706  0.5565 -0.1862 -0.3117
   64CHL1  H26A 7210   1.812   6.269   8.638 -0.6826 -0.2288  1.1207
   64CHL1  H26B 7211   1.989   6.256   8.650  0.7358 -1.1993 -0.3477
   64CHL1  H26C 7212   1.881   6.131   8.729  0.7307 -0.5043 -1.5995
   64CHL1   C27 7213   2.020   6.276   8.927 -0.1951 -0.0484 -0.2632
   64CHL1  H27A 7214   2.033   6.346   9.013  0.8607 -2.2944  1.5162
   64CHL1  H27B 7215   1.986   6.186   8.982  1.9628 -0.0710  1.1580
   64CHL1  H27C 7216   2.117   6.266   8.874  0.2934 -1.3255  0.8040
   65CHL1    C3 7217   4.155   4.942  10.211 -0.4902 -0.3141  0.1374
   65CHL1    H3 7218   4.045   4.956  10.201 -0.2805  1.9550  0.4843
   65CHL1    O3 7219   4.184   4.928  10.357 -0.5997  0.7108  0.4550
   65CHL1   H3' 7220   4.241   5.002  10.379  0.2560 -0.3357  1.9308
   65CHL1    C4 7221   4.202   4.816  10.140  0.2512 -0.4837 -0.6298
   65CHL1   H4A 7222   4.309   4.793  10.160  0.0009 -1.1422  0.0111
   65CHL1   H4B 7223   4.140   4.736  10.187 -2.6173  0.7769 -2.0684
   65CHL1    C5 7224   4.188   4.816   9.990  0.6311  0.2387 -0.2894
   65CHL1    C6 7225   4.104   4.729   9.927 -0.1767 -0.0497 -0.5505
   65CHL1    H6 7226   4.063   4.648   9.989  0.6853  0.2205  0.3939
   65CHL1    C7 7227   4.069   4.721   9.786 -0.4365  0.5142  0.3250
   65CHL1   H7A 7228   4.061   4.613   9.763  2.1040  0.4074 -0.3707
   65CHL1   H7B 7229   3.970   4.766   9.761  0.8248  2.5409 -1.3394
   65CHL1    C8 7230   4.183   4.797   9.698 -0.7730 -0.3675 -0.3347
   65CHL1    H8 7231   4.277   4.740   9.714 -0.1730  1.1257  1.8969
   65CHL1   C14 7232   4.143   4.796   9.547 -0.0478 -0.3332  0.4509
   65CHL1   H14 7233   4.044   4.846   9.540 -0.0663 -0.4913 -0.6759
   65CHL1   C15 7234   4.113   4.659   9.477  0.2469 -0.8703 -0.9701
   65CHL1  H15A 7235   4.187   4.588   9.518 -0.2344  0.1780  1.9356
   65CHL1  H15B 7236   4.017   4.614   9.509  1.0666 -2.5744 -0.8418
   65CHL1   C16 7237   4.133   4.690   9.333  0.3464  0.6096 -0.3879
   65CHL1  H16A 7238   4.211   4.622   9.292  0.2867  0.5356 -0.3779
   65CHL1  H16B 7239   4.041   4.665   9.276  0.4736  1.0297 -0.7836
   65CHL1   C17 7240   4.174   4.844   9.324  0.5701 -0.2934  0.8797
   65CHL1   H17 7241   4.082   4.907   9.327  1.7418  1.9378 -2.9009
   65CHL1   C13 7242   4.237   4.872   9.459  0.1878 -0.5444  0.0034
   65CHL1   C18 7243   4.379   4.803   9.464  0.0771 -0.1993  0.6618
   65CHL1  H18A 7244   4.423   4.809   9.566  2.5333  0.0276 -0.3299
   65CHL1  H18B 7245   4.372   4.696   9.436  0.5615  0.0768 -0.5955
   65CHL1  H18C 7246   4.447   4.861   9.398 -0.0262 -2.6957 -1.8314
   65CHL1   C12 7247   4.242   5.021   9.513 -0.6546  0.1044 -0.2311
   65CHL1  H12A 7248   4.314   5.087   9.460 -2.2500  2.7754  0.7006
   65CHL1  H12B 7249   4.146   5.073   9.494 -0.1678  0.5355 -1.5635
   65CHL1   C11 7250   4.282   5.031   9.659 -0.4816 -0.4226  0.0892
   65CHL1  H11A 7251   4.390   5.008   9.670 -0.9528 -2.5666  0.6271
   65CHL1  H11B 7252   4.256   5.131   9.700 -1.3125 -0.7414  0.3576
   65CHL1    C9 7253   4.204   4.938   9.754  0.3085  0.3720 -0.2880
   65CHL1    H9 7254   4.104   4.987   9.765 -0.4289 -1.2410  0.4153
   65CHL1   C10 7255   4.247   4.931   9.911 -0.3000 -0.5474  0.2976
   65CHL1   C19 7256   4.400   4.910   9.913 -0.3248  0.5081  0.7075
   65CHL1  H19A 7257   4.430   4.829   9.842 -0.4707 -1.0954  2.3858
   65CHL1  H19B 7258   4.445   5.007   9.884 -3.3669  2.1089  0.9516
   65CHL1  H19C 7259   4.443   4.896  10.015 -1.4368  1.1741  1.2822
   65CHL1    C1 7260   4.213   5.066   9.989  0.3010  0.0277 -0.2842
   65CHL1   H1A 7261   4.272   5.149   9.945  0.3611 -0.4312 -1.0879
   65CHL1   H1B 7262   4.111   5.106   9.969  1.1922  3.7203  1.7976
   65CHL1    C2 7263   4.227   5.065  10.141 -0.1646  0.9369 -0.1870
   65CHL1   H2A 7264   4.188   5.157  10.189 -0.9333  0.0363  0.9652
   65CHL1   H2B 7265   4.332   5.060  10.175 -0.6178  0.7989  1.2671
   65CHL1   C20 7266   4.243   4.886   9.193  0.2194 -0.1210 -0.2040
   65CHL1   H20 7267   4.335   4.825   9.179 -0.3357 -0.6512 -1.6859
   65CHL1   C21 7268   4.280   5.037   9.203 -0.2621  0.2329 -0.2363
   65CHL1  H21A 7269   4.369   5.050   9.268  0.4021 -1.6521 -0.7175
   65CHL1  H21B 7270   4.190   5.092   9.239  0.2802 -0.3083  2.1454
   65CHL1  H21C 7271   4.305   5.071   9.101 -2.0407 -1.8868 -1.4848
   65CHL1   C22 7272   4.153   4.851   9.073 -0.0381 -0.0921 -0.4152
   65CHL1  H22A 7273   4.126   4.743   9.069 -1.7360  0.3324 -1.2764
   65CHL1  H22B 7274   4.059   4.909   9.069  0.3707  0.6281  0.2113
   65CHL1   C23 7275   4.219   4.866   8.934  0.2074 -0.9850 -0.5626
   65CHL1  H23A 7276   4.227   4.975   8.917 -0.6031 -0.1742  3.2403
   65CHL1  H23B 7277   4.320   4.819   8.940  1.0889  0.8252 -0.3713
   65CHL1   C24 7278   4.148   4.796   8.824  0.4373  0.6512 -0.6741
   65CHL1  H24A 7279   4.156   4.687   8.846  0.6095  0.9669  0.9303
   65CHL1  H24B 7280   4.042   4.828   8.837 -0.3394 -1.8990 -0.1623
   65CHL1   C25 7281   4.195   4.828   8.677  0.6877 -0.0597  0.0386
   65CHL1   H25 7282   4.175   4.935   8.654 -0.3758 -0.3291 -0.3919
   65CHL1   C26 7283   4.350   4.815   8.653 -0.1928 -0.5522  0.1957
   65CHL1  H26A 7284   4.417   4.858   8.731  0.6500  0.7799 -1.2044
   65CHL1  H26B 7285   4.364   4.705   8.643  1.1403 -0.2661 -1.5569
   65CHL1  H26C 7286   4.379   4.848   8.551 -0.6921  1.1290  0.5753
   65CHL1   C27 7287   4.117   4.738   8.572  1.0165  0.1762 -0.5834
   65CHL1  H27A 7288   4.011   4.770   8.567  0.8362  0.0819  1.6839
   65CHL1  H27B 7289   4.150   4.767   8.469  1.2439  3.7503  0.3794
   65CHL1  H27C 7290   4.123   4.630   8.598 -1.3204  0.3721  1.0965
   66CHL1    C3 7291   2.527   3.955  10.466  0.2027 -0.5572 -0.4805
   66CHL1    H3 7292   2.601   3.875  10.485 -1.2876 -1.9774 -0.4350
   66CHL1    O3 7293   2.504   4.034  10.579 -0.3302 -0.1667 -0.6731
   66CHL1   H3' 7294   2.433   4.092  10.548  0.1622 -0.0830 -1.6632
   66CHL1    C4 7295   2.573   4.047  10.354 -0.1529  0.6653 -0.1497
   66CHL1   H4A 7296   2.491   4.121  10.341 -0.1112  0.9824  1.2419
   66CHL1   H4B 7297   2.669   4.100  10.373 -1.0498  1.9586  0.9714
   66CHL1    C5 7298   2.587   3.948  10.236 -0.2150 -1.0635  0.4267
   66CHL1    C6 7299   2.705   3.929  10.180 -0.1992  0.5223 -0.0965
   66CHL1    H6 7300   2.799   3.977  10.212  0.4593 -0.3919 -0.6155
   66CHL1    C7 7301   2.735   3.833  10.069 -0.3375 -0.0360  0.5403
   66CHL1   H7A 7302   2.826   3.877  10.022  0.5598 -0.0218  2.2353
   66CHL1   H7B 7303   2.764   3.736  10.113  0.7168 -1.7190 -3.4179
   66CHL1    C8 7304   2.605   3.806   9.991 -0.6468  0.4717  0.5575
   66CHL1    H8 7305   2.577   3.904   9.948  2.0996  0.4536 -1.5414
   66CHL1   C14 7306   2.632   3.695   9.888  0.9228 -0.1054  0.2971
   66CHL1   H14 7307   2.658   3.604   9.946  1.1308 -0.0521  0.2905
   66CHL1   C15 7308   2.748   3.706   9.789  0.6934 -0.0491 -1.3113
   66CHL1  H15A 7309   2.757   3.808   9.744 -0.5797  0.3575 -0.6910
   66CHL1  H15B 7310   2.843   3.687   9.844  0.2066  1.7818  0.2862
   66CHL1   C16 7311   2.717   3.602   9.676  0.1766  0.0976  0.1614
   66CHL1  H16A 7312   2.734   3.651   9.578  0.8591 -0.0234  0.2189
   66CHL1  H16B 7313   2.791   3.520   9.684  0.2210 -0.0785 -1.6452
   66CHL1   C17 7314   2.571   3.558   9.710  0.0812 -0.3199  1.0063
   66CHL1   H17 7315   2.584   3.460   9.761  0.7339  0.4146  2.3205
   66CHL1   C13 7316   2.510   3.655   9.809 -0.0914  0.6480 -0.2733
   66CHL1   C18 7317   2.470   3.779   9.729 -0.8018 -0.0435 -0.1796
   66CHL1  H18A 7318   2.441   3.857   9.802 -1.2305 -0.0215 -0.3732
   66CHL1  H18B 7319   2.551   3.822   9.665 -2.6054 -0.7145 -3.1148
   66CHL1  H18C 7320   2.381   3.768   9.664 -0.7559  0.3943 -0.3217
   66CHL1   C12 7321   2.410   3.592   9.908  0.2030 -0.2816 -0.8312
   66CHL1  H12A 7322   2.314   3.564   9.859  0.9530  1.1262 -3.2331
   66CHL1  H12B 7323   2.449   3.503   9.962 -1.3900  0.9180  2.6201
   66CHL1   C11 7324   2.378   3.703  10.012  0.3799  0.6307 -0.4219
   66CHL1  H11A 7325   2.330   3.786   9.956  0.4167  0.8956 -0.0636
   66CHL1  H11B 7326   2.309   3.658  10.086  0.7526 -2.1289 -1.5990
   66CHL1    C9 7327   2.498   3.758  10.092 -0.1533  0.3315  0.3220
   66CHL1    H9 7328   2.547   3.671  10.140 -0.9238 -0.8193 -0.9181
   66CHL1   C10 7329   2.461   3.865  10.199  0.2441  0.0441 -0.4835
   66CHL1   C19 7330   2.360   3.960  10.129 -0.7073  0.0611  0.0713
   66CHL1  H19A 7331   2.343   4.052  10.189  2.4512  2.7313 -2.7304
   66CHL1  H19B 7332   2.391   4.007  10.033 -0.8300  0.9107  0.4335
   66CHL1  H19C 7333   2.261   3.913  10.110 -0.8853  0.4857 -0.0822
   66CHL1    C1 7334   2.397   3.800  10.326 -0.1289  0.6465  1.2204
   66CHL1   H1A 7335   2.295   3.770  10.293  0.0854  2.0344 -0.8995
   66CHL1   H1B 7336   2.445   3.704  10.356 -0.5704  0.6955  2.0928
   66CHL1    C2 7337   2.388   3.891  10.441 -0.0515 -0.6771  0.2071
   66CHL1   H2A 7338   2.353   3.823  10.522  0.1720 -0.8080  0.1933
   66CHL1   H2B 7339   2.309   3.969  10.432  0.7634  0.2870  1.0920
   66CHL1   C20 7340   2.492   3.531   9.580  0.1791  0.3158  0.0690
   66CHL1   H20 7341   2.387   3.548   9.613  0.3073  0.6731  0.3048
   66CHL1   C21 7342   2.506   3.389   9.543  0.8116 -0.0726  0.0042
   66CHL1  H21A 7343   2.529   3.314   9.623 -1.0021 -1.2053 -0.4777
   66CHL1  H21B 7344   2.577   3.379   9.458  0.0621  0.0699 -0.6496
   66CHL1  H21C 7345   2.414   3.353   9.491  0.6478 -0.3216  0.4529
   66CHL1   C22 7346   2.509   3.619   9.453 -0.1090  0.9038 -0.6221
   66CHL1  H22A 7347   2.514   3.725   9.484  0.6411  0.8266 -0.4685
   66CHL1  H22B 7348   2.607   3.600   9.405  1.0180  2.1784  1.0477
   66CHL1   C23 7349   2.395   3.607   9.352  0.1908 -0.4273  0.0321
   66CHL1  H23A 7350   2.407   3.513   9.294  0.6090 -0.9441  0.9349
   66CHL1  H23B 7351   2.294   3.594   9.395 -1.3156 -0.4046 -3.2193
   66CHL1   C24 7352   2.391   3.723   9.249  0.2654 -0.0856  0.7955
   66CHL1  H24A 7353   2.390   3.818   9.308  1.6738 -0.8509  2.1327
   66CHL1  H24B 7354   2.483   3.732   9.187 -0.1888  0.5055  0.1901
   66CHL1   C25 7355   2.263   3.735   9.153  0.2159  0.1941 -0.2706
   66CHL1   H25 7356   2.183   3.743   9.229 -0.7010  2.1358 -1.3538
   66CHL1   C26 7357   2.284   3.861   9.068  0.0689 -0.1881  0.3843
   66CHL1  H26A 7358   2.290   3.945   9.141  0.6108 -1.0593  1.3894
   66CHL1  H26B 7359   2.367   3.862   8.994 -1.6503  1.6861 -1.6326
   66CHL1  H26C 7360   2.189   3.875   9.014  0.5254  1.3267 -0.0718
   66CHL1   C27 7361   2.235   3.616   9.063  0.2745 -0.1308  0.2250
   66CHL1  H27A 7362   2.312   3.606   8.984  2.1484  1.6705  1.7264
   66CHL1  H27B 7363   2.253   3.530   9.132  1.9349  0.2158  0.2505
   66CHL1  H27C 7364   2.137   3.620   9.010  1.3339  1.0123 -1.7589
   67CHL1    C3 7365   6.117   4.155  10.249 -0.4088  0.0212  0.6570
   67CHL1    H3 7366   6.067   4.238  10.195 -0.1053  0.6672  1.3603
   67CHL1    O3 7367   6.144   4.177  10.389 -0.0005  0.1689  0.0188
   67CHL1   H3' 7368   6.067   4.226  10.419  0.8534  0.6409  1.5251
   67CHL1    C4 7369   6.012   4.046  10.239  0.3312  0.0543 -0.0479
   67CHL1   H4A 7370   6.053   3.958  10.294 -1.0462  0.6949  2.1418
   67CHL1   H4B 7371   5.919   4.079  10.290  1.2482  0.0295  1.7171
   67CHL1    C5 7372   5.989   4.005  10.099  0.3124  0.0023 -0.1780
   67CHL1    C6 7373   5.873   4.032  10.042  0.2316 -0.5384  0.1767
   67CHL1    H6 7374   5.790   4.080  10.095 -1.5093 -1.2574 -1.7945
   67CHL1    C7 7375   5.834   3.992   9.907  0.0605 -0.6336 -0.0366
   67CHL1   H7A 7376   5.736   3.939   9.911 -0.5206  0.3600 -0.7867
   67CHL1   H7B 7377   5.813   4.078   9.841 -0.2295 -0.4345  0.3136
   67CHL1    C8 7378   5.937   3.896   9.838  1.0022  0.6781  0.1429
   67CHL1    H8 7379   5.907   3.793   9.866 -0.5589  1.1906  0.4641
   67CHL1   C14 7380   5.922   3.898   9.691  0.0001  0.0314  0.4456
   67CHL1   H14 7381   5.941   4.003   9.660  0.2943 -0.3884 -0.8624
   67CHL1   C15 7382   5.781   3.878   9.642  0.1819  0.2476 -0.4341
   67CHL1  H15A 7383   5.723   3.801   9.697  0.9763  0.4846  0.7863
   67CHL1  H15B 7384   5.731   3.977   9.643 -0.8949 -0.2842 -0.4351
   67CHL1   C16 7385   5.811   3.837   9.496  0.2812 -0.3407  0.1021
   67CHL1  H16A 7386   5.769   3.737   9.473  0.8587 -1.0794  2.0438
   67CHL1  H16B 7387   5.764   3.913   9.430  0.5641  0.1661  0.4678
   67CHL1   C17 7388   5.960   3.845   9.474 -0.5974  0.6347  0.1674
   67CHL1   H17 7389   5.993   3.949   9.451  1.9220 -0.3551 -0.9902
   67CHL1   C13 7390   6.015   3.804   9.611 -0.2652  0.0547 -0.2627
   67CHL1   C18 7391   5.999   3.654   9.624 -0.1845  0.3322 -0.1037
   67CHL1  H18A 7392   6.084   3.607   9.571 -0.2726  1.5790 -1.4064
   67CHL1  H18B 7393   6.012   3.624   9.730 -0.8593 -2.9133 -0.8441
   67CHL1  H18C 7394   5.897   3.626   9.588 -0.6497  1.3543  0.3835
   67CHL1   C12 7395   6.161   3.845   9.638  0.0241 -0.7104 -0.4542
   67CHL1  H12A 7396   6.227   3.776   9.581 -0.5663 -0.0081 -2.0489
   67CHL1  H12B 7397   6.168   3.946   9.592  0.6731 -0.3489  0.4216
   67CHL1   C11 7398   6.177   3.845   9.791  0.0300 -0.1222 -0.2102
   67CHL1  H11A 7399   6.171   3.738   9.818  0.4055  0.2001  1.2777
   67CHL1  H11B 7400   6.281   3.872   9.820  0.2693 -0.3812 -0.8170
   67CHL1    C9 7401   6.081   3.930   9.871  0.1193 -0.4184 -0.0493
   67CHL1    H9 7402   6.094   4.030   9.825 -4.1398 -0.3606 -1.5950
   67CHL1   C10 7403   6.109   3.953  10.019  0.4757  0.9082  0.4919
   67CHL1   C19 7404   6.171   3.820  10.081  0.2359  0.5378  0.3265
   67CHL1  H19A 7405   6.196   3.820  10.190 -0.0990  0.7651  0.4049
   67CHL1  H19B 7406   6.097   3.739  10.064 -0.3967  1.2224 -0.2572
   67CHL1  H19C 7407   6.272   3.799  10.039  1.4240 -0.8560  3.5638
   67CHL1    C1 7408   6.218   4.071  10.035 -0.0766 -0.2048 -0.1661
   67CHL1   H1A 7409   6.314   4.046   9.983  0.6761 -1.0581  1.5604
   67CHL1   H1B 7410   6.177   4.161   9.984  0.5508  0.2488  0.1062
   67CHL1    C2 7411   6.248   4.118  10.175  0.2687 -0.4065 -0.3883
   67CHL1   H2A 7412   6.319   4.204  10.171  0.9282 -0.9309 -0.2278
   67CHL1   H2B 7413   6.301   4.038  10.231  1.5894  2.3819  2.7044
   67CHL1   C20 7414   6.014   3.762   9.352  0.2205  0.1227  0.1104
   67CHL1   H20 7415   5.987   3.655   9.363 -0.5343  0.1655 -1.1521
   67CHL1   C21 7416   6.164   3.783   9.323  0.3626 -0.4248 -0.2826
   67CHL1  H21A 7417   6.195   3.889   9.333  0.9815 -0.4966 -1.2722
   67CHL1  H21B 7418   6.197   3.756   9.221  1.9525  0.6454 -0.0984
   67CHL1  H21C 7419   6.232   3.725   9.390 -0.2470  0.1568  0.8748
   67CHL1   C22 7420   5.941   3.808   9.227 -0.3576  0.4725  0.1143
   67CHL1  H22A 7421   5.834   3.781   9.238  0.4847 -3.0231  0.9303
   67CHL1  H22B 7422   5.969   3.914   9.211 -0.0039  0.3013 -0.4393
   67CHL1   C23 7423   5.979   3.734   9.094 -0.8445 -0.2262  0.4335
   67CHL1  H23A 7424   6.083   3.753   9.061 -0.4394 -3.8746 -0.7512
   67CHL1  H23B 7425   5.959   3.628   9.117  0.2858 -0.0871  2.2519
   67CHL1   C24 7426   5.892   3.792   8.982 -0.0567  0.4522  0.5610
   67CHL1  H24A 7427   5.784   3.771   8.994  0.4168 -1.7620  1.6411
   67CHL1  H24B 7428   5.892   3.903   8.984  1.7784  0.6283 -2.7208
   67CHL1   C25 7429   5.942   3.753   8.837  0.2297  0.2153  0.0044
   67CHL1   H25 7430   5.978   3.648   8.842 -2.2106 -0.6352  1.0002
   67CHL1   C26 7431   5.828   3.736   8.735  0.1324 -0.0237  1.3424
   67CHL1  H26A 7432   5.873   3.702   8.640  0.3676 -0.2971  1.5497
   67CHL1  H26B 7433   5.758   3.656   8.767  0.2269 -1.2125 -1.2064
   67CHL1  H26C 7434   5.776   3.830   8.705  1.0444  0.4922  1.3198
   67CHL1   C27 7435   6.049   3.837   8.776  0.1787  0.3562 -0.2578
   67CHL1  H27A 7436   6.041   3.948   8.771  1.3764  0.4029 -2.8112
   67CHL1  H27B 7437   6.144   3.830   8.834  1.8854  1.3843 -2.7562
   67CHL1  H27C 7438   6.089   3.805   8.677  1.9526  0.2330  0.4602
   68CHL1    C3 7439   2.500   5.344  10.052  0.4969  0.1309  0.1284
   68CHL1    H3 7440   2.491   5.235  10.029  1.0496 -0.0258  0.6357
   68CHL1    O3 7441   2.479   5.358  10.191  1.0254  0.4823  0.5572
   68CHL1   H3' 7442   2.513   5.444  10.216 -2.0632  1.7101  1.0440
   68CHL1    C4 7443   2.640   5.391  10.000 -0.2781  0.5856 -0.4558
   68CHL1   H4A 7444   2.658   5.497  10.026  0.2650  0.3874 -0.0050
   68CHL1   H4B 7445   2.702   5.340  10.077 -2.3942 -0.8116  0.4258
   68CHL1    C5 7446   2.667   5.359   9.859  0.5947 -0.7030  0.4620
   68CHL1    C6 7447   2.772   5.289   9.815 -0.0677  0.0331  0.0169
   68CHL1    H6 7448   2.831   5.239   9.892  0.1651 -0.8143 -0.6920
   68CHL1    C7 7449   2.804   5.258   9.676  0.3013  0.1809 -0.1937
   68CHL1   H7A 7450   2.909   5.286   9.654  0.4301 -0.0186  0.1687
   68CHL1   H7B 7451   2.790   5.150   9.653  0.1990 -0.1075  1.1694
   68CHL1    C8 7452   2.716   5.337   9.567  0.5224 -0.2022  0.1473
   68CHL1    H8 7453   2.766   5.435   9.555  2.1470 -1.0339 -0.3181
   68CHL1   C14 7454   2.715   5.256   9.441  0.6052 -0.5290 -0.1909
   68CHL1   H14 7455   2.678   5.154   9.463  0.4232 -0.3218  0.4619
   68CHL1   C15 7456   2.850   5.235   9.371  0.7160  0.4435  0.5252
   68CHL1  H15A 7457   2.903   5.332   9.374  0.5611  0.6070 -1.1200
   68CHL1  H15B 7458   2.910   5.149   9.408  0.4571  0.6603  1.5010
   68CHL1   C16 7459   2.809   5.196   9.224  0.0374  0.7525 -0.2384
   68CHL1  H16A 7460   2.875   5.246   9.150 -2.1905  1.6798 -1.6850
   68CHL1  H16B 7461   2.824   5.087   9.210  2.3370  1.1553 -1.5181
   68CHL1   C17 7462   2.658   5.238   9.206  0.3171 -0.7999 -0.5748
   68CHL1   H17 7463   2.595   5.148   9.223  0.3983 -0.8237 -0.3999
   68CHL1   C13 7464   2.627   5.319   9.328 -0.2668 -0.2969  0.7137
   68CHL1   C18 7465   2.680   5.462   9.293 -0.4327 -0.5592 -0.1907
   68CHL1  H18A 7466   2.613   5.518   9.225  1.3095  1.3268 -0.4719
   68CHL1  H18B 7467   2.706   5.514   9.388  1.5893 -1.5483 -0.1305
   68CHL1  H18C 7468   2.783   5.468   9.251  0.0328  1.9788  1.1270
   68CHL1   C12 7469   2.484   5.321   9.386  0.8920 -0.1012 -0.7818
   68CHL1  H12A 7470   2.424   5.360   9.300 -1.4427 -2.4054 -0.3475
   68CHL1  H12B 7471   2.448   5.217   9.402 -0.5363  0.6070  0.9636
   68CHL1   C11 7472   2.467   5.403   9.518  0.1457  0.3474  0.2351
   68CHL1  H11A 7473   2.483   5.509   9.491 -0.5290  0.6392  0.9409
   68CHL1  H11B 7474   2.362   5.405   9.555  0.5951  1.5120  1.5276
   68CHL1    C9 7475   2.573   5.350   9.625  0.0555 -0.6233  0.2606
   68CHL1    H9 7476   2.552   5.241   9.633  2.1630 -1.2020 -1.2345
   68CHL1   C10 7477   2.567   5.417   9.759 -0.0619 -0.3448 -0.7031
   68CHL1   C19 7478   2.581   5.573   9.755 -0.5088 -0.1659  0.1835
   68CHL1  H19A 7479   2.483   5.614   9.721  0.1343  0.6188 -0.7500
   68CHL1  H19B 7480   2.595   5.624   9.852  0.9227  1.9403 -1.0518
   68CHL1  H19C 7481   2.660   5.598   9.681  0.4718 -2.5953  0.3229
   68CHL1    C1 7482   2.423   5.389   9.818  0.1359 -0.1275  0.2818
   68CHL1   H1A 7483   2.354   5.449   9.754  1.5498  1.0915 -0.1491
   68CHL1   H1B 7484   2.395   5.283   9.800  0.3523 -0.1721  0.1967
   68CHL1    C2 7485   2.395   5.419   9.969  0.0274  0.4923  0.2699
   68CHL1   H2A 7486   2.292   5.389   9.999 -0.8543  1.0903 -2.0018
   68CHL1   H2B 7487   2.425   5.522   9.997  3.4090  0.0084 -1.1696
   68CHL1   C20 7488   2.614   5.290   9.064  0.2231  0.3505 -0.9370
   68CHL1   H20 7489   2.538   5.370   9.080  0.3258  0.2994 -0.1224
   68CHL1   C21 7490   2.534   5.181   8.994  0.6420 -0.1097 -0.0692
   68CHL1  H21A 7491   2.523   5.212   8.888  1.6058 -0.8288 -0.3947
   68CHL1  H21B 7492   2.437   5.174   9.047  0.3291  0.6799 -0.5221
   68CHL1  H21C 7493   2.582   5.081   8.995 -1.0508 -0.9578  0.6157
   68CHL1   C22 7494   2.730   5.350   8.973  0.3448  0.5482  0.3225
   68CHL1  H22A 7495   2.787   5.421   9.037  2.6969 -1.6848  0.8720
   68CHL1  H22B 7496   2.799   5.272   8.936 -0.2414  0.8995 -1.6135
   68CHL1   C23 7497   2.673   5.424   8.849 -0.1722  0.5361  0.3005
   68CHL1  H23A 7498   2.651   5.342   8.777  0.7425 -1.0154  1.7209
   68CHL1  H23B 7499   2.575   5.471   8.869 -1.1613 -1.2981 -0.1098
   68CHL1   C24 7500   2.768   5.523   8.774  0.0240  0.4067 -0.7289
   68CHL1  H24A 7501   2.806   5.604   8.841 -0.7306  0.6464 -0.5785
   68CHL1  H24B 7502   2.856   5.458   8.755 -0.7510 -0.5504 -1.0874
   68CHL1   C25 7503   2.720   5.580   8.635  0.1706 -0.4704  0.1339
   68CHL1   H25 7504   2.801   5.649   8.604 -1.0687  1.6303  1.3491
   68CHL1   C26 7505   2.702   5.476   8.526 -0.4422 -0.9816  0.4655
   68CHL1  H26A 7506   2.798   5.422   8.511 -0.5824 -0.8484 -1.0166
   68CHL1  H26B 7507   2.624   5.400   8.552 -1.0533 -1.2284 -1.9026
   68CHL1  H26C 7508   2.670   5.529   8.434  0.1464  1.2861  1.4904
   68CHL1   C27 7509   2.597   5.665   8.666  0.3273  0.0678  0.4953
   68CHL1  H27A 7510   2.516   5.598   8.703  0.5599 -1.8420 -2.1113
   68CHL1  H27B 7511   2.624   5.742   8.741  1.0453  0.9813 -0.6688
   68CHL1  H27C 7512   2.558   5.716   8.575 -1.6789  0.8771  1.7334
   69CHL1    C3 7513   4.405   1.477   6.503 -0.3061 -0.3249 -0.0326
   69CHL1    H3 7514   4.331   1.394   6.507  0.8418 -1.3618  0.0930
   69CHL1    O3 7515   4.437   1.491   6.369  0.3360 -0.7095 -0.1528
   69CHL1   H3' 7516   4.398   1.575   6.345  2.2910  0.6992  1.2955
   69CHL1    C4 7517   4.350   1.611   6.554 -1.0923 -0.4181 -0.2689
   69CHL1   H4A 7518   4.430   1.680   6.520 -0.1271 -2.3977 -2.3338
   69CHL1   H4B 7519   4.261   1.638   6.494 -2.2077 -2.1674  0.5280
   69CHL1    C5 7520   4.323   1.608   6.706  0.3993 -0.5365  0.0532
   69CHL1    C6 7521   4.200   1.629   6.757  0.4119 -0.3239  0.4729
   69CHL1    H6 7522   4.114   1.657   6.694  0.9846 -0.6962 -0.4870
   69CHL1    C7 7523   4.165   1.638   6.907  0.4534  0.0346  0.2158
   69CHL1   H7A 7524   4.108   1.727   6.940 -0.0038  0.2310 -1.0356
   69CHL1   H7B 7525   4.111   1.547   6.942 -2.5866  0.6913 -2.2948
   69CHL1    C8 7526   4.296   1.653   6.988  0.3561  0.0239  0.2711
   69CHL1    H8 7527   4.336   1.757   6.986  0.1925  0.0813 -0.0587
   69CHL1   C14 7528   4.270   1.627   7.138  0.2451 -0.6574  0.4852
   69CHL1   H14 7529   4.247   1.519   7.143 -0.4176 -0.5019  0.8771
   69CHL1   C15 7530   4.151   1.694   7.194 -0.3267 -0.0220 -0.2409
   69CHL1  H15A 7531   4.137   1.797   7.155  2.4901 -0.0103 -1.4668
   69CHL1  H15B 7532   4.062   1.635   7.161 -0.3033  0.9643 -2.2288
   69CHL1   C16 7533   4.174   1.692   7.354  0.1797  0.0377 -0.1584
   69CHL1  H16A 7534   4.172   1.797   7.391  2.6283 -0.7173  2.4492
   69CHL1  H16B 7535   4.099   1.624   7.400  0.4016 -1.4165 -1.8390
   69CHL1   C17 7536   4.315   1.618   7.372 -0.6727  0.5141 -0.2181
   69CHL1   H17 7537   4.294   1.508   7.369 -0.3000  0.3739  1.2921
   69CHL1   C13 7538   4.388   1.648   7.235  0.0876  0.2017  0.2721
   69CHL1   C18 7539   4.439   1.793   7.243 -0.5159 -0.1870 -0.0144
   69CHL1  H18A 7540   4.487   1.822   7.147  2.7170 -0.8930  1.2640
   69CHL1  H18B 7541   4.359   1.866   7.267 -0.2701 -0.2570  1.0690
   69CHL1  H18C 7542   4.520   1.797   7.319 -0.1942  0.0651 -0.3699
   69CHL1   C12 7543   4.504   1.556   7.186  0.3299 -0.4696 -0.7529
   69CHL1  H12A 7544   4.599   1.567   7.242  0.1323 -0.5351 -0.3986
   69CHL1  H12B 7545   4.468   1.451   7.190 -2.6202  0.4597  1.8376
   69CHL1   C11 7546   4.528   1.570   7.041  0.2461 -0.0472  0.2424
   69CHL1  H11A 7547   4.582   1.666   7.027 -1.7933  1.5796  2.8478
   69CHL1  H11B 7548   4.597   1.492   7.000 -0.9703 -1.1873  0.2951
   69CHL1    C9 7549   4.413   1.558   6.939  0.1164 -0.4921 -0.1751
   69CHL1    H9 7550   4.377   1.453   6.946  0.6312 -0.6605 -0.0083
   69CHL1   C10 7551   4.448   1.586   6.791 -0.3672  0.0065  0.5380
   69CHL1   C19 7552   4.542   1.704   6.781 -0.2865  0.3087 -0.3174
   69CHL1  H19A 7553   4.564   1.729   6.675 -0.6141  1.7398 -0.0668
   69CHL1  H19B 7554   4.499   1.795   6.827 -1.3576 -0.0728 -0.5512
   69CHL1  H19C 7555   4.637   1.675   6.831 -0.3919 -0.4614 -0.5406
   69CHL1    C1 7556   4.515   1.457   6.733  0.0565 -0.0816 -0.1601
   69CHL1   H1A 7557   4.617   1.449   6.776  0.1785 -0.4894 -0.5168
   69CHL1   H1B 7558   4.457   1.368   6.766 -0.2144  0.5416  1.0927
   69CHL1    C2 7559   4.531   1.449   6.577  0.0252  0.1072  0.2580
   69CHL1   H2A 7560   4.571   1.351   6.542  2.4489  1.9996 -2.7838
   69CHL1   H2B 7561   4.615   1.518   6.552 -0.7248  0.6707 -0.7315
   69CHL1   C20 7562   4.388   1.645   7.504  0.1891 -0.4423  0.0982
   69CHL1   H20 7563   4.439   1.743   7.510 -0.0994 -0.3593  2.1326
   69CHL1   C21 7564   4.492   1.540   7.537 -0.2141  1.0779 -0.1233
   69CHL1  H21A 7565   4.553   1.556   7.629  2.7741 -2.6593 -1.1614
   69CHL1  H21B 7566   4.571   1.541   7.458 -1.2832 -0.9117 -1.2924
   69CHL1  H21C 7567   4.448   1.439   7.519 -1.6044  1.5946  0.2929
   69CHL1   C22 7568   4.290   1.648   7.620  0.0171 -0.4377 -0.3316
   69CHL1  H22A 7569   4.215   1.726   7.592  1.0375  1.1875  1.2053
   69CHL1  H22B 7570   4.243   1.548   7.632  0.7875 -0.6398  1.1727
   69CHL1   C23 7571   4.338   1.677   7.759 -0.8272 -0.6661  0.2014
   69CHL1  H23A 7572   4.406   1.594   7.788 -2.5051 -1.1637  3.1753
   69CHL1  H23B 7573   4.391   1.774   7.774 -1.9225 -0.3398  2.3779
   69CHL1   C24 7574   4.218   1.651   7.861 -0.6953  0.0454  0.1625
   69CHL1  H24A 7575   4.145   1.733   7.847  1.1304  1.4337 -2.0243
   69CHL1  H24B 7576   4.169   1.557   7.827  3.4644 -1.7512 -1.5910
   69CHL1   C25 7577   4.241   1.625   8.010  0.2650  0.1023 -0.5448
   69CHL1   H25 7578   4.339   1.573   8.009 -0.5854 -1.7575  2.3599
   69CHL1   C26 7579   4.264   1.756   8.085  0.4568 -0.0573  0.4985
   69CHL1  H26A 7580   4.277   1.746   8.195 -1.0446  1.7701  0.9134
   69CHL1  H26B 7581   4.352   1.813   8.049  0.4307  1.1169  2.1722
   69CHL1  H26C 7582   4.168   1.813   8.078 -0.9732 -2.4431 -0.4336
   69CHL1   C27 7583   4.135   1.529   8.072 -0.4278 -0.4401 -0.2244
   69CHL1  H27A 7584   4.136   1.433   8.017  1.3116 -0.2945 -0.4913
   69CHL1  H27B 7585   4.157   1.530   8.181  1.8824  0.0206 -0.6442
   69CHL1  H27C 7586   4.032   1.568   8.058 -0.8623 -1.8205 -1.0708
   70CHL1    C3 7587   3.648   5.495   7.135  0.2668 -0.1799 -0.5134
   70CHL1    H3 7588   3.725   5.419   7.159 -1.1859 -0.8082  2.7197
   70CHL1    O3 7589   3.669   5.546   7.007 -0.0196  0.6197  0.4108
   70CHL1   H3' 7590   3.588   5.597   6.995 -0.9394 -0.4342  1.8115
   70CHL1    C4 7591   3.517   5.422   7.145  0.2053 -0.6704  0.2829
   70CHL1   H4A 7592   3.438   5.498   7.124 -0.2621 -1.4893 -1.0955
   70CHL1   H4B 7593   3.514   5.330   7.083  0.0708 -0.1274 -0.5387
   70CHL1    C5 7594   3.490   5.381   7.285 -0.0116 -0.2016 -0.1152
   70CHL1    C6 7595   3.484   5.251   7.323  0.1682 -0.1549  0.2518
   70CHL1    H6 7596   3.498   5.181   7.239 -0.6111 -0.0306  0.0087
   70CHL1    C7 7597   3.454   5.204   7.462  0.1934 -0.0783 -0.0451
   70CHL1   H7A 7598   3.390   5.113   7.472 -0.9337  0.8117  1.1735
   70CHL1   H7B 7599   3.557   5.177   7.496  0.0839 -0.5859 -0.1093
   70CHL1    C8 7600   3.404   5.321   7.562  0.1141  0.7201  0.2874
   70CHL1    H8 7601   3.293   5.323   7.553 -0.1596 -2.7080  1.2866
   70CHL1   C14 7602   3.429   5.273   7.700  0.1960  0.2016  0.5016
   70CHL1   H14 7603   3.538   5.251   7.701 -0.2698 -2.4693  0.6071
   70CHL1   C15 7604   3.368   5.136   7.740  0.4643 -0.0296  0.0917
   70CHL1  H15A 7605   3.274   5.110   7.688 -0.2253 -2.4997  2.3577
   70CHL1  H15B 7606   3.425   5.049   7.700 -0.7333  0.0880 -1.9650
   70CHL1   C16 7607   3.369   5.135   7.895  0.4299  0.1845  0.4673
   70CHL1  H16A 7608   3.268   5.126   7.940  0.7366 -0.1563  1.1049
   70CHL1  H16B 7609   3.438   5.054   7.927 -0.4659 -0.7131  0.1751
   70CHL1   C17 7610   3.419   5.277   7.936  0.4342  0.8026 -0.5294
   70CHL1   H17 7611   3.530   5.267   7.932  0.7522  2.9252  0.9645
   70CHL1   C13 7612   3.384   5.371   7.811  0.7585  0.3519  0.7107
   70CHL1   C18 7613   3.238   5.397   7.817 -0.4032  0.1232 -1.3317
   70CHL1  H18A 7614   3.175   5.306   7.805 -2.1642  1.3627 -1.9796
   70CHL1  H18B 7615   3.220   5.459   7.907  2.2771  1.4273 -1.6065
   70CHL1  H18C 7616   3.211   5.478   7.745  1.8977  2.5034  0.3161
   70CHL1   C12 7617   3.462   5.502   7.789 -0.7686 -0.1637 -0.5034
   70CHL1  H12A 7618   3.430   5.579   7.863 -0.5020 -0.4153 -0.1157
   70CHL1  H12B 7619   3.568   5.477   7.812 -1.3207 -1.2281  1.1231
   70CHL1   C11 7620   3.443   5.552   7.646 -0.1346  0.3614  0.0353
   70CHL1  H11A 7621   3.333   5.570   7.639 -0.1412 -0.1326 -1.4340
   70CHL1  H11B 7622   3.491   5.650   7.628 -1.3997  1.0211  0.1206
   70CHL1    C9 7623   3.480   5.447   7.535 -0.3184 -0.0207  0.1412
   70CHL1    H9 7624   3.583   5.412   7.557 -0.1452  0.8161  0.7096
   70CHL1   C10 7625   3.483   5.497   7.387 -0.5289 -0.5246 -0.6591
   70CHL1   C19 7626   3.367   5.598   7.373 -0.3203  0.2801  0.5612
   70CHL1  H19A 7627   3.269   5.577   7.422 -0.1468 -1.5192  0.1977
   70CHL1  H19B 7628   3.401   5.700   7.399  2.3197 -0.8602  1.9211
   70CHL1  H19C 7629   3.338   5.608   7.266  1.8391  1.6328  0.0556
   70CHL1    C1 7630   3.619   5.573   7.371  0.4546  0.5581 -0.1080
   70CHL1   H1A 7631   3.614   5.660   7.440 -1.0650  0.4583 -0.0624
   70CHL1   H1B 7632   3.698   5.506   7.411  1.8488  2.1606 -0.0780
   70CHL1    C2 7633   3.652   5.611   7.228  0.1020  0.5636  0.2055
   70CHL1   H2A 7634   3.758   5.643   7.223  0.0344  0.8252  0.4294
   70CHL1   H2B 7635   3.582   5.691   7.196  2.4317  1.1525 -4.0363
   70CHL1   C20 7636   3.391   5.321   8.076 -0.1156 -0.1488  0.6366
   70CHL1   H20 7637   3.283   5.347   8.081 -0.0057  1.2555 -2.2551
   70CHL1   C21 7638   3.473   5.442   8.119 -0.4730 -0.5154 -0.0763
   70CHL1  H21A 7639   3.581   5.430   8.098 -0.4555 -0.2819 -0.1180
   70CHL1  H21B 7640   3.468   5.462   8.228  1.2391 -2.0609  0.3254
   70CHL1  H21C 7641   3.436   5.523   8.053 -0.9589 -1.6450 -1.2515
   70CHL1   C22 7642   3.415   5.206   8.177  0.7932 -0.1665 -0.5014
   70CHL1  H22A 7643   3.390   5.104   8.139  2.7681 -0.4574 -1.1388
   70CHL1  H22B 7644   3.526   5.200   8.177  0.8909  1.0661  1.3359
   70CHL1   C23 7645   3.368   5.232   8.315 -0.2858  0.5354 -0.3482
   70CHL1  H23A 7646   3.436   5.303   8.368 -0.0508 -1.7450  2.7241
   70CHL1  H23B 7647   3.272   5.287   8.321 -0.2086  0.9743 -2.5171
   70CHL1   C24 7648   3.373   5.102   8.392 -0.1211  0.0569 -1.0202
   70CHL1  H24A 7649   3.286   5.042   8.359  0.8181 -0.4231 -2.7822
   70CHL1  H24B 7650   3.465   5.041   8.378 -0.4151 -1.7276  3.2890
   70CHL1   C25 7651   3.363   5.130   8.548 -0.4306 -0.2341 -0.1035
   70CHL1   H25 7652   3.437   5.208   8.577 -2.1705  0.4212  3.0486
   70CHL1   C26 7653   3.220   5.175   8.590 -0.1752 -0.2076 -0.2904
   70CHL1  H26A 7654   3.145   5.097   8.563  0.0226  0.2568 -2.3173
   70CHL1  H26B 7655   3.202   5.201   8.696  1.6948  2.6365 -0.5729
   70CHL1  H26C 7656   3.188   5.267   8.537 -0.9384  0.3851  1.1585
   70CHL1   C27 7657   3.388   5.009   8.637 -0.4671  0.5124 -0.5493
   70CHL1  H27A 7658   3.407   5.051   8.738  1.3882  0.6058 -0.8995
   70CHL1  H27B 7659   3.306   4.934   8.641  2.6547 -3.1547  2.0586
   70CHL1  H27C 7660   3.483   4.960   8.606  1.5506  5.0174 -2.4239
   71CHL1    C3 7661   3.646   1.361   6.749 -0.4736  0.3815  0.7920
   71CHL1    H3 7662   3.542   1.322   6.740 -0.4473  0.0390  1.8292
   71CHL1    O3 7663   3.697   1.378   6.621 -0.0007  0.1737  0.3885
   71CHL1   H3' 7664   3.757   1.303   6.613  0.2068  0.3900 -0.0909
   71CHL1    C4 7665   3.641   1.497   6.824 -0.5669 -0.1663  0.0973
   71CHL1   H4A 7666   3.738   1.551   6.829  0.9622 -2.8550  2.4318
   71CHL1   H4B 7667   3.566   1.563   6.775 -0.6601  0.8527  1.5405
   71CHL1    C5 7668   3.611   1.480   6.972  0.0043 -0.0898 -0.8079
   71CHL1    C6 7669   3.512   1.541   7.034 -0.3209 -0.3603 -1.1329
   71CHL1    H6 7670   3.446   1.606   6.975 -0.0156  0.2791 -0.7870
   71CHL1    C7 7671   3.485   1.529   7.184  0.3447 -0.3647  0.3691
   71CHL1   H7A 7672   3.473   1.633   7.220  3.4063  0.5140 -0.8027
   71CHL1   H7B 7673   3.390   1.476   7.205  0.4747 -0.1182  1.6508
   71CHL1    C8 7674   3.600   1.463   7.265  0.3937  0.7203  0.4033
   71CHL1    H8 7675   3.677   1.543   7.260 -0.9438  2.0826  0.7891
   71CHL1   C14 7676   3.570   1.423   7.404 -0.2804 -0.5855 -0.2984
   71CHL1   H14 7677   3.491   1.345   7.404 -0.2903 -0.5760  0.1297
   71CHL1   C15 7678   3.511   1.539   7.504 -0.2587 -0.1789  0.2714
   71CHL1  H15A 7679   3.582   1.624   7.491  0.3652 -0.7425 -0.0686
   71CHL1  H15B 7680   3.404   1.560   7.483 -0.1428  0.2884  0.1425
   71CHL1   C16 7681   3.537   1.481   7.645 -0.2484  0.2378  0.4047
   71CHL1  H16A 7682   3.597   1.550   7.708 -0.0781  2.6674 -2.2058
   71CHL1  H16B 7683   3.433   1.470   7.683 -0.6588  2.0659 -0.1057
   71CHL1   C17 7684   3.619   1.346   7.626  0.3876  0.0938 -0.3056
   71CHL1   H17 7685   3.553   1.257   7.624  0.7526 -0.1839 -0.1530
   71CHL1   C13 7686   3.681   1.356   7.485 -0.0620  0.7043  0.2757
   71CHL1   C18 7687   3.809   1.444   7.490 -0.5176 -0.5611 -0.0860
   71CHL1  H18A 7688   3.798   1.528   7.561  0.9172 -0.8438  0.5113
   71CHL1  H18B 7689   3.891   1.382   7.533 -0.5672 -1.2051 -0.8945
   71CHL1  H18C 7690   3.853   1.479   7.394  0.7777 -0.2226  0.5962
   71CHL1   C12 7691   3.714   1.231   7.411  0.7180 -0.2855 -0.4161
   71CHL1  H12A 7692   3.794   1.170   7.458 -0.5958 -0.9820  0.9944
   71CHL1  H12B 7693   3.625   1.165   7.419 -0.5023  1.3927  0.4798
   71CHL1   C11 7694   3.747   1.247   7.260 -0.2330 -0.0716  0.7510
   71CHL1  H11A 7695   3.845   1.301   7.263 -1.1666  1.6625  2.7840
   71CHL1  H11B 7696   3.752   1.155   7.199 -1.0306  1.0924 -1.1266
   71CHL1    C9 7697   3.644   1.336   7.182  0.0534 -0.5017  0.3292
   71CHL1    H9 7698   3.548   1.282   7.167 -0.6008  0.7643 -0.2722
   71CHL1   C10 7699   3.705   1.375   7.042  0.4168  0.1779  0.0498
   71CHL1   C19 7700   3.835   1.455   7.052 -0.2895  0.2194  0.3099
   71CHL1  H19A 7701   3.915   1.400   7.105  0.0699  2.4185  2.2072
   71CHL1  H19B 7702   3.868   1.475   6.948 -2.6313  0.5534 -0.4477
   71CHL1  H19C 7703   3.828   1.543   7.119  1.4339  1.3799 -0.9444
   71CHL1    C1 7704   3.717   1.245   6.958  0.3301 -0.3209  0.3083
   71CHL1   H1A 7705   3.784   1.164   6.994 -2.6188 -3.1138 -0.0455
   71CHL1   H1B 7706   3.616   1.200   6.951  0.4757 -0.4120 -1.5737
   71CHL1    C2 7707   3.744   1.267   6.809 -0.1135  0.2022 -0.0278
   71CHL1   H2A 7708   3.746   1.171   6.754  0.8759 -0.4161  1.0255
   71CHL1   H2B 7709   3.851   1.297   6.808 -0.6947  2.4816  0.1191
   71CHL1   C20 7710   3.718   1.322   7.744 -0.3084  0.0090 -0.2783
   71CHL1   H20 7711   3.790   1.408   7.748 -0.2224 -0.1050  1.3200
   71CHL1   C21 7712   3.807   1.193   7.728 -0.3314  0.7191 -0.1242
   71CHL1  H21A 7713   3.868   1.182   7.820 -3.7577  1.8273  2.4685
   71CHL1  H21B 7714   3.865   1.214   7.635 -0.5660  0.8551 -0.2415
   71CHL1  H21C 7715   3.739   1.109   7.702 -0.5842  1.6236 -2.6901
   71CHL1   C22 7716   3.660   1.317   7.890  0.2518  0.2399  0.4915
   71CHL1  H22A 7717   3.745   1.304   7.960 -0.5326  0.1768  1.4601
   71CHL1  H22B 7718   3.619   1.419   7.904 -0.7147  0.1272 -1.2569
   71CHL1   C23 7719   3.556   1.205   7.910  0.1085 -0.6593  0.0272
   71CHL1  H23A 7720   3.471   1.215   7.840  1.4554  3.1657 -1.3182
   71CHL1  H23B 7721   3.592   1.101   7.892 -1.8005 -1.1369 -1.2996
   71CHL1   C24 7722   3.497   1.225   8.052 -0.1186  0.1321 -0.1118
   71CHL1  H24A 7723   3.583   1.212   8.122  0.0597  0.5944 -0.2389
   71CHL1  H24B 7724   3.467   1.331   8.055  1.1490  0.5054  0.2157
   71CHL1   C25 7725   3.372   1.145   8.095  0.5925 -0.1719  0.4995
   71CHL1   H25 7726   3.300   1.136   8.011  2.1468 -0.9001 -0.8160
   71CHL1   C26 7727   3.408   0.999   8.119 -0.4457  0.1886 -0.3467
   71CHL1  H26A 7728   3.455   0.989   8.219 -2.2513 -2.1314  0.3486
   71CHL1  H26B 7729   3.317   0.935   8.121 -0.0323 -0.4356  2.5239
   71CHL1  H26C 7730   3.473   0.959   8.038 -0.7825 -1.3114  0.1061
   71CHL1   C27 7731   3.309   1.194   8.227  0.5047  0.3695 -0.3099
   71CHL1  H27A 7732   3.264   1.295   8.211 -0.9256 -0.0992  0.5912
   71CHL1  H27B 7733   3.227   1.135   8.273  0.7986 -0.8515 -1.3180
   71CHL1  H27C 7734   3.384   1.202   8.309  1.4590 -0.1954 -1.1181
   72CHL1    C3 7735   4.091   5.429   7.067  0.2906 -0.1344  0.7041
   72CHL1    H3 7736   3.988   5.462   7.042  1.2961  1.4424 -1.7449
   72CHL1    O3 7737   4.147   5.396   6.938 -0.4682  0.1963  0.0030
   72CHL1   H3' 7738   4.243   5.398   6.948 -0.6098  2.9249  1.9206
   72CHL1    C4 7739   4.157   5.550   7.136  0.6415 -0.3089 -0.6530
   72CHL1   H4A 7740   4.264   5.521   7.130  0.8813  0.7875 -2.5898
   72CHL1   H4B 7741   4.152   5.646   7.081  3.7671  0.3521  0.0256
   72CHL1    C5 7742   4.096   5.569   7.277 -0.1412  0.0192 -0.2650
   72CHL1    C6 7743   4.037   5.685   7.311 -0.0122 -0.0315 -0.1707
   72CHL1    H6 7744   4.038   5.771   7.242  1.3578  2.3910  2.6756
   72CHL1    C7 7745   3.973   5.720   7.443  0.7597  0.0428 -0.3098
   72CHL1   H7A 7746   3.986   5.824   7.478  0.7742 -0.1030  0.1239
   72CHL1   H7B 7747   3.862   5.712   7.431  0.9022 -0.9865 -1.0908
   72CHL1    C8 7748   4.021   5.619   7.552  1.0931 -0.0362  0.4352
   72CHL1    H8 7749   4.120   5.652   7.590  0.1234  1.8440  1.4863
   72CHL1   C14 7750   3.930   5.644   7.675 -0.2595  0.4059  0.9645
   72CHL1   H14 7751   3.825   5.630   7.641 -0.8248 -0.0708  2.8196
   72CHL1   C15 7752   3.928   5.784   7.739  0.1309  0.9336 -0.7694
   72CHL1  H15A 7753   4.031   5.819   7.721  0.6071 -1.2160 -2.7948
   72CHL1  H15B 7754   3.853   5.845   7.685 -0.6909  0.3058 -0.3719
   72CHL1   C16 7755   3.907   5.754   7.888  0.0790 -0.1295 -0.5480
   72CHL1  H16A 7756   4.000   5.777   7.945  1.3776 -1.1779 -2.1630
   72CHL1  H16B 7757   3.823   5.823   7.914 -1.3307 -1.7719 -0.5423
   72CHL1   C17 7758   3.876   5.604   7.905 -0.2198 -0.3691 -0.9338
   72CHL1   H17 7759   3.764   5.603   7.903 -0.3678  1.9087  1.3411
   72CHL1   C13 7760   3.952   5.544   7.785  0.2213 -0.5193 -0.5366
   72CHL1   C18 7761   4.106   5.547   7.831 -0.1067  0.7581  0.0143
   72CHL1  H18A 7762   4.131   5.468   7.904 -1.9078  1.9876  2.0870
   72CHL1  H18B 7763   4.175   5.537   7.745  0.3786 -1.9948  0.6306
   72CHL1  H18C 7764   4.127   5.647   7.876  2.3941  0.0361  0.5743
   72CHL1   C12 7765   3.923   5.397   7.723  0.0966 -0.8656 -0.0629
   72CHL1  H12A 7766   3.939   5.321   7.803  1.6180  0.2591  0.7657
   72CHL1  H12B 7767   3.817   5.396   7.691 -0.1221  0.4911  0.5133
   72CHL1   C11 7768   4.028   5.372   7.614  0.1461  0.7433  0.2895
   72CHL1  H11A 7769   4.126   5.365   7.666 -0.0040 -0.5053  0.4238
   72CHL1  H11B 7770   4.025   5.274   7.563  2.1602  0.8102 -0.0410
   72CHL1    C9 7771   4.018   5.477   7.503  0.0493 -0.8269  0.4969
   72CHL1    H9 7772   3.912   5.468   7.469  0.5259 -0.8866 -1.0421
   72CHL1   C10 7773   4.101   5.444   7.373  0.4782  0.3864 -0.5086
   72CHL1   C19 7774   4.250   5.416   7.404 -0.2143  0.7046  0.0372
   72CHL1  H19A 7775   4.305   5.503   7.445  1.8797 -0.9604  0.9262
   72CHL1  H19B 7776   4.262   5.331   7.475 -0.9267  1.3401  0.9425
   72CHL1  H19C 7777   4.304   5.377   7.316 -0.3711 -2.7478  1.3292
   72CHL1    C1 7778   4.042   5.322   7.298 -0.0381  0.2702  0.6832
   72CHL1   H1A 7779   4.068   5.225   7.347 -0.9494 -0.8953 -1.0482
   72CHL1   H1B 7780   3.932   5.336   7.302  0.0091  0.8732  0.0177
   72CHL1    C2 7781   4.083   5.304   7.149 -0.1461  0.2533 -0.3455
   72CHL1   H2A 7782   4.013   5.234   7.098 -3.1335  0.6924  2.7398
   72CHL1   H2B 7783   4.178   5.247   7.160 -1.2990 -1.2805  2.8780
   72CHL1   C20 7784   3.922   5.554   8.047  0.7093 -0.8592  0.0648
   72CHL1   H20 7785   4.032   5.567   8.058  0.8311 -1.5597 -0.3251
   72CHL1   C21 7786   3.884   5.408   8.059 -0.0506 -0.1939  0.1719
   72CHL1  H21A 7787   3.775   5.393   8.042 -1.1074  3.0865  2.9742
   72CHL1  H21B 7788   3.918   5.376   8.159  1.0165 -1.5238 -0.5857
   72CHL1  H21C 7789   3.941   5.340   7.993  0.3403 -1.3383  1.6326
   72CHL1   C22 7790   3.847   5.633   8.158  0.1174 -0.5636 -0.1721
   72CHL1  H22A 7791   3.849   5.739   8.124  0.7189 -1.4356 -3.2063
   72CHL1  H22B 7792   3.740   5.605   8.160 -0.3777  1.2877  0.8460
   72CHL1   C23 7793   3.905   5.612   8.301  0.5641 -0.4102 -0.1185
   72CHL1  H23A 7794   3.923   5.503   8.318 -0.4602 -0.4956  0.5236
   72CHL1  H23B 7795   4.005   5.661   8.304 -0.0548  0.8813  0.1850
   72CHL1   C24 7796   3.811   5.664   8.410 -0.4290 -0.1729  0.2697
   72CHL1  H24A 7797   3.856   5.666   8.511 -1.3680  0.9286  0.6968
   72CHL1  H24B 7798   3.787   5.769   8.382 -1.1768 -0.8778 -1.9776
   72CHL1   C25 7799   3.676   5.588   8.419  0.2465  0.0510  0.7455
   72CHL1   H25 7800   3.625   5.595   8.321  1.6479  1.7168  0.0707
   72CHL1   C26 7801   3.687   5.442   8.469  0.9072 -0.0601 -0.0394
   72CHL1  H26A 7802   3.712   5.379   8.381  1.2401 -0.0905  0.0758
   72CHL1  H26B 7803   3.763   5.436   8.551  1.0029 -1.2428 -0.1855
   72CHL1  H26C 7804   3.586   5.419   8.508  0.8506 -0.4104 -0.3837
   72CHL1   C27 7805   3.583   5.670   8.498  0.2468  0.0635  0.0500
   72CHL1  H27A 7806   3.556   5.759   8.437  0.0488 -0.3857 -0.5305
   72CHL1  H27B 7807   3.486   5.617   8.512  0.5329 -0.3958  0.3258
   72CHL1  H27C 7808   3.619   5.687   8.602 -0.6591  0.8375  0.2512
   73CHL1    C3 7809   3.594   3.077   6.898  0.1560  1.3115  0.7877
   73CHL1    H3 7810   3.690   3.121   6.865 -0.3680  0.4415 -2.1654
   73CHL1    O3 7811   3.531   3.039   6.778 -0.0008  0.3413  0.1041
   73CHL1   H3' 7812   3.441   3.029   6.809 -0.4267  0.0372 -1.2032
   73CHL1    C4 7813   3.617   2.947   6.978 -0.7528  0.0010 -1.0889
   73CHL1   H4A 7814   3.519   2.896   6.988  0.1929 -1.8108 -0.7404
   73CHL1   H4B 7815   3.682   2.877   6.921  1.9935 -1.3139  3.2057
   73CHL1    C5 7816   3.687   2.977   7.107 -0.3339  0.3134 -0.4263
   73CHL1    C6 7817   3.811   2.929   7.133 -0.1745  0.5095 -0.7470
   73CHL1    H6 7818   3.860   2.866   7.058  2.0053  2.1373 -0.8056
   73CHL1    C7 7819   3.881   2.963   7.261 -0.9278  0.1569  0.0570
   73CHL1   H7A 7820   3.931   2.875   7.307  0.6850  1.6824  1.3225
   73CHL1   H7B 7821   3.955   3.044   7.246  0.3428 -0.9698  0.0791
   73CHL1    C8 7822   3.786   3.000   7.376 -0.3514  0.2324  0.6284
   73CHL1    H8 7823   3.722   2.913   7.402  0.4820 -0.8116 -0.6599
   73CHL1   C14 7824   3.867   3.048   7.491 -0.5734  0.0902 -0.3609
   73CHL1   H14 7825   3.905   3.147   7.457 -0.6882 -0.2263 -1.4572
   73CHL1   C15 7826   3.994   2.977   7.540  0.5861 -0.4836  0.1490
   73CHL1  H15A 7827   3.981   2.867   7.532  0.8482 -0.4387 -1.0966
   73CHL1  H15B 7828   4.077   3.016   7.476  0.8548 -0.5755  0.4431
   73CHL1   C16 7829   4.018   3.021   7.680  0.6564 -0.7528 -0.1779
   73CHL1  H16A 7830   4.002   2.930   7.742 -1.0312  1.3298  2.6881
   73CHL1  H16B 7831   4.115   3.066   7.710  0.6500 -1.3746  0.8049
   73CHL1   C17 7832   3.899   3.114   7.719 -0.6191 -0.8537 -0.1741
   73CHL1   H17 7833   3.936   3.215   7.693  1.6354 -0.7857  2.7559
   73CHL1   C13 7834   3.786   3.078   7.613 -0.2750  0.3361  0.1485
   73CHL1   C18 7835   3.708   2.953   7.667  0.1789  0.2833 -0.2801
   73CHL1  H18A 7836   3.769   2.859   7.667  0.6840  0.6038 -0.5599
   73CHL1  H18B 7837   3.669   2.969   7.770  3.2325  0.7060  0.9144
   73CHL1  H18C 7838   3.628   2.918   7.599 -0.1315 -0.9117  0.6617
   73CHL1   C12 7839   3.688   3.195   7.580  0.0761 -0.0621 -0.3628
   73CHL1  H12A 7840   3.614   3.199   7.663 -0.8401 -2.7609 -0.9675
   73CHL1  H12B 7841   3.754   3.283   7.562  0.4059  0.1798  1.7708
   73CHL1   C11 7842   3.602   3.160   7.453 -0.3369  0.0006 -0.0839
   73CHL1  H11A 7843   3.535   3.076   7.481 -0.9817  0.1508 -1.0886
   73CHL1  H11B 7844   3.538   3.247   7.426 -0.6828 -0.2516 -0.0957
   73CHL1    C9 7845   3.691   3.113   7.332  0.2198 -0.0717 -0.0597
   73CHL1    H9 7846   3.755   3.203   7.317 -0.8750  0.8142  0.3668
   73CHL1   C10 7847   3.614   3.075   7.206  0.6373  0.6731 -0.1591
   73CHL1   C19 7848   3.479   3.004   7.251 -0.5777  0.2078  0.1402
   73CHL1  H19A 7849   3.491   2.910   7.309 -1.7999 -0.2170 -0.2569
   73CHL1  H19B 7850   3.421   3.076   7.313 -0.3307  0.6039 -0.0807
   73CHL1  H19C 7851   3.431   2.968   7.158  1.4378  0.8868 -1.2432
   73CHL1    C1 7852   3.580   3.197   7.122 -0.6717 -0.0029 -0.8047
   73CHL1   H1A 7853   3.524   3.267   7.187 -0.7172  0.0200 -0.8678
   73CHL1   H1B 7854   3.679   3.239   7.096 -0.0471  0.0571  1.5224
   73CHL1    C2 7855   3.514   3.178   6.983 -0.2132 -0.8216 -0.1522
   73CHL1   H2A 7856   3.505   3.277   6.935 -1.5316 -0.0557  1.5650
   73CHL1   H2B 7857   3.410   3.149   7.010  0.9273 -3.5137  1.8802
   73CHL1   C20 7858   3.876   3.117   7.870  0.2707 -0.4044 -0.6219
   73CHL1   H20 7859   3.831   3.022   7.904  2.3662 -1.0209  0.6166
   73CHL1   C21 7860   3.780   3.232   7.892 -0.5603 -0.0259  0.2791
   73CHL1  H21A 7861   3.783   3.269   7.997 -1.2180  1.2896 -0.1375
   73CHL1  H21B 7862   3.681   3.200   7.856  0.3782 -2.9173 -0.0030
   73CHL1  H21C 7863   3.804   3.325   7.835 -1.0812  0.1285  0.3075
   73CHL1   C22 7864   4.008   3.130   7.956  0.3594 -0.7902 -0.1215
   73CHL1  H22A 7865   4.076   3.045   7.934  3.7411  1.7818 -0.4313
   73CHL1  H22B 7866   4.064   3.222   7.929 -0.7353 -0.1231 -0.1774
   73CHL1   C23 7867   3.998   3.126   8.113  0.1868 -0.6583 -0.2965
   73CHL1  H23A 7868   3.930   3.210   8.138 -0.6217 -1.2203 -0.5511
   73CHL1  H23B 7869   3.939   3.035   8.138 -3.0642  1.2965 -0.2488
   73CHL1   C24 7870   4.129   3.145   8.196 -0.0238 -0.9572 -0.2276
   73CHL1  H24A 7871   4.193   3.054   8.192  0.1611 -0.8429  0.0745
   73CHL1  H24B 7872   4.178   3.230   8.144 -1.1411  1.8674  2.9525
   73CHL1   C25 7873   4.110   3.183   8.346 -0.0905 -0.3813  0.4444
   73CHL1   H25 7874   4.041   3.267   8.368  0.7037 -0.4474  3.6510
   73CHL1   C26 7875   4.051   3.065   8.414  0.1141 -0.5449 -0.3386
   73CHL1  H26A 7876   4.100   2.967   8.392 -0.5013 -0.9885  0.2344
   73CHL1  H26B 7877   4.060   3.083   8.523  2.1402  2.1703 -0.8448
   73CHL1  H26C 7878   3.947   3.040   8.384 -0.5863 -1.0293  2.2149
   73CHL1   C27 7879   4.247   3.215   8.410  0.0100 -0.1138 -0.2898
   73CHL1  H27A 7880   4.287   3.309   8.365 -0.9439  1.7362  2.4427
   73CHL1  H27B 7881   4.245   3.225   8.521  1.3384 -1.9925 -0.0527
   73CHL1  H27C 7882   4.316   3.131   8.389 -0.4111 -0.6885  0.5954
   74CHL1    C3 7883   3.547   0.801   6.721 -0.2684 -1.0784 -0.2487
   74CHL1    H3 7884   3.604   0.706   6.719  0.2427 -0.7872 -2.1975
   74CHL1    O3 7885   3.544   0.836   6.582  0.2017  0.1504  0.1971
   74CHL1   H3' 7886   3.501   0.922   6.584 -0.2036  0.0212 -1.3327
   74CHL1    C4 7887   3.402   0.788   6.776 -0.2868 -0.1000  0.5765
   74CHL1   H4A 7888   3.345   0.878   6.744 -1.2849 -0.4275  1.3889
   74CHL1   H4B 7889   3.347   0.708   6.722 -0.1568  0.9271 -1.1709
   74CHL1    C5 7890   3.395   0.769   6.924 -1.1857  0.4633  0.2559
   74CHL1    C6 7891   3.321   0.671   6.977  0.5529 -0.5919 -0.0605
   74CHL1    H6 7892   3.266   0.607   6.906  1.0846 -0.1495 -0.8869
   74CHL1    C7 7893   3.295   0.653   7.122  0.7306  0.1028  0.2667
   74CHL1   H7A 7894   3.188   0.648   7.151 -0.6202  0.3315 -3.8851
   74CHL1   H7B 7895   3.335   0.558   7.161 -0.5761  0.3278  2.2693
   74CHL1    C8 7896   3.350   0.760   7.210 -0.7416 -0.5572  0.5898
   74CHL1    H8 7897   3.289   0.853   7.204  1.5822  0.9697 -3.2804
   74CHL1   C14 7898   3.361   0.708   7.346  0.6844  0.3064  0.5728
   74CHL1   H14 7899   3.437   0.628   7.338 -0.7627 -1.1178  0.3979
   74CHL1   C15 7900   3.232   0.643   7.405  0.0274  0.4550 -0.1337
   74CHL1  H15A 7901   3.145   0.707   7.379 -1.7655 -1.9825 -0.4533
   74CHL1  H15B 7902   3.222   0.541   7.362  1.7822 -0.0269  0.4801
   74CHL1   C16 7903   3.250   0.647   7.554 -0.1803  0.2124  0.9933
   74CHL1  H16A 7904   3.175   0.722   7.588  0.5046  0.6231  1.6322
   74CHL1  H16B 7905   3.239   0.545   7.596 -0.2127  0.7345  2.2891
   74CHL1   C17 7906   3.382   0.725   7.579  0.3960  0.2815 -0.6327
   74CHL1   H17 7907   3.463   0.649   7.585  0.4426  0.2683 -1.2959
   74CHL1   C13 7908   3.408   0.807   7.445  0.5358  0.3165 -1.2383
   74CHL1   C18 7909   3.317   0.930   7.456  0.0943 -0.0911  0.4699
   74CHL1  H18A 7910   3.212   0.905   7.481  0.1070 -0.9380 -0.2612
   74CHL1  H18B 7911   3.344   0.990   7.545 -1.4806 -1.7125  2.1261
   74CHL1  H18C 7912   3.333   0.994   7.366  1.2235  0.0070  0.7222
   74CHL1   C12 7913   3.553   0.843   7.404  0.9023  0.0629 -0.3210
   74CHL1  H12A 7914   3.605   0.902   7.482 -0.4632 -0.0251  0.7022
   74CHL1  H12B 7915   3.605   0.745   7.398 -0.0041 -0.4403 -0.1495
   74CHL1   C11 7916   3.565   0.905   7.260  0.2300 -0.4682  0.8932
   74CHL1  H11A 7917   3.516   1.005   7.257  0.7753 -0.2197 -0.1203
   74CHL1  H11B 7918   3.672   0.918   7.232  1.1241 -0.8942  3.7848
   74CHL1    C9 7919   3.488   0.814   7.160  0.0932 -0.0010  0.5710
   74CHL1    H9 7920   3.556   0.727   7.160  1.0308  0.7133  0.7450
   74CHL1   C10 7921   3.487   0.866   7.007  0.6541  0.5826 -0.6906
   74CHL1   C19 7922   3.418   1.001   7.001  0.0300 -0.8408 -0.0188
   74CHL1  H19A 7923   3.419   1.047   6.900  0.5714 -0.0077  0.3559
   74CHL1  H19B 7924   3.315   0.995   7.043  0.6142 -0.3403  1.5692
   74CHL1  H19C 7925   3.468   1.072   7.071  0.4760 -0.1670 -1.0009
   74CHL1    C1 7926   3.632   0.883   6.947  0.2347  0.5719 -0.6594
   74CHL1   H1A 7927   3.686   0.961   7.004 -0.6529  0.8833 -0.2297
   74CHL1   H1B 7928   3.672   0.780   6.959 -1.9503 -0.0386  2.6215
   74CHL1    C2 7929   3.627   0.908   6.797 -0.4907  0.1272 -0.0803
   74CHL1   H2A 7930   3.731   0.914   6.759 -0.8734  2.4130 -0.8796
   74CHL1   H2B 7931   3.597   1.013   6.781  1.3633  0.7169  0.0396
   74CHL1   C20 7932   3.385   0.794   7.715 -0.2333 -0.5601  0.0521
   74CHL1   H20 7933   3.301   0.866   7.716 -2.0711 -2.5901  0.6852
   74CHL1   C21 7934   3.520   0.860   7.740 -0.1365  0.2163  0.0154
   74CHL1  H21A 7935   3.528   0.957   7.687 -0.5318 -0.6783 -1.7447
   74CHL1  H21B 7936   3.599   0.791   7.704 -0.9046 -0.1791 -0.9585
   74CHL1  H21C 7937   3.534   0.864   7.850  3.7732 -1.5459 -0.2559
   74CHL1   C22 7938   3.345   0.694   7.823  0.4994  0.7777  0.0301
   74CHL1  H22A 7939   3.341   0.761   7.912  1.3170  3.1895 -1.6501
   74CHL1  H22B 7940   3.243   0.655   7.803  1.1494 -0.6519 -0.6541
   74CHL1   C23 7941   3.425   0.564   7.856 -0.8098 -0.0949 -0.3687
   74CHL1  H23A 7942   3.434   0.508   7.760  0.2468  0.4074 -0.5800
   74CHL1  H23B 7943   3.523   0.594   7.900 -1.8926  2.5329  0.4367
   74CHL1   C24 7944   3.346   0.475   7.950 -0.7271 -0.0731  0.2634
   74CHL1  H24A 7945   3.265   0.435   7.885 -0.3193 -3.5918  1.7290
   74CHL1  H24B 7946   3.401   0.383   7.978 -1.1382 -0.3262  0.2538
   74CHL1   C25 7947   3.297   0.533   8.084  0.2114 -0.3590  0.6368
   74CHL1   H25 7948   3.251   0.631   8.057  0.7234 -0.3868 -0.3806
   74CHL1   C26 7949   3.191   0.443   8.146  0.3905  0.3012  0.1959
   74CHL1  H26A 7950   3.162   0.506   8.233  0.6365  0.8848 -0.1430
   74CHL1  H26B 7951   3.104   0.427   8.080 -0.1094 -0.1065  0.9355
   74CHL1  H26C 7952   3.234   0.349   8.186 -0.2614 -0.3651 -0.6338
   74CHL1   C27 7953   3.406   0.555   8.192  0.5712  0.3409 -0.5704
   74CHL1  H27A 7954   3.367   0.592   8.290 -0.8164 -0.6082 -0.7276
   74CHL1  H27B 7955   3.460   0.459   8.206  1.0472  0.8156  1.0481
   74CHL1  H27C 7956   3.485   0.629   8.167  0.0039  0.1876 -3.1158
   75CHL1    C3 7957   6.003   1.990   6.713  0.2219 -0.1649 -0.3889
   75CHL1    H3 7958   6.010   2.101   6.719  0.2481 -0.0700 -1.7760
   75CHL1    O3 7959   6.045   1.953   6.580  0.5840 -0.2068  0.4011
   75CHL1   H3' 7960   5.980   1.888   6.554  0.2353 -0.5118  1.9118
   75CHL1    C4 7961   6.092   1.914   6.812 -0.0201 -0.5530 -0.6265
   75CHL1   H4A 7962   6.096   1.809   6.774 -0.0540 -0.1335 -1.8166
   75CHL1   H4B 7963   6.190   1.963   6.798 -1.5613  2.5430 -1.2808
   75CHL1    C5 7964   6.048   1.934   6.959  0.1772 -0.1506 -0.2108
   75CHL1    C6 7965   6.129   1.989   7.047 -0.3754  0.1163 -0.2794
   75CHL1    H6 7966   6.222   2.033   7.006 -0.7519  1.4450  0.2450
   75CHL1    C7 7967   6.099   2.018   7.191 -0.2665  0.0034  0.0662
   75CHL1   H7A 7968   6.174   1.964   7.252  2.0697  1.2114 -1.5510
   75CHL1   H7B 7969   6.103   2.126   7.219 -0.1188 -0.1888  0.7878
   75CHL1    C8 7970   5.969   1.948   7.228 -0.0597  0.3584 -0.1748
   75CHL1    H8 7971   5.989   1.840   7.246  2.4619  0.6784 -0.7330
   75CHL1   C14 7972   5.917   2.015   7.363 -0.3801  0.0767 -0.7763
   75CHL1   H14 7973   5.883   2.115   7.328 -1.0644 -0.6916 -2.3957
   75CHL1   C15 7974   6.012   2.029   7.489 -0.5560 -0.1598 -0.2644
   75CHL1  H15A 7975   6.085   1.946   7.503 -1.1851 -0.7061 -0.1697
   75CHL1  H15B 7976   6.077   2.117   7.472 -1.2313  0.3876 -0.0447
   75CHL1   C16 7977   5.919   2.049   7.610 -0.2697 -0.2084 -0.3571
   75CHL1  H16A 7978   5.952   1.969   7.680  0.2623  1.2602  1.1508
   75CHL1  H16B 7979   5.943   2.145   7.661 -0.3116 -0.3028 -0.1555
   75CHL1   C17 7980   5.769   2.027   7.554 -0.0862  0.3718  0.2447
   75CHL1   H17 7981   5.734   2.130   7.533  1.1936  1.2404  2.0586
   75CHL1   C13 7982   5.781   1.954   7.415 -0.0915 -0.3523 -0.7967
   75CHL1   C18 7983   5.791   1.805   7.447  0.0160 -0.4351  0.0516
   75CHL1  H18A 7984   5.821   1.733   7.368 -1.0865 -1.5571  0.6143
   75CHL1  H18B 7985   5.860   1.797   7.533  0.7519  1.2198 -0.3586
   75CHL1  H18C 7986   5.686   1.770   7.464 -0.5876 -0.2190 -2.7001
   75CHL1   C12 7987   5.680   1.974   7.306 -0.1368  0.1457  0.4384
   75CHL1  H12A 7988   5.582   1.928   7.332 -0.2529 -0.7556 -1.4985
   75CHL1  H12B 7989   5.675   2.083   7.286  1.4927  0.1708  0.0434
   75CHL1   C11 7990   5.726   1.917   7.170  0.3150 -0.1509  0.4375
   75CHL1  H11A 7991   5.729   1.806   7.171 -1.3442 -0.2644 -1.1479
   75CHL1  H11B 7992   5.646   1.942   7.098 -1.2725  0.1092  2.2115
   75CHL1    C9 7993   5.863   1.968   7.126  0.3253  0.5734  0.2949
   75CHL1    H9 7994   5.848   2.076   7.107  1.5486  0.7377  0.1757
   75CHL1   C10 7995   5.901   1.903   6.988  0.0918 -0.1918 -0.2960
   75CHL1   C19 7996   5.899   1.749   6.977  0.0664  0.0336  0.0771
   75CHL1  H19A 7997   5.798   1.704   6.989 -0.0683  0.0060 -1.0309
   75CHL1  H19B 7998   5.945   1.712   6.883  1.6321  1.0848  0.3962
   75CHL1  H19C 7999   5.960   1.700   7.055  0.0667  0.5376  0.4007
   75CHL1    C1 8000   5.806   1.963   6.876  0.1826 -0.6357  0.4653
   75CHL1   H1A 8001   5.699   1.934   6.887 -0.2647  1.3315  1.7352
   75CHL1   H1B 8002   5.808   2.070   6.903  0.9767 -0.6120  0.3327
   75CHL1    C2 8003   5.855   1.941   6.731  1.0489  0.9085 -0.4264
   75CHL1   H2A 8004   5.793   1.993   6.656  0.3723  0.6323 -0.0744
   75CHL1   H2B 8005   5.861   1.831   6.711 -0.5842  0.7301 -0.0743
   75CHL1   C20 8006   5.677   1.972   7.669  0.7410 -0.2274 -0.5440
   75CHL1   H20 8007   5.716   1.877   7.711  0.9980  0.5606  1.0542
   75CHL1   C21 8008   5.533   1.945   7.615 -0.0672 -0.0685 -0.2408
   75CHL1  H21A 8009   5.521   1.846   7.566  3.4075 -1.4366  1.3356
   75CHL1  H21B 8010   5.510   2.026   7.542 -0.7411 -2.0239 -2.3571
   75CHL1  H21C 8011   5.461   1.942   7.699 -0.6085  2.9892 -0.4805
   75CHL1   C22 8012   5.684   2.072   7.793 -0.0298 -0.0556  0.6464
   75CHL1  H22A 8013   5.784   2.092   7.836  0.3180  0.2645 -0.2857
   75CHL1  H22B 8014   5.655   2.169   7.747 -1.1478 -1.7503 -2.5535
   75CHL1   C23 8015   5.599   2.032   7.911 -0.1683 -0.3637 -0.2191
   75CHL1  H23A 8016   5.491   2.025   7.887 -0.5419  4.0338 -0.5386
   75CHL1  H23B 8017   5.633   1.928   7.929 -0.3227 -0.3966 -0.1139
   75CHL1   C24 8018   5.607   2.132   8.026 -0.5526 -0.3789 -0.3039
   75CHL1  H24A 8019   5.542   2.091   8.105 -0.6330 -1.9980 -1.1653
   75CHL1  H24B 8020   5.715   2.142   8.052 -0.2333  0.9472 -1.9511
   75CHL1   C25 8021   5.559   2.278   8.005  0.3284  0.2891  0.2789
   75CHL1   H25 8022   5.593   2.301   7.902 -0.4793  0.9870  0.1635
   75CHL1   C26 8023   5.401   2.278   8.004 -0.3273  0.3220  0.2459
   75CHL1  H26A 8024   5.371   2.383   7.983  1.3386  0.4309 -1.8975
   75CHL1  H26B 8025   5.364   2.212   7.923 -1.2692  1.3044 -0.1569
   75CHL1  H26C 8026   5.356   2.245   8.100  0.2212 -0.8805  0.0976
   75CHL1   C27 8027   5.619   2.378   8.097 -0.6792 -0.7735 -0.4491
   75CHL1  H27A 8028   5.588   2.349   8.199  1.6742 -0.2421  0.4727
   75CHL1  H27B 8029   5.729   2.373   8.098 -0.5071  1.3883 -1.1759
   75CHL1  H27C 8030   5.587   2.484   8.081  2.6765  0.3805 -0.2844
   76CHL1    C3 8031   2.314   5.362   7.301 -0.2546 -0.9044 -0.2303
   76CHL1    H3 8032   2.212   5.320   7.318 -0.2938 -0.2693  1.2234
   76CHL1    O3 8033   2.333   5.376   7.159  0.4956 -0.5622  0.3053
   76CHL1   H3' 8034   2.408   5.436   7.154 -0.5899  0.8625  0.2032
   76CHL1    C4 8035   2.300   5.507   7.362 -0.2050  0.2207  0.1874
   76CHL1   H4A 8036   2.398   5.557   7.345  0.7076 -0.7483  2.2863
   76CHL1   H4B 8037   2.220   5.567   7.313 -2.0471 -0.0712  2.6413
   76CHL1    C5 8038   2.289   5.510   7.517 -0.4401  0.2420  0.2057
   76CHL1    C6 8039   2.200   5.577   7.583 -0.0527  0.2514 -0.2790
   76CHL1    H6 8040   2.132   5.648   7.535 -2.8903 -2.0944 -0.0157
   76CHL1    C7 8041   2.182   5.570   7.733 -0.0990 -0.1318 -0.3189
   76CHL1   H7A 8042   2.159   5.673   7.769 -1.1359 -0.2961 -0.4950
   76CHL1   H7B 8043   2.092   5.509   7.754  0.7770 -1.1189  0.7941
   76CHL1    C8 8044   2.308   5.506   7.800  0.2231  0.5640  1.2208
   76CHL1    H8 8045   2.392   5.578   7.788  0.6620  0.1196  1.5769
   76CHL1   C14 8046   2.277   5.472   7.949 -0.2936  0.1290 -0.0466
   76CHL1   H14 8047   2.195   5.397   7.955  0.3472 -0.4859  2.1058
   76CHL1   C15 8048   2.227   5.590   8.034  0.3018 -0.3509 -0.3764
   76CHL1  H15A 8049   2.293   5.673   8.004 -1.4869  1.2396 -0.0996
   76CHL1  H15B 8050   2.121   5.613   8.012 -0.1567 -0.7629  1.2510
   76CHL1   C16 8051   2.249   5.547   8.174 -0.1101 -0.4096 -0.3121
   76CHL1  H16A 8052   2.316   5.624   8.217  0.8938 -0.7030 -1.3278
   76CHL1  H16B 8053   2.151   5.551   8.227 -1.5781  0.2763 -2.9044
   76CHL1   C17 8054   2.325   5.408   8.175  0.0433  0.3149  0.0217
   76CHL1   H17 8055   2.237   5.340   8.181 -0.3503  0.8271  0.1889
   76CHL1   C13 8056   2.392   5.405   8.032  0.1588  0.1355 -0.8908
   76CHL1   C18 8057   2.524   5.495   8.029  0.4627  1.1150  0.1933
   76CHL1  H18A 8058   2.501   5.589   8.084  0.3316  0.7949  0.6887
   76CHL1  H18B 8059   2.616   5.442   8.062  0.2404  1.1104  0.8233
   76CHL1  H18C 8060   2.546   5.523   7.924 -3.1817 -1.2777 -1.4179
   76CHL1   C12 8061   2.413   5.271   7.962 -0.7670  0.0010 -0.3989
   76CHL1  H12A 8062   2.497   5.213   8.006  0.3166 -0.4470 -2.8681
   76CHL1  H12B 8063   2.316   5.218   7.974 -0.6447 -0.3747 -1.0139
   76CHL1   C11 8064   2.450   5.289   7.816  0.1245 -0.2258  0.5445
   76CHL1  H11A 8065   2.551   5.335   7.808  0.1280 -0.5672 -3.1935
   76CHL1  H11B 8066   2.445   5.187   7.773 -2.0364  0.2041 -0.3977
   76CHL1    C9 8067   2.350   5.383   7.728 -0.2293  0.3321  0.5302
   76CHL1    H9 8068   2.255   5.328   7.718 -1.1013  2.0196 -0.8039
   76CHL1   C10 8069   2.399   5.415   7.588  0.3489 -0.1482  0.2475
   76CHL1   C19 8070   2.542   5.478   7.590  0.1994  0.4340  0.3139
   76CHL1  H19A 8071   2.555   5.573   7.645 -0.5080  0.1323  1.0267
   76CHL1  H19B 8072   2.621   5.406   7.620  0.3450  0.0264 -0.9809
   76CHL1  H19C 8073   2.559   5.516   7.487 -3.3742  2.9290  0.4759
   76CHL1    C1 8074   2.413   5.277   7.518  0.1142 -0.7502 -0.0994
   76CHL1   H1A 8075   2.500   5.219   7.556  2.0081  0.1402 -2.7408
   76CHL1   H1B 8076   2.318   5.224   7.540 -0.0174  0.2229  1.9012
   76CHL1    C2 8077   2.430   5.292   7.365  0.3744 -0.3444  0.0067
   76CHL1   H2A 8078   2.438   5.192   7.317 -0.1953  0.2933 -1.4616
   76CHL1   H2B 8079   2.526   5.345   7.343  0.9315 -1.3300 -0.0146
   76CHL1   C20 8080   2.414   5.389   8.297  0.1422 -0.3947  0.0483
   76CHL1   H20 8081   2.480   5.479   8.303 -0.2685 -0.1045  0.2515
   76CHL1   C21 8082   2.509   5.262   8.276  1.1237 -0.5929  0.0097
   76CHL1  H21A 8083   2.448   5.173   8.248  0.2110 -0.6925  2.1184
   76CHL1  H21B 8084   2.540   5.231   8.378  0.4374 -0.3987  0.2798
   76CHL1  H21C 8085   2.592   5.290   8.208  1.1971  2.9583  1.3527
   76CHL1   C22 8086   2.338   5.381   8.434 -0.4402  0.0819 -0.1404
   76CHL1  H22A 8087   2.395   5.379   8.530 -1.9802 -1.7190  0.7951
   76CHL1  H22B 8088   2.268   5.467   8.441 -0.8530 -0.3062  0.6122
   76CHL1   C23 8089   2.245   5.255   8.436  0.3794  0.9453 -0.1022
   76CHL1  H23A 8090   2.175   5.261   8.350  0.9211  1.0458 -0.5397
   76CHL1  H23B 8091   2.302   5.160   8.427  0.7047  1.0041  1.1866
   76CHL1   C24 8092   2.157   5.248   8.565  0.1439 -0.1877 -0.1796
   76CHL1  H24A 8093   2.125   5.353   8.578  1.0565  0.4995 -2.7916
   76CHL1  H24B 8094   2.077   5.174   8.545  0.6322 -1.2594  1.6168
   76CHL1   C25 8095   2.231   5.212   8.692  0.1051 -0.0291  1.0742
   76CHL1   H25 8096   2.321   5.277   8.688 -1.4698  2.2648  0.2640
   76CHL1   C26 8097   2.163   5.271   8.808 -0.1956  0.5771 -0.0009
   76CHL1  H26A 8098   2.229   5.267   8.898  2.4260 -1.8231 -1.8240
   76CHL1  H26B 8099   2.135   5.376   8.788 -0.2300  0.3622 -1.1478
   76CHL1  H26C 8100   2.072   5.216   8.840  0.9417 -0.7304  1.1513
   76CHL1   C27 8101   2.263   5.057   8.712 -0.3725 -0.3433  1.3728
   76CHL1  H27A 8102   2.332   5.040   8.626 -1.6258  3.3337 -0.5401
   76CHL1  H27B 8103   2.313   5.039   8.810 -1.8793 -3.8973  1.6687
   76CHL1  H27C 8104   2.179   4.989   8.687 -0.3135  0.2325 -0.5481
   77CHL1    C3 8105   4.896   2.452   6.745  0.1764  0.3289  0.1316
   77CHL1    H3 8106   4.998   2.492   6.764  0.6742 -0.3431 -1.0142
   77CHL1    O3 8107   4.876   2.380   6.628 -0.3341  0.2185 -0.2097
   77CHL1   H3' 8108   4.780   2.390   6.620 -0.4484 -1.2533 -1.0236
   77CHL1    C4 8109   4.875   2.355   6.865  0.6286 -0.0220  0.7483
   77CHL1   H4A 8110   4.782   2.296   6.853  2.1115 -2.1401 -1.0760
   77CHL1   H4B 8111   4.953   2.277   6.857  0.6607  0.0512  0.3144
   77CHL1    C5 8112   4.870   2.413   7.008  0.2982  0.2646 -0.0525
   77CHL1    C6 8113   4.946   2.354   7.107  0.0780  0.5578  0.5224
   77CHL1    H6 8114   5.006   2.262   7.096  0.4839  0.7526  1.0273
   77CHL1    C7 8115   4.966   2.412   7.239  0.3261  0.8891  0.4040
   77CHL1   H7A 8116   4.940   2.336   7.316 -1.4741  1.6237  0.5958
   77CHL1   H7B 8117   5.071   2.445   7.246  0.1734  1.2552  1.1463
   77CHL1    C8 8118   4.869   2.537   7.269 -0.7702  0.3884  0.0668
   77CHL1    H8 8119   4.774   2.492   7.306 -1.1070  2.4428  1.8839
   77CHL1   C14 8120   4.924   2.627   7.376 -0.1140  0.9485  0.0741
   77CHL1   H14 8121   5.010   2.678   7.328 -0.8012 -0.4003 -2.8294
   77CHL1   C15 8122   4.978   2.558   7.503 -0.2995  0.4658  0.3665
   77CHL1  H15A 8123   4.903   2.485   7.541 -2.1148  3.4935  3.0656
   77CHL1  H15B 8124   5.075   2.505   7.489 -0.3720  0.5104 -0.3523
   77CHL1   C16 8125   4.984   2.666   7.604 -0.2996 -0.9112 -0.3867
   77CHL1  H16A 8126   4.916   2.631   7.684 -2.1518  2.6798 -0.1993
   77CHL1  H16B 8127   5.087   2.680   7.644  0.8918  0.8811 -3.6778
   77CHL1   C17 8128   4.927   2.794   7.531 -0.2367  0.5032  0.3590
   77CHL1   H17 8129   5.018   2.845   7.493  1.0728  0.2268  2.9277
   77CHL1   C13 8130   4.837   2.738   7.418  0.0949  0.3078 -1.2570
   77CHL1   C18 8131   4.702   2.689   7.480 -0.9087  0.6939  0.2225
   77CHL1  H18A 8132   4.650   2.617   7.414  3.8994 -1.2232 -1.9506
   77CHL1  H18B 8133   4.715   2.635   7.577 -0.6147  2.8092  1.4292
   77CHL1  H18C 8134   4.642   2.776   7.514  0.4630  0.4648  3.6574
   77CHL1   C12 8135   4.800   2.835   7.301  0.2064 -0.0288  0.6371
   77CHL1  H12A 8136   4.709   2.897   7.318 -0.1951 -0.4123 -0.1114
   77CHL1  H12B 8137   4.888   2.902   7.285  0.3921 -0.5151 -0.4288
   77CHL1   C11 8138   4.750   2.747   7.186 -0.0846 -0.2290 -0.1176
   77CHL1  H11A 8139   4.646   2.712   7.204 -0.6591  0.9655 -0.8985
   77CHL1  H11B 8140   4.736   2.820   7.103 -0.1705 -0.0695  0.0344
   77CHL1    C9 8141   4.844   2.626   7.147 -0.1503 -0.3179  0.0935
   77CHL1    H9 8142   4.941   2.674   7.121 -0.5617  0.5577  0.1465
   77CHL1   C10 8143   4.797   2.548   7.023  0.6007 -0.2851  0.0162
   77CHL1   C19 8144   4.644   2.527   7.043 -0.0985  0.1384 -0.1508
   77CHL1  H19A 8145   4.603   2.452   6.972 -0.4853 -2.1118  2.2672
   77CHL1  H19B 8146   4.625   2.477   7.141 -0.5117 -0.0547 -0.3263
   77CHL1  H19C 8147   4.581   2.618   7.040 -1.3362 -0.6974 -0.0764
   77CHL1    C1 8148   4.811   2.638   6.898 -0.7541  0.1103 -0.4577
   77CHL1   H1A 8149   4.739   2.723   6.903  1.5123  2.2054 -1.3014
   77CHL1   H1B 8150   4.914   2.681   6.899 -1.1585  1.0924 -0.0400
   77CHL1    C2 8151   4.792   2.570   6.760  0.1136 -0.4374  0.1729
   77CHL1   H2A 8152   4.802   2.658   6.692 -0.0247 -0.2781  0.3573
   77CHL1   H2B 8153   4.692   2.525   6.745  0.9271 -1.3592 -3.4178
   77CHL1   C20 8154   4.864   2.897   7.630  0.2596 -0.6530  0.1557
   77CHL1   H20 8155   4.763   2.861   7.659  0.7702 -0.6218  2.1237
   77CHL1   C21 8156   4.847   3.035   7.554  0.9521  1.0118 -0.0322
   77CHL1  H21A 8157   4.763   3.033   7.481  0.8818 -1.4867  0.0599
   77CHL1  H21B 8158   4.945   3.049   7.505  1.0926 -0.2194 -0.1154
   77CHL1  H21C 8159   4.834   3.118   7.627 -1.9449 -0.2775  1.0740
   77CHL1   C22 8160   4.940   2.923   7.758 -0.2140 -0.1187 -0.0184
   77CHL1  H22A 8161   4.983   2.827   7.794 -2.4338 -1.3825 -0.5623
   77CHL1  H22B 8162   5.019   2.999   7.741 -1.4923  1.0833 -0.7955
   77CHL1   C23 8163   4.848   2.962   7.875  0.3748  0.5375  0.0689
   77CHL1  H23A 8164   4.803   3.060   7.851  1.4420  1.1220  0.4030
   77CHL1  H23B 8165   4.763   2.890   7.868 -1.0394  2.1724 -0.1761
   77CHL1   C24 8166   4.915   2.939   8.014  0.4418  0.2020  0.4693
   77CHL1  H24A 8167   4.947   2.832   8.020 -1.0151 -0.1748  3.7058
   77CHL1  H24B 8168   4.998   3.012   8.025 -0.1841  0.8983  0.6604
   77CHL1   C25 8169   4.820   2.960   8.136  0.5394 -0.1058 -0.0577
   77CHL1   H25 8170   4.726   2.911   8.103  0.3922  1.1752 -1.6968
   77CHL1   C26 8171   4.878   2.909   8.268  0.0445 -0.4671 -0.8342
   77CHL1  H26A 8172   4.976   2.957   8.287  0.0688 -0.3011 -1.3659
   77CHL1  H26B 8173   4.806   2.931   8.350  0.8923  1.7580 -0.6244
   77CHL1  H26C 8174   4.893   2.800   8.253 -0.5802 -0.9948  1.7967
   77CHL1   C27 8175   4.786   3.109   8.163 -0.3563 -0.3573  0.8419
   77CHL1  H27A 8176   4.868   3.174   8.198 -1.0256  1.6943 -1.1257
   77CHL1  H27B 8177   4.731   3.157   8.079  0.7211 -1.9288 -0.8502
   77CHL1  H27C 8178   4.713   3.111   8.247 -1.7389  1.8136 -0.3158
   78CHL1    C3 8179   4.483   3.578   6.696  0.0117  0.0360 -0.2627
   78CHL1    H3 8180   4.586   3.537   6.700 -0.6915 -1.7802  0.8086
   78CHL1    O3 8181   4.432   3.558   6.565  0.4375 -0.0073 -0.2596
   78CHL1   H3' 8182   4.340   3.584   6.574  0.3540 -0.3731 -0.0738
   78CHL1    C4 8183   4.391   3.504   6.794 -0.0682  0.6676  0.3902
   78CHL1   H4A 8184   4.289   3.529   6.759  0.2588  1.6077  0.0830
   78CHL1   H4B 8185   4.406   3.395   6.778 -1.9424 -0.2120  3.8092
   78CHL1    C5 8186   4.415   3.536   6.940  0.7701 -0.1220 -0.1357
   78CHL1    C6 8187   4.440   3.431   7.018 -0.1826  0.1723 -0.3707
   78CHL1    H6 8188   4.444   3.329   6.979 -1.2220 -0.0044 -0.0430
   78CHL1    C7 8189   4.459   3.440   7.164  0.2583 -0.9963  0.0822
   78CHL1   H7A 8190   4.387   3.367   7.207  1.5307 -3.4503 -1.6615
   78CHL1   H7B 8191   4.565   3.413   7.188 -0.2537 -3.4709 -0.1059
   78CHL1    C8 8192   4.432   3.584   7.223 -0.2704  0.0792  0.0753
   78CHL1    H8 8193   4.323   3.592   7.240 -0.2100  0.2807  0.3810
   78CHL1   C14 8194   4.502   3.594   7.357  0.0310  0.1703 -0.1961
   78CHL1   H14 8195   4.612   3.595   7.345  0.1145  0.3383  0.5418
   78CHL1   C15 8196   4.473   3.485   7.455 -0.3611  0.2076 -0.8822
   78CHL1  H15A 8197   4.369   3.447   7.461  0.0351 -0.8814 -0.6692
   78CHL1  H15B 8198   4.534   3.395   7.434  1.6619  1.4885 -0.7807
   78CHL1   C16 8199   4.517   3.549   7.592 -0.2125  0.4183  0.2650
   78CHL1  H16A 8200   4.428   3.549   7.658 -1.4101  1.2358 -1.2842
   78CHL1  H16B 8201   4.607   3.500   7.634  1.3924  1.8669 -1.2865
   78CHL1   C17 8202   4.542   3.702   7.564 -0.2123 -0.4812  0.0419
   78CHL1   H17 8203   4.651   3.702   7.539  0.5399  0.7137  2.8871
   78CHL1   C13 8204   4.478   3.731   7.429 -0.1288 -0.0902  0.0362
   78CHL1   C18 8205   4.327   3.748   7.445 -0.4076  0.0928  0.2684
   78CHL1  H18A 8206   4.309   3.853   7.476 -1.6852  0.7268 -2.2842
   78CHL1  H18B 8207   4.269   3.738   7.350  0.4999 -0.6847 -0.2140
   78CHL1  H18C 8208   4.277   3.670   7.506  0.4683 -4.0507 -3.7415
   78CHL1   C12 8209   4.541   3.838   7.336  0.3031  0.4517 -0.0230
   78CHL1  H12A 8210   4.555   3.937   7.385 -0.1864  1.1317 -1.2188
   78CHL1  H12B 8211   4.648   3.810   7.320  0.4052  0.0935  1.1600
   78CHL1   C11 8212   4.478   3.841   7.191  0.3815  0.6619  0.7422
   78CHL1  H11A 8213   4.377   3.887   7.196 -0.0486 -0.1133 -0.3305
   78CHL1  H11B 8214   4.541   3.909   7.130  2.4764 -0.1298  1.9205
   78CHL1    C9 8215   4.479   3.697   7.125 -0.1945  0.2338 -0.3291
   78CHL1    H9 8216   4.586   3.668   7.115 -0.7350 -1.4346 -1.8287
   78CHL1   C10 8217   4.425   3.684   6.984 -0.0860 -0.3650 -0.2527
   78CHL1   C19 8218   4.288   3.752   6.978  0.3034 -0.0731 -0.5305
   78CHL1  H19A 8219   4.304   3.860   6.959 -2.1574  0.8441  1.9816
   78CHL1  H19B 8220   4.226   3.704   6.899  1.0155 -1.3698 -0.3258
   78CHL1  H19C 8221   4.239   3.749   7.078  1.3161 -1.9768 -0.0577
   78CHL1    C1 8222   4.518   3.755   6.880 -0.8290 -0.2333  0.6968
   78CHL1   H1A 8223   4.497   3.864   6.886 -0.5067 -0.1861  1.0190
   78CHL1   H1B 8224   4.626   3.731   6.892 -1.0571 -2.2962 -0.7967
   78CHL1    C2 8225   4.484   3.724   6.730  0.3175  0.8281 -0.5633
   78CHL1   H2A 8226   4.538   3.779   6.650 -0.1325 -0.5550 -1.8734
   78CHL1   H2B 8227   4.380   3.759   6.718  0.3772  0.4697 -2.4434
   78CHL1   C20 8228   4.522   3.801   7.685 -0.1009  0.3848  0.2255
   78CHL1   H20 8229   4.520   3.899   7.634  2.2755  0.5422  0.3324
   78CHL1   C21 8230   4.661   3.799   7.765  0.7295 -0.1222  0.2695
   78CHL1  H21A 8231   4.745   3.814   7.693  2.0448 -1.0026  1.5489
   78CHL1  H21B 8232   4.686   3.701   7.812  2.3943  0.5504  0.8870
   78CHL1  H21C 8233   4.666   3.874   7.847  1.1757  0.7890 -0.5687
   78CHL1   C22 8234   4.401   3.784   7.781 -0.5614 -0.3371  0.0363
   78CHL1  H22A 8235   4.317   3.762   7.713  0.5453  0.9623 -1.8391
   78CHL1  H22B 8236   4.416   3.691   7.839 -0.5287 -0.4626 -0.1722
   78CHL1   C23 8237   4.380   3.900   7.877  0.2694  0.2848 -0.3020
   78CHL1  H23A 8238   4.462   3.910   7.951 -0.6351 -1.3523  0.9953
   78CHL1  H23B 8239   4.377   3.987   7.808 -1.3824 -1.0118 -1.9513
   78CHL1   C24 8240   4.251   3.897   7.964  0.9559 -0.2302 -0.2446
   78CHL1  H24A 8241   4.166   3.901   7.893  0.2615  1.6660  0.6067
   78CHL1  H24B 8242   4.251   3.798   8.013  0.4791  0.3289  0.9401
   78CHL1   C25 8243   4.239   3.998   8.079  0.1340  0.5299  0.4765
   78CHL1   H25 8244   4.263   4.098   8.037 -1.0588  0.2008 -1.0821
   78CHL1   C26 8245   4.093   4.002   8.127 -0.1028 -0.4307  0.1487
   78CHL1  H26A 8246   4.071   3.906   8.179  2.1934  0.4018  2.9180
   78CHL1  H26B 8247   4.074   4.082   8.202 -0.7683 -0.0646 -0.3999
   78CHL1  H26C 8248   4.023   4.021   8.043 -0.2005 -1.0976  0.0772
   78CHL1   C27 8249   4.346   3.974   8.185 -1.0861  0.1186 -0.0117
   78CHL1  H27A 8250   4.331   3.876   8.234 -0.8271  0.5926  1.0482
   78CHL1  H27B 8251   4.445   3.965   8.136 -0.2161 -1.7353  1.9503
   78CHL1  H27C 8252   4.350   4.053   8.263  1.0241 -0.2898  0.3539
   79CHL1    C3 8253   2.867   4.514   7.038 -0.3722 -0.5474 -0.1694
   79CHL1    H3 8254   2.968   4.471   7.051 -0.5134 -0.5321  1.1253
   79CHL1    O3 8255   2.858   4.593   6.915 -0.3353  0.2126  0.1453
   79CHL1   H3' 8256   2.769   4.626   6.905  0.1266  0.8265 -3.9747
   79CHL1    C4 8257   2.769   4.406   7.036  0.4014  0.2187  0.1990
   79CHL1   H4A 8258   2.664   4.436   7.018 -0.7492 -1.6234  3.0651
   79CHL1   H4B 8259   2.800   4.326   6.966  1.7196 -0.1949  1.2173
   79CHL1    C5 8260   2.760   4.331   7.168 -0.0577  0.1059  0.0822
   79CHL1    C6 8261   2.781   4.197   7.174  0.4789 -0.0182  0.4199
   79CHL1    H6 8262   2.807   4.131   7.090  1.5917 -1.3379  1.7475
   79CHL1    C7 8263   2.787   4.120   7.295  0.5964 -0.7730 -0.9752
   79CHL1   H7A 8264   2.725   4.029   7.294  0.3310 -0.6690  1.5643
   79CHL1   H7B 8265   2.891   4.089   7.321  0.5415 -0.4213 -0.3157
   79CHL1    C8 8266   2.730   4.203   7.425  0.4086  0.0665  0.2246
   79CHL1    H8 8267   2.620   4.196   7.417  0.2735 -0.5956  2.2125
   79CHL1   C14 8268   2.774   4.137   7.547 -0.3120 -0.3189 -0.3531
   79CHL1   H14 8269   2.884   4.128   7.536 -0.2127  0.4038 -0.0128
   79CHL1   C15 8270   2.732   3.989   7.566  0.2597 -1.0514  0.4567
   79CHL1  H15A 8271   2.622   3.974   7.553  0.2684 -0.5758 -0.2333
   79CHL1  H15B 8272   2.794   3.928   7.498  0.8021 -0.4164  0.3683
   79CHL1   C16 8273   2.759   3.961   7.717  0.0123 -0.1667 -0.2022
   79CHL1  H16A 8274   2.672   3.907   7.760  1.0882 -1.4941  0.4115
   79CHL1  H16B 8275   2.845   3.893   7.737  0.3010  0.1119 -0.4905
   79CHL1   C17 8276   2.783   4.102   7.784 -0.1722  0.2153 -0.1338
   79CHL1   H17 8277   2.894   4.110   7.789  0.0310 -2.4641  1.2651
   79CHL1   C13 8278   2.733   4.205   7.684  0.4012 -0.0347  0.1834
   79CHL1   C18 8279   2.576   4.217   7.689 -0.3798  0.0845 -0.4273
   79CHL1  H18A 8280   2.548   4.114   7.720  2.6683 -0.6187  0.2813
   79CHL1  H18B 8281   2.542   4.279   7.775 -0.8114 -2.6058  1.4675
   79CHL1  H18C 8282   2.532   4.255   7.595 -0.9510  1.2760  0.2905
   79CHL1   C12 8283   2.797   4.347   7.684  0.0380 -0.7702 -0.2268
   79CHL1  H12A 8284   2.776   4.409   7.774  1.6412 -0.7339  0.1570
   79CHL1  H12B 8285   2.908   4.336   7.689  0.0162 -1.0690 -0.4027
   79CHL1   C11 8286   2.759   4.422   7.558 -0.5059  0.0754  0.5652
   79CHL1  H11A 8287   2.654   4.456   7.562 -0.3911  0.4560  0.4566
   79CHL1  H11B 8288   2.821   4.515   7.556 -2.0759  1.1510 -0.8519
   79CHL1    C9 8289   2.786   4.347   7.422 -1.3058  0.0188 -1.0840
   79CHL1    H9 8290   2.896   4.334   7.415 -1.3080 -0.1769 -0.7805
   79CHL1   C10 8291   2.743   4.416   7.295  0.2963 -0.3760  0.5464
   79CHL1   C19 8292   2.594   4.457   7.295  0.9841 -0.1955  0.5446
   79CHL1  H19A 8293   2.578   4.520   7.204  3.0376 -1.0281 -0.4403
   79CHL1  H19B 8294   2.528   4.368   7.292  1.6253 -0.6698  0.4858
   79CHL1  H19C 8295   2.570   4.523   7.381  1.0823 -0.1105  0.5064
   79CHL1    C1 8296   2.829   4.539   7.288  0.7804 -0.6551  1.0244
   79CHL1   H1A 8297   2.785   4.612   7.359 -1.3830 -1.0153  0.1252
   79CHL1   H1B 8298   2.935   4.521   7.315  0.6963 -2.5268  0.2601
   79CHL1    C2 8299   2.830   4.608   7.154 -0.3262 -0.3478 -0.7886
   79CHL1   H2A 8300   2.898   4.695   7.148 -0.6610  0.0413  0.7647
   79CHL1   H2B 8301   2.728   4.643   7.128 -1.6632 -2.7629  0.8348
   79CHL1   C20 8302   2.728   4.112   7.930 -0.2356  0.1259 -0.0096
   79CHL1   H20 8303   2.618   4.125   7.921 -0.0111  1.3266 -1.2121
   79CHL1   C21 8304   2.770   4.249   7.989 -0.3274 -0.3028  0.3464
   79CHL1  H21A 8305   2.759   4.255   8.100  1.1824  2.0589  0.4468
   79CHL1  H21B 8306   2.713   4.327   7.935  0.5519 -0.5062 -0.9215
   79CHL1  H21C 8307   2.878   4.263   7.965 -0.2896 -0.6925  0.2917
   79CHL1   C22 8308   2.759   3.990   8.025 -0.0128 -0.5627  0.2915
   79CHL1  H22A 8309   2.719   3.894   7.985  0.0357 -1.1317  1.5402
   79CHL1  H22B 8310   2.865   3.984   8.057  0.2225 -0.6677 -0.4882
   79CHL1   C23 8311   2.673   3.998   8.152 -0.3570 -0.2031  0.7143
   79CHL1  H23A 8312   2.694   4.089   8.212 -0.8155  0.1086  0.4199
   79CHL1  H23B 8313   2.564   4.005   8.128  0.0048 -3.1049 -2.6904
   79CHL1   C24 8314   2.686   3.876   8.247 -0.2869 -0.5100 -0.0195
   79CHL1  H24A 8315   2.661   3.785   8.188 -4.0858  1.0872 -1.1900
   79CHL1  H24B 8316   2.792   3.862   8.277 -0.4076  0.5381  1.0040
   79CHL1   C25 8317   2.613   3.882   8.383  0.2210 -0.1344  1.0851
   79CHL1   H25 8318   2.666   3.965   8.434  1.9259 -0.6931  0.3161
   79CHL1   C26 8319   2.465   3.903   8.363 -0.0041  0.1446  0.4156
   79CHL1  H26A 8320   2.444   4.006   8.327  1.7022  0.5003  0.3874
   79CHL1  H26B 8321   2.416   3.832   8.293 -1.9782  0.1097  1.7498
   79CHL1  H26C 8322   2.412   3.906   8.461  0.0295  2.6007  0.4121
   79CHL1   C27 8323   2.626   3.743   8.447  0.3547  0.1695  0.2869
   79CHL1  H27A 8324   2.585   3.674   8.371 -0.2829  3.7384 -2.9023
   79CHL1  H27B 8325   2.736   3.724   8.456  0.5319  0.9389 -0.1907
   79CHL1  H27C 8326   2.578   3.754   8.547  0.5674  1.0716  0.3004
   80CHL1    C3 8327   2.480   0.861   6.841  0.1632 -0.2144  0.4151
   80CHL1    H3 8328   2.475   0.782   6.763 -1.0874  0.2802 -0.0293
   80CHL1    O3 8329   2.517   0.982   6.771  0.2592  0.1031 -0.0107
   80CHL1   H3' 8330   2.612   0.988   6.773  0.3230 -0.8892  0.7747
   80CHL1    C4 8331   2.344   0.888   6.910  0.0014  0.1165 -0.1481
   80CHL1   H4A 8332   2.345   0.989   6.957  0.0852  0.3831 -0.7136
   80CHL1   H4B 8333   2.262   0.896   6.835 -0.8720 -0.4620  0.7265
   80CHL1    C5 8334   2.308   0.778   7.006  0.2390  0.3504  0.3155
   80CHL1    C6 8335   2.192   0.708   6.999 -0.4967  0.4529  0.0924
   80CHL1    H6 8336   2.118   0.728   6.920 -0.5643  0.0860  0.0607
   80CHL1    C7 8337   2.149   0.605   7.104 -0.1981 -0.0844  0.4168
   80CHL1   H7A 8338   2.045   0.610   7.142  0.0771 -1.5033  1.4024
   80CHL1   H7B 8339   2.157   0.504   7.059 -1.4842  0.7836 -1.9781
   80CHL1    C8 8340   2.240   0.599   7.227 -0.0948  0.6198 -0.0692
   80CHL1    H8 8341   2.214   0.687   7.290 -4.0729  0.0080 -0.5937
   80CHL1   C14 8342   2.211   0.479   7.317  0.2593 -0.2758 -0.2837
   80CHL1   H14 8343   2.241   0.391   7.255  0.4772 -1.0044  0.8293
   80CHL1   C15 8344   2.066   0.444   7.352 -0.0115  0.2231 -1.1631
   80CHL1  H15A 8345   2.009   0.536   7.377  0.1890 -0.0896  0.5578
   80CHL1  H15B 8346   2.025   0.390   7.264  2.1660 -1.0073 -1.4933
   80CHL1   C16 8347   2.083   0.353   7.480 -0.6173  0.4669 -1.0188
   80CHL1  H16A 8348   2.030   0.400   7.565 -1.7285  1.9818 -2.4946
   80CHL1  H16B 8349   2.039   0.251   7.483 -4.0490  1.7963  2.8246
   80CHL1   C17 8350   2.235   0.339   7.506  0.4947  0.7899 -0.1850
   80CHL1   H17 8351   2.275   0.255   7.444  1.5052  1.0847  0.0471
   80CHL1   C13 8352   2.294   0.470   7.444 -0.3534  0.0083 -0.3424
   80CHL1   C18 8353   2.249   0.592   7.538 -0.3427 -0.0723 -1.0693
   80CHL1  H18A 8354   2.146   0.570   7.573 -0.2716  1.1079 -0.0896
   80CHL1  H18B 8355   2.320   0.599   7.623  0.7794 -0.2770 -1.9524
   80CHL1  H18C 8356   2.245   0.690   7.487 -0.3226  1.1480  1.1925
   80CHL1   C12 8357   2.445   0.475   7.401  0.1168 -0.6269 -0.7603
   80CHL1  H12A 8358   2.508   0.481   7.492  1.2464  0.7525 -1.5732
   80CHL1  H12B 8359   2.468   0.382   7.346  0.4453 -0.0924 -1.5471
   80CHL1   C11 8360   2.486   0.588   7.313  0.9149  0.2134  0.3529
   80CHL1  H11A 8361   2.492   0.677   7.379 -0.6023  0.8532 -0.3146
   80CHL1  H11B 8362   2.589   0.578   7.275  1.6319  0.4427  2.1303
   80CHL1    C9 8363   2.385   0.606   7.193 -0.5502 -1.1475 -0.2266
   80CHL1    H9 8364   2.407   0.515   7.132  2.2444 -2.4344  2.3994
   80CHL1   C10 8365   2.413   0.739   7.105 -0.1358 -0.3474  0.0872
   80CHL1   C19 8366   2.423   0.850   7.209  0.0460  0.2251 -0.1997
   80CHL1  H19A 8367   2.519   0.844   7.265  0.8386 -1.5288 -1.6550
   80CHL1  H19B 8368   2.432   0.945   7.153  1.8250 -0.3606 -0.9982
   80CHL1  H19C 8369   2.333   0.851   7.274 -0.7886 -1.3585 -1.2434
   80CHL1    C1 8370   2.551   0.713   7.028  0.0246 -0.6497 -0.2158
   80CHL1   H1A 8371   2.632   0.707   7.104 -1.0523  0.4854  1.0742
   80CHL1   H1B 8372   2.546   0.616   6.974 -0.6760 -0.8043  0.1032
   80CHL1    C2 8373   2.588   0.825   6.934 -0.4769  0.5907  0.4776
   80CHL1   H2A 8374   2.679   0.794   6.879 -1.7111 -1.8868 -0.3461
   80CHL1   H2B 8375   2.607   0.914   6.998 -2.1847  1.2935  0.0622
   80CHL1   C20 8376   2.271   0.296   7.652  0.5280  0.6727 -0.4854
   80CHL1   H20 8377   2.237   0.383   7.713 -4.1991  0.4302 -2.3307
   80CHL1   C21 8378   2.428   0.291   7.660  0.2999 -0.4933 -0.1390
   80CHL1  H21A 8379   2.463   0.240   7.753  0.6605  0.7603  0.4408
   80CHL1  H21B 8380   2.459   0.398   7.662 -0.5134 -0.2078 -1.7390
   80CHL1  H21C 8381   2.466   0.233   7.574 -0.1483 -1.7449  0.4871
   80CHL1   C22 8382   2.209   0.165   7.701  0.1639  0.0923 -0.5039
   80CHL1  H22A 8383   2.104   0.158   7.666  0.2849 -2.4178 -0.5594
   80CHL1  H22B 8384   2.269   0.082   7.658 -1.5051 -1.0426 -0.7241
   80CHL1   C23 8385   2.193   0.163   7.858  0.2333 -0.3958  0.4000
   80CHL1  H23A 8386   2.289   0.180   7.911 -0.6213  1.9553  1.3071
   80CHL1  H23B 8387   2.133   0.250   7.890  1.6397  0.6077  0.3832
   80CHL1   C24 8388   2.128   0.034   7.907 -0.0503  0.0714  0.1604
   80CHL1  H24A 8389   2.059  -0.003   7.828 -1.3366  2.2780  0.1553
   80CHL1  H24B 8390   2.211  -0.038   7.922  1.1236  1.3851  0.1690
   80CHL1   C25 8391   2.057   0.037   8.041  0.3106  0.0067 -0.1095
   80CHL1   H25 8392   1.960   0.091   8.043  1.1527  1.5512  1.8346
   80CHL1   C26 8393   2.023  -0.109   8.081 -0.7901  0.8084 -0.0313
   80CHL1  H26A 8394   1.998  -0.162   7.987  2.4506 -0.3704 -0.3459
   80CHL1  H26B 8395   2.104  -0.170   8.127 -0.9930  0.2223 -0.4502
   80CHL1  H26C 8396   1.929  -0.113   8.140 -0.9883  1.3148 -0.3097
   80CHL1   C27 8397   2.147   0.095   8.150 -0.3570 -0.1342  0.4371
   80CHL1  H27A 8398   2.246   0.046   8.159  0.2105  1.2145  1.8808
   80CHL1  H27B 8399   2.160   0.201   8.122  1.0112 -0.8295 -1.8421
   80CHL1  H27C 8400   2.093   0.085   8.247  1.4043 -0.1250  1.4508
   81CHL1    C3 8401   5.737   6.241   6.920 -0.1973  0.5258  0.2038
   81CHL1    H3 8402   5.751   6.134   6.945  0.4929  0.6464  0.3468
   81CHL1    O3 8403   5.695   6.242   6.785 -0.1059  0.7144 -0.2832
   81CHL1   H3' 8404   5.656   6.325   6.756  0.3580  0.7349 -0.8661
   81CHL1    C4 8405   5.636   6.318   7.013 -0.1205 -0.2383 -0.3077
   81CHL1   H4A 8406   5.643   6.427   6.993 -1.2605  0.2753  1.7762
   81CHL1   H4B 8407   5.533   6.279   7.007 -0.7416  1.5269 -2.1134
   81CHL1    C5 8408   5.688   6.304   7.157 -0.2270  0.4072 -0.5017
   81CHL1    C6 8409   5.608   6.253   7.257  0.7879  0.5074  0.4616
   81CHL1    H6 8410   5.508   6.221   7.225  1.2853 -0.3982 -0.2664
   81CHL1    C7 8411   5.640   6.257   7.402 -0.0810 -0.1971  0.4809
   81CHL1   H7A 8412   5.564   6.321   7.452 -2.2462 -0.9201 -1.6577
   81CHL1   H7B 8413   5.628   6.150   7.431  1.4374 -0.8306 -1.0793
   81CHL1    C8 8414   5.778   6.315   7.431 -0.4054  0.1562  0.0613
   81CHL1    H8 8415   5.768   6.425   7.443 -0.4116 -0.1078  3.3709
   81CHL1   C14 8416   5.830   6.273   7.574 -0.3808 -0.0376  0.2413
   81CHL1   H14 8417   5.871   6.171   7.559  1.4255  0.3900  1.9002
   81CHL1   C15 8418   5.729   6.267   7.694 -0.5091 -0.5325 -0.7834
   81CHL1  H15A 8419   5.655   6.351   7.701 -1.0193 -1.1006  1.2065
   81CHL1  H15B 8420   5.664   6.179   7.679 -0.5408 -0.6377 -0.0736
   81CHL1   C16 8421   5.825   6.251   7.812  0.0341 -0.9717 -0.2187
   81CHL1  H16A 8422   5.806   6.331   7.887  1.9552  0.1841 -0.9053
   81CHL1  H16B 8423   5.825   6.153   7.864  0.0446 -1.1424 -0.5424
   81CHL1   C17 8424   5.971   6.272   7.752  0.0205 -0.3096  0.2928
   81CHL1   H17 8425   6.002   6.168   7.724  0.2293  0.2752 -1.7945
   81CHL1   C13 8426   5.959   6.346   7.619 -0.5683  0.7614  0.4198
   81CHL1   C18 8427   5.935   6.495   7.644  0.3702  0.0914 -0.0624
   81CHL1  H18A 8428   5.906   6.542   7.547  1.8982  0.5220 -0.3370
   81CHL1  H18B 8429   5.858   6.494   7.724 -1.0492  0.2316 -1.3822
   81CHL1  H18C 8430   6.025   6.554   7.670 -0.6540  0.6626  2.4129
   81CHL1   C12 8431   6.066   6.320   7.510  0.5303  0.1684 -0.7635
   81CHL1  H12A 8432   6.163   6.372   7.524  2.3298 -1.7861 -4.4668
   81CHL1  H12B 8433   6.092   6.213   7.516 -0.8777 -0.2517 -1.5530
   81CHL1   C11 8434   6.020   6.357   7.364  0.1278  0.1165 -0.3959
   81CHL1  H11A 8435   6.025   6.468   7.359 -0.2453  0.1908  0.7147
   81CHL1  H11B 8436   6.094   6.317   7.291 -0.7658 -0.4389 -1.0133
   81CHL1    C9 8437   5.880   6.303   7.324 -0.0851 -0.0738 -0.1639
   81CHL1    H9 8438   5.899   6.194   7.316 -1.5176 -0.3821  0.3273
   81CHL1   C10 8439   5.824   6.353   7.182  0.5109  0.1931  0.2459
   81CHL1   C19 8440   5.818   6.506   7.181 -0.4911 -0.0042  0.4665
   81CHL1  H19A 8441   5.920   6.546   7.191 -0.6681  0.2903  1.1066
   81CHL1  H19B 8442   5.775   6.555   7.091 -1.4101  2.1187  1.9747
   81CHL1  H19C 8443   5.761   6.542   7.269  1.3977  2.0233  0.9317
   81CHL1    C1 8444   5.923   6.297   7.073  0.2709 -0.5859 -0.5162
   81CHL1   H1A 8445   6.022   6.341   7.094 -0.6644  2.1266 -1.2809
   81CHL1   H1B 8446   5.934   6.187   7.080  0.6458 -0.5732 -0.8853
   81CHL1    C2 8447   5.873   6.315   6.929 -0.4871 -0.0952 -1.2176
   81CHL1   H2A 8448   5.951   6.272   6.863  2.1616 -2.0404  2.7860
   81CHL1   H2B 8449   5.859   6.422   6.904  0.2360 -0.1181 -1.7305
   81CHL1   C20 8450   6.085   6.333   7.839 -0.1009  0.9078  0.1891
   81CHL1   H20 8451   6.166   6.389   7.787  0.1668 -0.4272 -0.8807
   81CHL1   C21 8452   6.144   6.209   7.914  0.4391  0.5249  0.0262
   81CHL1  H21A 8453   6.072   6.148   7.973  2.1311 -1.0523  0.5314
   81CHL1  H21B 8454   6.232   6.232   7.976 -0.3333  1.5671  0.7744
   81CHL1  H21C 8455   6.193   6.146   7.837 -0.0949 -1.2027  1.0506
   81CHL1   C22 8456   6.042   6.439   7.946  0.3203  0.2638 -0.2927
   81CHL1  H22A 8457   5.993   6.528   7.900 -0.0974 -0.0376 -0.4346
   81CHL1  H22B 8458   5.959   6.394   8.004  0.8317 -2.4375 -1.5117
   81CHL1   C23 8459   6.159   6.487   8.032  0.2152 -0.1781  0.3522
   81CHL1  H23A 8460   6.186   6.406   8.102  1.7943 -0.8846 -1.0113
   81CHL1  H23B 8461   6.245   6.503   7.964 -1.6199 -0.5223 -2.1951
   81CHL1   C24 8462   6.124   6.607   8.119 -0.0222  0.4080  0.4262
   81CHL1  H24A 8463   6.078   6.690   8.061 -0.2732  0.1372  0.2381
   81CHL1  H24B 8464   6.052   6.581   8.199  1.0663  1.2902  1.7422
   81CHL1   C25 8465   6.247   6.669   8.189 -0.5538 -0.2703  0.0667
   81CHL1   H25 8466   6.320   6.708   8.115  0.0424 -1.1709  0.1611
   81CHL1   C26 8467   6.205   6.787   8.277  0.6307  0.9970  0.0815
   81CHL1  H26A 8468   6.134   6.858   8.229  0.2327  0.2286 -0.4849
   81CHL1  H26B 8469   6.139   6.736   8.350  0.0040 -0.7546 -1.6418
   81CHL1  H26C 8470   6.290   6.840   8.325 -0.8778  1.1076  2.8674
   81CHL1   C27 8471   6.315   6.556   8.278  0.3997  0.2949  0.4925
   81CHL1  H27A 8472   6.242   6.532   8.358  0.3589 -0.2561  0.2924
   81CHL1  H27B 8473   6.353   6.469   8.220 -1.5299 -1.8148  2.2184
   81CHL1  H27C 8474   6.400   6.606   8.329 -0.0125  0.6498  0.8468
   82CHL1    C3 8475   1.801   2.638   7.017 -0.1636  0.2640  0.2808
   82CHL1    H3 8476   1.812   2.528   7.012 -4.3547 -0.2871 -0.5002
   82CHL1    O3 8477   1.814   2.662   6.881 -0.4359  0.3554  0.3209
   82CHL1   H3' 8478   1.745   2.610   6.838  0.2126 -0.2951  0.0563
   82CHL1    C4 8479   1.661   2.674   7.065 -0.6430  0.9690  0.1335
   82CHL1   H4A 8480   1.650   2.779   7.029  0.6639  0.8233 -0.8028
   82CHL1   H4B 8481   1.583   2.614   7.013  2.0096 -0.5817 -2.3881
   82CHL1    C5 8482   1.653   2.650   7.216 -0.2951 -0.1413 -0.1154
   82CHL1    C6 8483   1.557   2.570   7.268  1.0610  0.0667 -0.6007
   82CHL1    H6 8484   1.480   2.534   7.199 -0.8433  2.4701  0.1168
   82CHL1    C7 8485   1.535   2.537   7.411 -0.2341  0.1349  0.2967
   82CHL1   H7A 8486   1.437   2.578   7.441  0.2841  0.8743  1.0141
   82CHL1   H7B 8487   1.542   2.429   7.434 -1.6260 -0.0376 -0.0131
   82CHL1    C8 8488   1.633   2.618   7.502 -0.1673  0.6747  0.0194
   82CHL1    H8 8489   1.594   2.721   7.506  1.3446  1.2716  0.1295
   82CHL1   C14 8490   1.636   2.558   7.644 -1.3991 -0.6113  0.5223
   82CHL1   H14 8491   1.686   2.460   7.636 -1.3138 -0.4298 -2.3119
   82CHL1   C15 8492   1.503   2.533   7.709 -0.0443 -1.0107 -0.3117
   82CHL1  H15A 8493   1.450   2.622   7.668  1.3607 -0.3794 -0.8147
   82CHL1  H15B 8494   1.445   2.442   7.683  1.0649 -1.7112 -0.3796
   82CHL1   C16 8495   1.525   2.545   7.863 -0.3638 -0.2265  0.0714
   82CHL1  H16A 8496   1.457   2.621   7.907  1.6544  0.2672  2.6437
   82CHL1  H16B 8497   1.506   2.449   7.916  3.9005 -0.6044  1.2957
   82CHL1   C17 8498   1.677   2.579   7.885  0.4438  0.0243 -0.3610
   82CHL1   H17 8499   1.720   2.477   7.894 -1.5550 -0.8348  0.0291
   82CHL1   C13 8500   1.719   2.644   7.748  0.3129  0.3327 -0.4272
   82CHL1   C18 8501   1.663   2.788   7.753  0.1362  0.2153 -0.1033
   82CHL1  H18A 8502   1.721   2.862   7.811 -0.6996 -0.3013  1.4570
   82CHL1  H18B 8503   1.669   2.842   7.656  1.0200 -0.0869 -0.2301
   82CHL1  H18C 8504   1.556   2.786   7.783  0.9385 -0.0528  3.0273
   82CHL1   C12 8505   1.863   2.645   7.695  0.2531  0.1301  0.0997
   82CHL1  H12A 8506   1.930   2.712   7.753  0.8213 -1.8118  1.7968
   82CHL1  H12B 8507   1.901   2.543   7.713 -1.5459 -0.7453 -0.8374
   82CHL1   C11 8508   1.876   2.692   7.545  0.1129  0.1170  0.4798
   82CHL1  H11A 8509   1.867   2.802   7.553 -0.4978  0.1270 -0.2925
   82CHL1  H11B 8510   1.975   2.671   7.500 -0.8684 -0.5082 -1.4831
   82CHL1    C9 8511   1.776   2.628   7.448  0.1568 -0.2698  0.3183
   82CHL1    H9 8512   1.813   2.524   7.439 -0.2084 -0.4118  0.4383
   82CHL1   C10 8513   1.773   2.692   7.306 -0.4145  0.2628 -0.3823
   82CHL1   C19 8514   1.751   2.846   7.315  0.2672 -0.3484 -0.6707
   82CHL1  H19A 8515   1.666   2.872   7.381  1.2291  0.6368  0.2354
   82CHL1  H19B 8516   1.828   2.909   7.364 -0.4345 -1.2319  1.6934
   82CHL1  H19C 8517   1.730   2.896   7.218  0.0863 -0.6335 -0.7795
   82CHL1    C1 8518   1.915   2.671   7.245 -0.4319 -0.0217  0.7171
   82CHL1   H1A 8519   1.999   2.716   7.303 -0.5348 -1.3584  1.9680
   82CHL1   H1B 8520   1.940   2.563   7.242  1.9939  0.5188 -0.9779
   82CHL1    C2 8521   1.913   2.710   7.093 -0.3034  0.0142  0.1881
   82CHL1   H2A 8522   2.016   2.690   7.057 -0.0752 -0.1006  0.8801
   82CHL1   H2B 8523   1.897   2.819   7.082  4.3646  0.7432 -1.6173
   82CHL1   C20 8524   1.701   2.662   8.013 -0.0220  0.3172  0.5210
   82CHL1   H20 8525   1.645   2.757   8.006 -0.0622  0.2421 -0.2962
   82CHL1   C21 8526   1.848   2.715   8.038  0.0489  0.2791 -0.6369
   82CHL1  H21A 8527   1.864   2.802   7.970 -1.0027  1.5498  0.6613
   82CHL1  H21B 8528   1.927   2.638   8.025  0.5700  0.6017  0.4768
   82CHL1  H21C 8529   1.855   2.750   8.143 -1.0437 -0.0696 -0.4358
   82CHL1   C22 8530   1.645   2.590   8.143  0.0285 -0.2264  0.3796
   82CHL1  H22A 8531   1.567   2.516   8.113  0.9281 -0.3999 -1.7194
   82CHL1  H22B 8532   1.723   2.528   8.193 -0.6008  0.6248  2.5201
   82CHL1   C23 8533   1.590   2.698   8.233 -1.0169 -0.0284  0.2426
   82CHL1  H23A 8534   1.675   2.769   8.233 -0.4991 -0.3825 -3.8671
   82CHL1  H23B 8535   1.507   2.760   8.192  0.4097  0.8534 -1.4539
   82CHL1   C24 8536   1.548   2.642   8.372  0.0505 -0.3157  0.0074
   82CHL1  H24A 8537   1.492   2.728   8.415 -0.0089  0.3979 -1.4222
   82CHL1  H24B 8538   1.477   2.558   8.354  1.6205 -1.9376  1.0584
   82CHL1   C25 8539   1.664   2.595   8.468  0.3964 -0.7713  0.3055
   82CHL1   H25 8540   1.718   2.510   8.420 -0.7512 -0.1387 -2.2895
   82CHL1   C26 8541   1.754   2.719   8.496 -0.8169 -0.0985  0.2399
   82CHL1  H26A 8542   1.791   2.761   8.400 -1.6305  1.0480  0.4081
   82CHL1  H26B 8543   1.702   2.801   8.550 -0.8080  0.7502 -1.0128
   82CHL1  H26C 8544   1.846   2.702   8.556  0.8681  3.2076 -1.1884
   82CHL1   C27 8545   1.605   2.542   8.598  0.5763  0.0546 -0.2239
   82CHL1  H27A 8546   1.522   2.611   8.626 -2.4817 -2.1123 -3.0658
   82CHL1  H27B 8547   1.554   2.452   8.559 -0.9187  1.5896 -2.0146
   82CHL1  H27C 8548   1.678   2.520   8.678 -0.3354  0.9292  0.8765
   83CHL1    C3 8549   4.840   3.107   6.803  0.0421 -0.7208 -0.7432
   83CHL1    H3 8550   4.894   3.029   6.860 -1.0898  0.4037  2.0516
   83CHL1    O3 8551   4.777   3.047   6.693 -1.4824 -0.0976  0.3799
   83CHL1   H3' 8552   4.736   3.123   6.653 -0.1964  0.4690  0.1002
   83CHL1    C4 8553   4.734   3.167   6.896  0.7167  0.0254 -0.5767
   83CHL1   H4A 8554   4.674   3.240   6.838 -1.4297 -1.2654 -0.1376
   83CHL1   H4B 8555   4.657   3.091   6.923  1.2075 -0.9266 -1.7528
   83CHL1    C5 8556   4.791   3.227   7.019 -0.1614 -0.5553 -0.5980
   83CHL1    C6 8557   4.771   3.177   7.144  0.8555 -0.6026 -0.9688
   83CHL1    H6 8558   4.719   3.081   7.157 -1.3928  0.5679 -0.8066
   83CHL1    C7 8559   4.818   3.257   7.260  0.5936  0.4484 -0.4487
   83CHL1   H7A 8560   4.742   3.258   7.341  0.9690 -1.0233 -0.0493
   83CHL1   H7B 8561   4.905   3.198   7.295 -0.4238 -1.1568 -0.5497
   83CHL1    C8 8562   4.881   3.396   7.232 -0.2227 -0.1376 -0.0987
   83CHL1    H8 8563   4.804   3.474   7.213 -0.3204  0.2323  1.6337
   83CHL1   C14 8564   4.964   3.439   7.349  0.0158 -0.5162  0.1473
   83CHL1   H14 8565   5.029   3.350   7.363 -2.1275 -2.3756 -1.0977
   83CHL1   C15 8566   4.901   3.464   7.491  0.0343 -0.7957  0.5682
   83CHL1  H15A 8567   4.811   3.528   7.475  0.9311  0.5101  0.5265
   83CHL1  H15B 8568   4.882   3.367   7.541 -0.3341 -1.3028 -0.5212
   83CHL1   C16 8569   5.003   3.541   7.567 -0.7790 -0.5405 -0.2972
   83CHL1  H16A 8570   4.959   3.626   7.624 -0.7569 -0.6962 -0.0450
   83CHL1  H16B 8571   5.052   3.462   7.628 -0.5394 -1.3190 -1.4510
   83CHL1   C17 8572   5.114   3.586   7.472  0.4050 -0.0110  0.0273
   83CHL1   H17 8573   5.193   3.507   7.471 -0.7382 -1.1913 -0.6855
   83CHL1   C13 8574   5.046   3.571   7.336  0.3287  0.1927  0.4678
   83CHL1   C18 8575   4.956   3.697   7.309  0.4325 -0.3617 -0.5847
   83CHL1  H18A 8576   5.029   3.779   7.288  0.4672 -0.7749 -2.1793
   83CHL1  H18B 8577   4.890   3.689   7.220  0.1453  0.6189 -0.4716
   83CHL1  H18C 8578   4.905   3.723   7.404  1.7975  2.2868 -0.4771
   83CHL1   C12 8579   5.143   3.546   7.212 -1.0415 -0.6263 -0.2190
   83CHL1  H12A 8580   5.198   3.638   7.184 -1.0688  0.0586  1.8320
   83CHL1  H12B 8581   5.216   3.473   7.252 -0.8203  0.0178  0.5817
   83CHL1   C11 8582   5.067   3.501   7.084 -0.4543  0.3286 -0.3261
   83CHL1  H11A 8583   5.003   3.587   7.053 -0.9575  0.9497  2.2106
   83CHL1  H11B 8584   5.149   3.491   7.009  0.3040 -0.1219  0.5483
   83CHL1    C9 8585   4.975   3.378   7.111  0.6508 -0.2030 -0.6221
   83CHL1    H9 8586   5.035   3.289   7.138 -0.0536 -0.6632 -0.5578
   83CHL1   C10 8587   4.891   3.337   6.984 -0.2363 -0.1151 -0.2231
   83CHL1   C19 8588   4.808   3.455   6.941 -0.6498 -0.5312  0.3692
   83CHL1  H19A 8589   4.870   3.543   6.914  1.4765 -1.8200  0.7981
   83CHL1  H19B 8590   4.756   3.439   6.844 -0.3832  0.8426 -0.0231
   83CHL1  H19C 8591   4.732   3.493   7.012 -0.7322 -0.5194  0.2754
   83CHL1    C1 8592   4.994   3.288   6.876  0.5357  0.3582  0.0483
   83CHL1   H1A 8593   5.051   3.378   6.847 -0.3715  1.0150  0.2597
   83CHL1   H1B 8594   5.068   3.219   6.922  0.6922  0.3882 -0.1544
   83CHL1    C2 8595   4.932   3.218   6.754  0.2199 -0.4536 -0.3897
   83CHL1   H2A 8596   5.007   3.167   6.690  1.9990 -0.5002  1.6305
   83CHL1   H2B 8597   4.872   3.287   6.690  0.3001  1.9041  1.9464
   83CHL1   C20 8598   5.165   3.721   7.523 -0.2309 -0.0616  0.0882
   83CHL1   H20 8599   5.077   3.788   7.513  0.0687 -0.0855 -4.5593
   83CHL1   C21 8600   5.275   3.779   7.442  0.4353 -0.0216  0.1961
   83CHL1  H21A 8601   5.275   3.756   7.333 -1.8731  2.9710 -0.5945
   83CHL1  H21B 8602   5.371   3.737   7.477  0.2343  0.5167  1.4132
   83CHL1  H21C 8603   5.275   3.890   7.444  0.5097  0.0319 -1.3451
   83CHL1   C22 8604   5.206   3.712   7.670 -0.0346  0.5605  0.4058
   83CHL1  H22A 8605   5.113   3.698   7.730 -0.3326 -0.6169 -0.2961
   83CHL1  H22B 8606   5.269   3.622   7.686 -0.4951  0.2608  0.5542
   83CHL1   C23 8607   5.271   3.842   7.728 -0.1387 -0.5876 -0.4504
   83CHL1  H23A 8608   5.376   3.853   7.696  0.1902 -1.1949  0.3931
   83CHL1  H23B 8609   5.206   3.925   7.693  1.4841  2.1195  2.5011
   83CHL1   C24 8610   5.255   3.851   7.883  0.1090 -0.1826 -0.4265
   83CHL1  H24A 8611   5.146   3.843   7.905  0.5476 -1.6237  1.5234
   83CHL1  H24B 8612   5.307   3.762   7.925  0.6652 -0.6304 -1.9873
   83CHL1   C25 8613   5.315   3.976   7.959 -0.2761  1.0890  0.4477
   83CHL1   H25 8614   5.259   4.065   7.922 -0.1366  1.1622  0.4100
   83CHL1   C26 8615   5.290   3.983   8.108 -0.4184 -0.4480  0.2524
   83CHL1  H26A 8616   5.180   3.978   8.126 -0.4204 -1.5339  0.0293
   83CHL1  H26B 8617   5.342   3.896   8.154 -0.4445  0.0888  1.3345
   83CHL1  H26C 8618   5.342   4.075   8.142 -0.7149  0.0695 -0.6757
   83CHL1   C27 8619   5.468   3.985   7.928  0.5376 -0.3259 -0.4020
   83CHL1  H27A 8620   5.474   4.004   7.819  1.0075  3.3891  0.1297
   83CHL1  H27B 8621   5.516   4.075   7.972 -0.6858 -0.2904  0.9389
   83CHL1  H27C 8622   5.519   3.893   7.963 -0.0467 -0.8256 -0.8532
   84CHL1    C3 8623   6.506   6.147   6.814 -0.0840 -0.2228  0.1850
   84CHL1    H3 8624   6.616   6.129   6.815  0.3616  1.9501 -1.9698
   84CHL1    O3 8625   6.480   6.145   6.677 -0.2490  0.1488  0.1125
   84CHL1   H3' 8626   6.389   6.176   6.670 -1.1882 -2.5944 -5.3848
   84CHL1    C4 8627   6.426   6.036   6.887 -0.1323  0.0422  0.6875
   84CHL1   H4A 8628   6.318   6.056   6.870 -0.6334  1.1211  4.3050
   84CHL1   H4B 8629   6.448   5.937   6.842 -1.5779 -0.9018  1.9586
   84CHL1    C5 8630   6.462   6.041   7.027  0.4539 -0.5007 -0.4721
   84CHL1    C6 8631   6.534   5.945   7.080  0.2092  0.0262 -0.3997
   84CHL1    H6 8632   6.551   5.852   7.024  1.2618 -2.2098  3.3038
   84CHL1    C7 8633   6.581   5.941   7.222 -0.2913  0.1090  0.5438
   84CHL1   H7A 8634   6.576   5.846   7.278  0.7888 -0.3082 -0.0378
   84CHL1   H7B 8635   6.690   5.962   7.218 -0.1427 -0.7859 -1.2136
   84CHL1    C8 8636   6.507   6.045   7.307 -0.3118  0.4127 -0.6971
   84CHL1    H8 8637   6.401   6.015   7.322  0.1647 -0.9472  0.0966
   84CHL1   C14 8638   6.573   6.052   7.441 -0.4732  0.7837 -0.1042
   84CHL1   H14 8639   6.677   6.081   7.417 -0.6239  1.1031 -0.3983
   84CHL1   C15 8640   6.597   5.924   7.525 -0.2607  0.3184  0.7236
   84CHL1  H15A 8641   6.510   5.855   7.511 -0.3867  0.8154 -1.1848
   84CHL1  H15B 8642   6.677   5.860   7.482 -1.3108 -0.2182 -0.4961
   84CHL1   C16 8643   6.619   5.973   7.671  0.6604  0.1766 -0.5131
   84CHL1  H16A 8644   6.537   5.922   7.725  2.0997 -2.0109 -0.2658
   84CHL1  H16B 8645   6.712   5.940   7.722 -0.4749 -0.3729  1.2953
   84CHL1   C17 8646   6.596   6.130   7.666 -0.8852 -0.0572 -0.4544
   84CHL1   H17 8647   6.695   6.173   7.640 -1.3454  0.5292 -1.2839
   84CHL1   C13 8648   6.509   6.151   7.538 -0.1556  0.4361 -0.1294
   84CHL1   C18 8649   6.370   6.104   7.572  0.0154  0.7057 -0.1224
   84CHL1  H18A 8650   6.355   6.010   7.630  2.6410  0.6994  0.6366
   84CHL1  H18B 8651   6.304   6.182   7.616  0.4353  0.7175  0.4878
   84CHL1  H18C 8652   6.307   6.091   7.481 -1.8655 -0.3681  1.2525
   84CHL1   C12 8653   6.512   6.292   7.474  0.0510 -0.0890  0.1450
   84CHL1  H12A 8654   6.454   6.353   7.547 -0.2772 -0.5732  0.2879
   84CHL1  H12B 8655   6.614   6.337   7.475 -0.0162  0.1384 -1.3766
   84CHL1   C11 8656   6.444   6.290   7.330 -0.1388 -0.1356 -0.7577
   84CHL1  H11A 8657   6.333   6.291   7.345  0.0901 -0.7319  1.3479
   84CHL1  H11B 8658   6.466   6.387   7.281 -2.4859  0.8769  0.0282
   84CHL1    C9 8659   6.505   6.183   7.244  0.6714  0.1415  0.4327
   84CHL1    H9 8660   6.611   6.214   7.233  0.3000  0.8419 -1.6549
   84CHL1   C10 8661   6.441   6.175   7.103  0.6477 -0.8483 -0.1846
   84CHL1   C19 8662   6.284   6.176   7.109  0.4438  0.6720 -0.1956
   84CHL1  H19A 8663   6.260   6.284   7.110 -0.9215  0.3943 -0.5974
   84CHL1  H19B 8664   6.221   6.123   7.035  0.3460 -0.6899  0.8175
   84CHL1  H19C 8665   6.246   6.145   7.209 -0.2506  0.3627 -0.5540
   84CHL1    C1 8666   6.494   6.302   7.018 -0.6516  0.0652 -0.5203
   84CHL1   H1A 8667   6.447   6.392   7.063  0.1143 -0.2037  0.8733
   84CHL1   H1B 8668   6.605   6.306   7.031 -0.5278 -2.7945 -0.0203
   84CHL1    C2 8669   6.466   6.290   6.867  0.3541  0.0721  0.0529
   84CHL1   H2A 8670   6.534   6.363   6.818 -2.0436  1.7925 -0.8998
   84CHL1   H2B 8671   6.357   6.310   6.858  0.3977 -0.1935 -1.2404
   84CHL1   C20 8672   6.545   6.186   7.792  0.0944  0.2327  0.0766
   84CHL1   H20 8673   6.435   6.171   7.795  0.2565 -1.0819  2.4028
   84CHL1   C21 8674   6.575   6.334   7.805  0.3650  0.1936 -0.1840
   84CHL1  H21A 8675   6.617   6.378   7.713  0.8435  0.5138  0.1792
   84CHL1  H21B 8676   6.655   6.345   7.882 -0.0373  1.7782  0.0347
   84CHL1  H21C 8677   6.484   6.382   7.846  1.9408  1.3872  2.1394
   84CHL1   C22 8678   6.604   6.104   7.915  0.6536 -1.1927 -0.1633
   84CHL1  H22A 8679   6.582   5.996   7.900  0.9696 -1.0552 -1.9033
   84CHL1  H22B 8680   6.714   6.118   7.927  0.6748 -0.6117 -0.9934
   84CHL1   C23 8681   6.535   6.148   8.044 -0.4083  0.3270  0.1637
   84CHL1  H23A 8682   6.550   6.255   8.070 -2.1468  1.0254 -1.4697
   84CHL1  H23B 8683   6.428   6.138   8.018 -0.5570 -2.2309  1.4826
   84CHL1   C24 8684   6.584   6.084   8.180  0.0625 -0.3901 -0.2309
   84CHL1  H24A 8685   6.543   5.981   8.186 -0.2311 -0.2453  0.4344
   84CHL1  H24B 8686   6.694   6.072   8.176  0.4585 -0.1319  4.1680
   84CHL1   C25 8687   6.533   6.148   8.312  0.8660  0.3319  0.3160
   84CHL1   H25 8688   6.607   6.228   8.336  3.9108 -1.9878 -0.6940
   84CHL1   C26 8689   6.387   6.205   8.291  0.0438  0.6729 -0.4878
   84CHL1  H26A 8690   6.376   6.278   8.208  1.0901  1.5206  0.0929
   84CHL1  H26B 8691   6.318   6.125   8.259  0.4876 -0.3256  0.9505
   84CHL1  H26C 8692   6.340   6.236   8.387  0.3677 -1.7255  0.5074
   84CHL1   C27 8693   6.529   6.044   8.428 -0.4645 -0.2177 -0.6219
   84CHL1  H27A 8694   6.443   5.974   8.418 -0.5004  0.0176 -2.1561
   84CHL1  H27B 8695   6.622   5.985   8.437 -0.3584  0.1643  1.2690
   84CHL1  H27C 8696   6.522   6.093   8.528  1.1684 -2.4781  0.7111
   85CHL1    C3 8697   5.926   3.010   6.780 -0.0074 -0.3679  0.3181
   85CHL1    H3 8698   6.019   3.068   6.797 -0.9402  0.9821  1.0496
   85CHL1    O3 8699   5.914   2.988   6.643  0.2778  1.1076  0.2649
   85CHL1   H3' 8700   5.848   2.922   6.624  0.6646  0.5639  0.7867
   85CHL1    C4 8701   5.933   2.877   6.856  0.3835  0.3954 -0.0368
   85CHL1   H4A 8702   5.842   2.818   6.831 -0.1061  1.9785 -2.3304
   85CHL1   H4B 8703   6.015   2.822   6.804 -0.1127 -1.1636  0.7632
   85CHL1    C5 8704   5.947   2.895   7.002  0.1421  0.8151 -0.4215
   85CHL1    C6 8705   6.058   2.864   7.071  0.3489  0.3150 -0.3412
   85CHL1    H6 8706   6.130   2.801   7.017 -0.4909  1.0578 -2.4515
   85CHL1    C7 8707   6.085   2.885   7.220 -0.2464  0.4658  0.1175
   85CHL1   H7A 8708   6.116   2.791   7.271 -0.7681 -0.2592 -0.8770
   85CHL1   H7B 8709   6.169   2.955   7.240  1.2061 -0.0375 -3.4483
   85CHL1    C8 8710   5.957   2.930   7.299 -0.0470  0.1069  0.6783
   85CHL1    H8 8711   5.897   2.838   7.311  2.5241 -1.4316  3.0438
   85CHL1   C14 8712   5.994   2.985   7.433  0.0954  0.2169 -0.2153
   85CHL1   H14 8713   6.054   3.073   7.402 -0.4753  0.5358 -0.4045
   85CHL1   C15 8714   6.085   2.907   7.529 -0.1195  0.2634 -0.6838
   85CHL1  H15A 8715   6.071   2.797   7.524 -2.2888  0.5151 -0.8461
   85CHL1  H15B 8716   6.194   2.926   7.515 -0.2076  1.8413  0.6182
   85CHL1   C16 8717   6.051   2.959   7.669  0.5466 -0.1719  0.5496
   85CHL1  H16A 8718   6.015   2.883   7.741  0.7970 -0.1157  0.7352
   85CHL1  H16B 8719   6.140   3.014   7.708  0.1612  1.0459 -0.2330
   85CHL1   C17 8720   5.946   3.065   7.639 -0.6075 -0.2910 -0.2620
   85CHL1   H17 8721   5.995   3.159   7.605  0.4889  0.9827  4.1076
   85CHL1   C13 8722   5.873   3.020   7.512  0.0043 -0.4374 -0.2670
   85CHL1   C18 8723   5.782   2.903   7.539 -0.1906  1.0287  0.6196
   85CHL1  H18A 8724   5.695   2.935   7.600  0.4819  0.8422  1.7046
   85CHL1  H18B 8725   5.741   2.863   7.444 -0.1870  1.0040  0.6284
   85CHL1  H18C 8726   5.827   2.818   7.595 -1.7222  1.4664  2.6425
   85CHL1   C12 8727   5.807   3.135   7.432  0.0209 -0.4901 -0.5766
   85CHL1  H12A 8728   5.724   3.175   7.494  0.7814 -0.1520  0.2404
   85CHL1  H12B 8729   5.880   3.215   7.410  1.1924 -1.3222  0.1724
   85CHL1   C11 8730   5.759   3.085   7.298  0.3756 -0.7355 -0.2802
   85CHL1  H11A 8731   5.677   3.012   7.312 -0.9745  0.5857 -1.0844
   85CHL1  H11B 8732   5.706   3.165   7.243 -1.1401 -0.4627  1.4878
   85CHL1    C9 8733   5.875   3.028   7.212  0.2307 -1.0663 -0.9035
   85CHL1    H9 8734   5.952   3.107   7.202 -0.6880 -0.0671 -0.3927
   85CHL1   C10 8735   5.838   2.981   7.066 -0.2466  0.5379 -0.7115
   85CHL1   C19 8736   5.714   2.892   7.087 -0.2174  0.1916 -0.9726
   85CHL1  H19A 8737   5.634   2.954   7.132  0.9259  0.6125  0.5636
   85CHL1  H19B 8738   5.685   2.851   6.988 -1.3731 -2.0633  0.2130
   85CHL1  H19C 8739   5.730   2.812   7.162 -1.6084  0.6306 -0.1895
   85CHL1    C1 8740   5.815   3.112   6.982 -0.3508 -0.0400 -0.1986
   85CHL1   H1A 8741   5.718   3.157   7.010  0.1864  0.8336  0.3086
   85CHL1   H1B 8742   5.898   3.181   7.007 -1.4011  1.3141 -0.3518
   85CHL1    C2 8743   5.796   3.088   6.830  0.4803  0.3086  0.3456
   85CHL1   H2A 8744   5.782   3.181   6.771 -0.8792 -1.9586 -3.2398
   85CHL1   H2B 8745   5.709   3.025   6.801 -0.4744  0.0890  3.3432
   85CHL1   C20 8746   5.858   3.112   7.757  0.0364 -0.4159  0.0797
   85CHL1   H20 8747   5.774   3.171   7.716  2.3551  2.0589 -1.4283
   85CHL1   C21 8748   5.943   3.218   7.830  0.9436  0.0869 -0.5773
   85CHL1  H21A 8749   6.026   3.155   7.867  1.1473  0.3241 -0.6243
   85CHL1  H21B 8750   5.880   3.257   7.912  0.3176 -1.4083 -0.3297
   85CHL1  H21C 8751   5.993   3.294   7.766  1.9950 -2.1754 -2.5869
   85CHL1   C22 8752   5.801   3.003   7.859  0.1946 -0.1428  0.5641
   85CHL1  H22A 8753   5.742   2.921   7.813 -0.5379 -0.7590  2.5059
   85CHL1  H22B 8754   5.891   2.958   7.907  0.6775  2.3019  2.1614
   85CHL1   C23 8755   5.726   3.062   7.976  0.5195  0.0033 -0.2419
   85CHL1  H23A 8756   5.797   3.124   8.035 -1.1350  2.8314 -1.0085
   85CHL1  H23B 8757   5.639   3.122   7.940  0.2999 -0.8987 -1.2720
   85CHL1   C24 8758   5.678   2.961   8.078  0.5660 -0.1499 -0.0522
   85CHL1  H24A 8759   5.591   2.898   8.049 -0.1493  0.8951 -0.2614
   85CHL1  H24B 8760   5.762   2.889   8.084 -2.0754 -3.4549  0.4173
   85CHL1   C25 8761   5.667   3.006   8.219 -0.0507 -0.2917 -0.4318
   85CHL1   H25 8762   5.765   3.053   8.243 -0.2604 -0.0608 -0.0105
   85CHL1   C26 8763   5.556   3.109   8.227 -0.1109  0.4678 -0.6609
   85CHL1  H26A 8764   5.469   3.049   8.194  1.3303 -1.2179 -1.5214
   85CHL1  H26B 8765   5.558   3.150   8.330  1.0233  0.7243 -0.7748
   85CHL1  H26C 8766   5.570   3.199   8.163 -1.6650 -0.0337 -1.7779
   85CHL1   C27 8767   5.645   2.896   8.324  0.3710 -0.2925  0.3286
   85CHL1  H27A 8768   5.649   2.940   8.427  0.5341  1.0414 -0.2233
   85CHL1  H27B 8769   5.552   2.838   8.309 -0.2273  0.1639  2.0504
   85CHL1  H27C 8770   5.729   2.824   8.314 -0.8196 -1.6220 -0.2626
   86CHL1    C3 8771   0.298   0.867   6.762  0.0322  0.1308 -0.0004
   86CHL1    H3 8772   0.207   0.926   6.740 -0.2824 -1.2792 -3.0179
   86CHL1    O3 8773   0.373   0.835   6.650 -0.2528  0.1348 -0.1291
   86CHL1   H3' 8774   0.439   0.774   6.685 -0.0246  0.6657  0.3840
   86CHL1    C4 8775   0.389   0.949   6.858  0.1981 -0.1793 -0.3165
   86CHL1   H4A 8776   0.478   0.893   6.896 -0.7525 -1.5372  0.0014
   86CHL1   H4B 8777   0.417   1.043   6.807 -0.9859  0.7999  0.7782
   86CHL1    C5 8778   0.305   0.972   6.984 -0.0694  0.3290 -0.9837
   86CHL1    C6 8779   0.278   1.094   7.021  0.0387 -0.3497 -0.5125
   86CHL1    H6 8780   0.332   1.174   6.968  0.9910 -1.0153 -0.5568
   86CHL1    C7 8781   0.198   1.127   7.144  0.0004 -0.5109 -0.2541
   86CHL1   H7A 8782   0.236   1.216   7.197  0.6914 -0.8329 -0.1903
   86CHL1   H7B 8783   0.099   1.162   7.107  1.5856  3.0575 -1.5738
   86CHL1    C8 8784   0.186   1.006   7.239  0.3803 -0.0342  0.2061
   86CHL1    H8 8785   0.287   0.985   7.279  0.1232 -3.1490 -0.5205
   86CHL1   C14 8786   0.087   1.040   7.361 -0.5384  0.6158  0.9166
   86CHL1   H14 8787  -0.009   1.051   7.306  0.0929  0.2314 -0.2949
   86CHL1   C15 8788   0.112   1.171   7.429  0.4676  0.0615  0.0771
   86CHL1  H15A 8789   0.223   1.179   7.436  0.3662  0.7764  1.0468
   86CHL1  H15B 8790   0.068   1.245   7.359  1.9440  2.0286  1.1248
   86CHL1   C16 8791   0.030   1.155   7.561 -0.5376  0.0933 -0.6453
   86CHL1  H16A 8792   0.097   1.166   7.649  0.7997  1.5681 -1.7710
   86CHL1  H16B 8793  -0.051   1.231   7.563  2.7051  3.9031 -0.8574
   86CHL1   C17 8794  -0.021   1.001   7.556  0.3448 -0.7015  0.4461
   86CHL1   H17 8795  -0.126   1.013   7.520  0.0613  0.6475  1.6103
   86CHL1   C13 8796   0.069   0.930   7.457  0.1129  0.2721 -0.4854
   86CHL1   C18 8797   0.205   0.910   7.532 -0.5743 -0.5633  1.0196
   86CHL1  H18A 8798   0.282   0.891   7.453 -0.8077  2.7884 -0.1802
   86CHL1  H18B 8799   0.235   1.001   7.587 -2.5950  0.5368  0.4045
   86CHL1  H18C 8800   0.203   0.818   7.594  4.0037  0.3446  2.9351
   86CHL1   C12 8801   0.022   0.796   7.390 -0.4878  0.0451  0.4752
   86CHL1  H12A 8802   0.015   0.711   7.462  0.6000 -0.4149  0.0586
   86CHL1  H12B 8803  -0.080   0.818   7.352  0.2554  1.2281 -0.9139
   86CHL1   C11 8804   0.111   0.754   7.266  0.3028  1.1836  0.0546
   86CHL1  H11A 8805   0.206   0.705   7.297 -1.4226 -2.4717  0.0051
   86CHL1  H11B 8806   0.065   0.671   7.209 -0.1384  2.4747 -1.5462
   86CHL1    C9 8807   0.152   0.872   7.168  0.0777 -0.2088 -0.6492
   86CHL1    H9 8808   0.056   0.895   7.117  0.2295  1.8435 -0.0898
   86CHL1   C10 8809   0.255   0.843   7.059  0.1629 -0.2828  0.3916
   86CHL1   C19 8810   0.380   0.770   7.117  0.6061  0.1853  0.6304
   86CHL1  H19A 8811   0.362   0.670   7.161 -2.2829  0.2963 -0.0895
   86CHL1  H19B 8812   0.450   0.747   7.034 -0.4864 -0.1075 -0.2306
   86CHL1  H19C 8813   0.423   0.834   7.197 -0.7010  1.6402  0.2297
   86CHL1    C1 8814   0.184   0.743   6.958 -0.2568  0.2216 -0.8110
   86CHL1   H1A 8815   0.173   0.644   7.006  3.9500 -0.3412 -0.6082
   86CHL1   H1B 8816   0.084   0.787   6.937  0.3376  1.9917 -0.1418
   86CHL1    C2 8817   0.261   0.731   6.824 -0.2247  0.7428 -0.1575
   86CHL1   H2A 8818   0.193   0.669   6.763 -0.3175 -0.9345  1.5427
   86CHL1   H2B 8819   0.356   0.675   6.843 -1.5780 -1.8166 -0.4965
   86CHL1   C20 8820  -0.036   0.937   7.702  0.2189  0.3509 -0.9248
   86CHL1   H20 8821   0.063   0.925   7.750  0.6003 -1.8668 -2.0826
   86CHL1   C21 8822  -0.082   0.787   7.692  0.1789  0.7770 -0.4837
   86CHL1  H21A 8823  -0.005   0.717   7.653  0.7423 -0.2006  2.1808
   86CHL1  H21B 8824  -0.172   0.790   7.627  0.6074 -1.1518 -1.2249
   86CHL1  H21C 8825  -0.110   0.746   7.792 -1.2228  1.3620 -0.6073
   86CHL1   C22 8826  -0.139   1.023   7.788 -0.2574  0.5098  0.1538
   86CHL1  H22A 8827  -0.114   1.131   7.783 -1.5991  0.8180 -0.4472
   86CHL1  H22B 8828  -0.242   1.007   7.749 -0.4512  0.7238  0.5714
   86CHL1   C23 8829  -0.136   0.986   7.943 -0.2322 -0.0878  0.3464
   86CHL1  H23A 8830  -0.153   0.877   7.956 -1.3773  0.0834  0.4469
   86CHL1  H23B 8831  -0.032   1.000   7.977  0.0831 -0.9750 -0.2304
   86CHL1   C24 8832  -0.227   1.071   8.034 -0.3479  0.6540 -0.5591
   86CHL1  H24A 8833  -0.187   1.174   8.025  1.0728  0.1167 -0.6270
   86CHL1  H24B 8834  -0.326   1.060   7.985 -0.9033  2.5946  0.0377
   86CHL1   C25 8835  -0.244   1.027   8.185  0.4739 -0.8446  0.2045
   86CHL1   H25 8836  -0.312   0.939   8.184 -1.0469  0.3055 -0.6334
   86CHL1   C26 8837  -0.107   1.001   8.254  0.1232  0.2767  0.5792
   86CHL1  H26A 8838  -0.039   1.087   8.238  1.8955 -1.2309 -0.4662
   86CHL1  H26B 8839  -0.119   0.977   8.362  2.3890  0.7787  0.9978
   86CHL1  H26C 8840  -0.041   0.925   8.206 -0.9310 -0.6790  0.5784
   86CHL1   C27 8841  -0.326   1.139   8.255 -0.6029  0.9501 -0.1098
   86CHL1  H27A 8842  -0.384   1.100   8.340 -0.5756 -2.1360 -1.3797
   86CHL1  H27B 8843  -0.257   1.220   8.288  1.1011  0.4449 -2.2038
   86CHL1  H27C 8844  -0.392   1.189   8.181 -1.5288 -2.2140 -1.5678
   87CHL1    C3 8845   0.879   0.135   6.920 -1.5906 -0.0298 -0.5912
   87CHL1    H3 8846   0.874   0.243   6.893 -0.4196  0.3118  0.4863
   87CHL1    O3 8847   0.863   0.075   6.797  0.3865  0.5042  0.0159
   87CHL1   H3' 8848   0.875  -0.014   6.832 -1.2250 -0.5662 -1.9689
   87CHL1    C4 8849   1.018   0.102   6.988 -0.6678  0.1781  0.0851
   87CHL1   H4A 8850   1.031  -0.008   6.999  0.4149  0.5226  3.0103
   87CHL1   H4B 8851   1.104   0.134   6.926 -1.2986 -1.2000 -1.6035
   87CHL1    C5 8852   1.023   0.168   7.123  0.2022 -0.1097 -0.4255
   87CHL1    C6 8853   1.123   0.257   7.145 -0.4771 -0.7670 -0.2358
   87CHL1    H6 8854   1.193   0.258   7.061  0.0877 -2.3320  0.1779
   87CHL1    C7 8855   1.142   0.325   7.279 -0.0579  0.3080 -0.0183
   87CHL1   H7A 8856   1.246   0.345   7.312 -0.4152 -0.4417  1.6691
   87CHL1   H7B 8857   1.100   0.426   7.256  1.6551  1.2597  0.8281
   87CHL1    C8 8858   1.060   0.270   7.400  0.2252 -0.3524 -0.2120
   87CHL1    H8 8859   1.118   0.181   7.431  0.2406 -0.1993  0.2015
   87CHL1   C14 8860   1.052   0.368   7.517  0.6293 -0.1908  0.2065
   87CHL1   H14 8861   0.993   0.450   7.472  1.5500 -0.0334 -0.7459
   87CHL1   C15 8862   1.181   0.436   7.575 -0.2560 -0.0369  0.4520
   87CHL1  H15A 8863   1.239   0.345   7.599  1.0269 -0.3485 -3.2339
   87CHL1  H15B 8864   1.232   0.503   7.502  0.5248 -1.3501 -0.2422
   87CHL1   C16 8865   1.132   0.503   7.700 -0.2303  0.0774 -0.3663
   87CHL1  H16A 8866   1.210   0.490   7.778  0.4739 -2.4945 -1.3894
   87CHL1  H16B 8867   1.111   0.612   7.695  0.9513  0.2922 -0.8168
   87CHL1   C17 8868   0.993   0.435   7.735  0.1044 -0.5620  0.0746
   87CHL1   H17 8869   0.924   0.517   7.704  1.4579  1.1624  1.4349
   87CHL1   C13 8870   0.975   0.320   7.637  0.0337 -0.2221 -1.1677
   87CHL1   C18 8871   1.052   0.197   7.701  0.0921 -0.3660 -0.5606
   87CHL1  H18A 8872   1.084   0.123   7.624  1.5407  0.1208 -0.4707
   87CHL1  H18B 8873   1.147   0.228   7.751  0.0291 -0.3527 -0.4490
   87CHL1  H18C 8874   0.987   0.142   7.771  1.1297  0.5021  1.1540
   87CHL1   C12 8875   0.833   0.282   7.598 -0.2432  0.2402 -0.3584
   87CHL1  H12A 8876   0.781   0.226   7.678 -0.0817 -0.2960 -0.6303
   87CHL1  H12B 8877   0.773   0.375   7.585  1.2599  1.1253 -1.4016
   87CHL1   C11 8878   0.839   0.182   7.482 -0.8726  0.3960  0.2091
   87CHL1  H11A 8879   0.886   0.085   7.508 -2.0048 -0.4738 -0.8528
   87CHL1  H11B 8880   0.736   0.155   7.450  0.0433  0.5314 -3.2810
   87CHL1    C9 8881   0.924   0.231   7.360  0.3963 -0.2993 -0.2772
   87CHL1    H9 8882   0.873   0.324   7.325  1.0336 -0.4768 -1.7687
   87CHL1   C10 8883   0.918   0.141   7.228 -0.5783  0.6618  0.2103
   87CHL1   C19 8884   0.934  -0.006   7.279 -0.2848  0.1338 -0.3762
   87CHL1  H19A 8885   1.012  -0.002   7.358 -0.0839  2.1216 -0.6345
   87CHL1  H19B 8886   0.837  -0.046   7.314 -0.3678 -0.0023 -0.7503
   87CHL1  H19C 8887   0.968  -0.071   7.195  0.8373  1.7049 -1.1915
   87CHL1    C1 8888   0.778   0.163   7.153  0.1483  0.5435 -0.3638
   87CHL1   H1A 8889   0.693   0.130   7.216 -0.3221  0.8425 -0.8310
   87CHL1   H1B 8890   0.760   0.272   7.144 -0.9722  0.5703  1.5525
   87CHL1    C2 8891   0.764   0.090   7.017 -0.0148 -0.0927  0.0668
   87CHL1   H2A 8892   0.671   0.121   6.965 -0.5891 -1.1294  0.4443
   87CHL1   H2B 8893   0.757  -0.021   7.027  0.3036 -0.4431 -2.6186
   87CHL1   C20 8894   0.969   0.399   7.883 -0.5547 -0.3680 -0.4957
   87CHL1   H20 8895   1.022   0.305   7.907  2.3425  0.4861 -2.9451
   87CHL1   C21 8896   0.823   0.365   7.902  0.6762 -0.1776  0.1310
   87CHL1  H21A 8897   0.811   0.262   7.862  0.8847 -0.2550  0.2620
   87CHL1  H21B 8898   0.758   0.428   7.838 -0.7322 -0.4691  1.2222
   87CHL1  H21C 8899   0.802   0.372   8.011 -0.3766  0.3628 -0.0974
   87CHL1   C22 8900   1.010   0.513   7.982  0.0434 -0.8682 -0.7477
   87CHL1  H22A 8901   1.003   0.471   8.084  1.5611  0.0461 -0.2242
   87CHL1  H22B 8902   1.115   0.543   7.963 -0.1726 -0.6053 -1.5970
   87CHL1   C23 8903   0.942   0.648   7.971 -0.6887  0.6715  0.4009
   87CHL1  H23A 8904   0.940   0.682   7.866 -2.6735 -0.2690  0.0950
   87CHL1  H23B 8905   0.835   0.628   7.990 -0.4164 -1.2809  0.1015
   87CHL1   C24 8906   0.998   0.762   8.058  0.8504 -0.5875 -0.3769
   87CHL1  H24A 8907   1.105   0.787   8.043  1.2585 -1.5775  0.7618
   87CHL1  H24B 8908   0.937   0.853   8.037 -0.4167 -2.0503 -3.8021
   87CHL1   C25 8909   0.984   0.726   8.210  0.2001  0.1829  0.2098
   87CHL1   H25 8910   1.032   0.629   8.236 -2.3967 -1.7746 -1.6371
   87CHL1   C26 8911   1.053   0.834   8.297 -0.2088 -0.8670 -0.4380
   87CHL1  H26A 8912   0.993   0.927   8.285 -0.0033 -0.6381  0.2747
   87CHL1  H26B 8913   1.053   0.797   8.401  0.8009  1.4835  0.4786
   87CHL1  H26C 8914   1.160   0.848   8.267 -0.0660 -0.2337  0.3455
   87CHL1   C27 8915   0.839   0.711   8.255 -0.2289 -0.3009  0.0333
   87CHL1  H27A 8916   0.839   0.707   8.366 -1.5772  0.0615  0.0667
   87CHL1  H27B 8917   0.780   0.800   8.225  0.2314  0.1261  0.3753
   87CHL1  H27C 8918   0.796   0.616   8.216 -3.1915 -0.4954  3.2380
   88CHL1    C3 8919   5.573   5.264   6.842 -0.3988  0.3805  0.5317
   88CHL1    H3 8920   5.598   5.159   6.866 -1.1219  0.4416  1.6102
   88CHL1    O3 8921   5.535   5.271   6.700 -0.0630  0.1183  0.0967
   88CHL1   H3' 8922   5.474   5.200   6.680 -1.1296  0.9696  0.2604
   88CHL1    C4 8923   5.452   5.300   6.933 -0.1537  0.5265  0.1860
   88CHL1   H4A 8924   5.426   5.406   6.912  1.8651  1.3705  1.6001
   88CHL1   H4B 8925   5.365   5.234   6.912  0.0902 -0.2260  1.4509
   88CHL1    C5 8926   5.500   5.271   7.078  0.8206  1.1865  0.3574
   88CHL1    C6 8927   5.441   5.179   7.158 -0.0391 -0.7553 -0.2331
   88CHL1    H6 8928   5.349   5.129   7.125 -1.5469  0.8996  1.2509
   88CHL1    C7 8929   5.474   5.158   7.300 -0.2927 -1.0509  0.2565
   88CHL1   H7A 8930   5.385   5.162   7.366 -1.2487 -0.0188 -1.0196
   88CHL1   H7B 8931   5.539   5.068   7.311  1.0652 -0.2789 -1.0318
   88CHL1    C8 8932   5.552   5.283   7.358  0.6626 -0.1691 -0.3473
   88CHL1    H8 8933   5.476   5.359   7.384 -0.7323 -2.3119  2.2642
   88CHL1   C14 8934   5.606   5.242   7.495 -0.6765  0.2909  0.4179
   88CHL1   H14 8935   5.684   5.165   7.477  1.7432  2.3663  1.3929
   88CHL1   C15 8936   5.512   5.186   7.592  0.5847 -0.2239  0.2186
   88CHL1  H15A 8937   5.424   5.254   7.599  1.4687  1.3145 -2.2440
   88CHL1  H15B 8938   5.473   5.085   7.567  0.5507  0.3911 -2.5247
   88CHL1   C16 8939   5.591   5.188   7.725 -0.4268  0.0192  0.8951
   88CHL1  H16A 8940   5.521   5.227   7.801 -1.8786 -0.5560 -0.0881
   88CHL1  H16B 8941   5.613   5.080   7.742 -1.3893 -0.4226 -0.4520
   88CHL1   C17 8942   5.725   5.273   7.695  0.8350  1.2388  0.4326
   88CHL1   H17 8943   5.802   5.197   7.671 -1.6117 -1.5077  0.6028
   88CHL1   C13 8944   5.691   5.347   7.564  0.5361  0.0463 -0.3664
   88CHL1   C18 8945   5.603   5.474   7.595 -0.5349  0.4816  0.3552
   88CHL1  H18A 8946   5.571   5.540   7.512 -0.6585  2.3556  1.8020
   88CHL1  H18B 8947   5.505   5.451   7.642 -0.4001  0.9294  0.8837
   88CHL1  H18C 8948   5.652   5.552   7.659  0.2019  0.8713 -0.6471
   88CHL1   C12 8949   5.807   5.377   7.474 -0.0193  0.3563 -0.3859
   88CHL1  H12A 8950   5.876   5.451   7.518  0.9739 -1.7347  1.7891
   88CHL1  H12B 8951   5.858   5.280   7.457 -0.2496 -0.5590  3.4336
   88CHL1   C11 8952   5.764   5.429   7.333 -0.7148 -0.5104  0.5342
   88CHL1  H11A 8953   5.712   5.526   7.342  0.4946  0.1611  0.5441
   88CHL1  H11B 8954   5.856   5.444   7.271 -1.6002 -1.4023 -1.0588
   88CHL1    C9 8955   5.670   5.321   7.263  0.6132 -0.0826 -0.9382
   88CHL1    H9 8956   5.727   5.226   7.258 -0.9384 -1.2288  1.5405
   88CHL1   C10 8957   5.619   5.361   7.124 -0.0916 -1.2624 -0.0125
   88CHL1   C19 8958   5.571   5.508   7.135  1.2351  0.1481  0.3128
   88CHL1  H19A 8959   5.499   5.512   7.219  1.9120 -0.3040  0.9306
   88CHL1  H19B 8960   5.644   5.591   7.153  0.5205  1.2943 -1.7814
   88CHL1  H19C 8961   5.515   5.539   7.045  3.4257 -1.1154 -1.5894
   88CHL1    C1 8962   5.733   5.347   7.020  0.0369 -0.3079 -0.5082
   88CHL1   H1A 8963   5.804   5.425   7.054 -0.9198  0.2225  0.3297
   88CHL1   H1B 8964   5.789   5.252   7.032  3.5177  1.5025 -1.0647
   88CHL1    C2 8965   5.694   5.361   6.875  0.2553 -0.2463  0.5367
   88CHL1   H2A 8966   5.775   5.338   6.802 -0.8329  2.0544 -1.5444
   88CHL1   H2B 8967   5.661   5.465   6.857 -2.0914 -1.0488 -0.1443
   88CHL1   C20 8968   5.773   5.352   7.817 -0.9077  0.2037  0.0030
   88CHL1   H20 8969   5.684   5.403   7.861 -1.9353 -1.6764  0.1838
   88CHL1   C21 8970   5.894   5.451   7.783  0.4234  0.5089  0.2602
   88CHL1  H21A 8971   5.920   5.488   7.884 -1.2350 -1.6226  1.5826
   88CHL1  H21B 8972   5.851   5.534   7.723 -0.5830 -0.6388 -0.6561
   88CHL1  H21C 8973   5.974   5.394   7.731  1.0953  2.1841 -0.5852
   88CHL1   C22 8974   5.821   5.250   7.927  0.4158 -0.3101  0.1984
   88CHL1  H22A 8975   5.753   5.163   7.927 -1.2968  0.8697  3.4559
   88CHL1  H22B 8976   5.921   5.206   7.906  0.1330 -1.0641  0.4123
   88CHL1   C23 8977   5.816   5.297   8.077  0.3263 -0.2964 -0.4374
   88CHL1  H23A 8978   5.881   5.387   8.085 -1.0489  0.8205 -1.2839
   88CHL1  H23B 8979   5.713   5.334   8.097  0.2375  1.1409 -3.0757
   88CHL1   C24 8980   5.862   5.187   8.169  0.3523 -0.0820  0.0635
   88CHL1  H24A 8981   5.798   5.099   8.148  0.6670 -0.8110  1.9487
   88CHL1  H24B 8982   5.966   5.150   8.154  1.1313  0.8035  2.6671
   88CHL1   C25 8983   5.854   5.216   8.323  0.1486  0.1723 -0.4653
   88CHL1   H25 8984   5.746   5.218   8.349  0.4112 -0.0291  0.7165
   88CHL1   C26 8985   5.925   5.101   8.398 -0.0970  0.5092  0.7873
   88CHL1  H26A 8986   5.904   4.997   8.363  4.4106 -0.0658 -0.8137
   88CHL1  H26B 8987   6.035   5.112   8.389  0.1486 -2.1835 -0.7072
   88CHL1  H26C 8988   5.895   5.114   8.504 -1.7480  1.3258  0.2684
   88CHL1   C27 8989   5.923   5.343   8.376 -0.4339 -0.3155  0.3694
   88CHL1  H27A 8990   5.932   5.339   8.487 -0.0789 -1.3364  0.3160
   88CHL1  H27B 8991   6.030   5.354   8.349 -0.4220  1.1665  0.9073
   88CHL1  H27C 8992   5.865   5.424   8.328  0.6595 -1.5772 -3.4963
   89CHL1    C3 8993   2.666   1.791   6.948  0.2197 -0.6829 -0.3326
   89CHL1    H3 8994   2.619   1.692   6.965 -0.0827 -0.7453 -1.4613
   89CHL1    O3 8995   2.624   1.843   6.818  0.3651 -0.1594 -0.3687
   89CHL1   H3' 8996   2.674   1.925   6.818  0.4786 -0.1950 -1.7554
   89CHL1    C4 8997   2.622   1.893   7.050  0.3180  0.8591  0.3691
   89CHL1   H4A 8998   2.643   2.001   7.030 -0.2552  0.7304 -1.0294
   89CHL1   H4B 8999   2.512   1.881   7.048  0.6058 -2.6222 -1.3843
   89CHL1    C5 9000   2.673   1.868   7.186  0.1626 -0.1404  0.0658
   89CHL1    C6 9001   2.599   1.852   7.298 -0.2840  0.1929  0.6412
   89CHL1    H6 9002   2.491   1.862   7.286 -0.7124 -3.5794  0.0095
   89CHL1    C7 9003   2.651   1.820   7.434 -0.7457  0.1061 -0.0802
   89CHL1   H7A 9004   2.594   1.876   7.511 -0.2678 -0.4908  0.7315
   89CHL1   H7B 9005   2.646   1.713   7.465 -1.8827 -0.1254 -0.9753
   89CHL1    C8 9006   2.801   1.852   7.458 -0.3915 -0.1363  0.1778
   89CHL1    H8 9007   2.824   1.960   7.468 -1.7899  0.1599  0.4936
   89CHL1   C14 9008   2.848   1.770   7.579 -0.0340 -0.3782 -0.5601
   89CHL1   H14 9009   2.828   1.663   7.556  2.1200 -0.9508  0.0601
   89CHL1   C15 9010   2.775   1.802   7.712 -0.5968  0.6583  0.2523
   89CHL1  H15A 9011   2.790   1.911   7.728  1.3541  0.0584  3.2003
   89CHL1  H15B 9012   2.666   1.781   7.714 -0.5475 -0.3719 -2.8531
   89CHL1   C16 9013   2.868   1.737   7.813 -0.0657 -0.2324  0.5140
   89CHL1  H16A 9014   2.895   1.812   7.890  0.2331 -0.0825  0.2648
   89CHL1  H16B 9015   2.817   1.648   7.857  1.8202 -1.7151 -0.1704
   89CHL1   C17 9016   3.002   1.698   7.743 -0.6342  0.3571 -0.0092
   89CHL1   H17 9017   2.999   1.596   7.700  0.5857 -0.4643  1.7378
   89CHL1   C13 9018   2.997   1.776   7.607 -0.0545  0.9283 -0.3832
   89CHL1   C18 9019   3.040   1.918   7.646  0.4002 -0.3704  0.2340
   89CHL1  H18A 9020   3.023   1.980   7.555 -1.4225 -1.4764 -0.2218
   89CHL1  H18B 9021   2.993   1.964   7.735  0.0520 -1.8429  0.8368
   89CHL1  H18C 9022   3.150   1.913   7.661  0.2983  1.9460  2.4263
   89CHL1   C12 9023   3.075   1.719   7.485  0.1059 -0.2211 -0.4239
   89CHL1  H12A 9024   3.186   1.725   7.493 -0.0806  2.0505  2.6221
   89CHL1  H12B 9025   3.062   1.609   7.477 -1.5179 -0.1897  1.0208
   89CHL1   C11 9026   3.025   1.795   7.364 -0.9900 -0.3364  0.3130
   89CHL1  H11A 9027   3.057   1.902   7.370  3.1146 -1.4475  1.4828
   89CHL1  H11B 9028   3.087   1.751   7.282 -0.5063  1.5050 -0.3673
   89CHL1    C9 9029   2.872   1.793   7.335  0.0702 -0.5100 -0.1021
   89CHL1    H9 9030   2.852   1.684   7.323 -0.4055 -0.5227  0.7041
   89CHL1   C10 9031   2.827   1.850   7.199 -0.0106  0.0271  0.4397
   89CHL1   C19 9032   2.907   1.983   7.176  0.4465  0.4912 -0.2163
   89CHL1  H19A 9033   3.016   1.961   7.168 -0.2508 -3.2268 -1.7148
   89CHL1  H19B 9034   2.868   2.022   7.080 -1.0695 -0.2677  0.0475
   89CHL1  H19C 9035   2.889   2.052   7.261  0.8924  0.6909 -0.2847
   89CHL1    C1 9036   2.865   1.751   7.094 -0.1034  0.5340 -0.1135
   89CHL1   H1A 9037   2.976   1.743   7.104 -0.0882  0.8491 -0.0010
   89CHL1   H1B 9038   2.845   1.644   7.113 -0.4511  0.3597 -1.4141
   89CHL1    C2 9039   2.824   1.782   6.950  0.2967  0.0199  0.4336
   89CHL1   H2A 9040   2.861   1.695   6.891  0.7592  1.3837 -1.3643
   89CHL1   H2B 9041   2.876   1.871   6.909  3.1491 -1.7685 -0.1566
   89CHL1   C20 9042   3.130   1.690   7.833 -0.3553  0.2961  0.6122
   89CHL1   H20 9043   3.148   1.795   7.864 -0.2111  0.7754 -1.0260
   89CHL1   C21 9044   3.250   1.628   7.762 -0.0267  0.0695  0.0309
   89CHL1  H21A 9045   3.208   1.532   7.727 -0.1861 -0.0246  0.4747
   89CHL1  H21B 9046   3.334   1.597   7.828 -2.2867 -1.0903  2.5325
   89CHL1  H21C 9047   3.296   1.694   7.685  1.1264  0.0279  0.6641
   89CHL1   C22 9048   3.096   1.601   7.953 -0.1443 -0.2042 -0.1313
   89CHL1  H22A 9049   2.994   1.626   7.987  1.3208  3.9358  1.7503
   89CHL1  H22B 9050   3.113   1.497   7.916  1.0165 -0.3382  0.7001
   89CHL1   C23 9051   3.201   1.618   8.065 -0.2118 -0.2115 -0.0642
   89CHL1  H23A 9052   3.161   1.554   8.146  0.3249 -0.0312  0.3463
   89CHL1  H23B 9053   3.302   1.575   8.046 -0.5331 -0.9582 -0.1177
   89CHL1   C24 9054   3.219   1.765   8.118  0.2047 -0.6211  0.0863
   89CHL1  H24A 9055   3.261   1.831   8.039 -0.9224 -0.4403 -0.3817
   89CHL1  H24B 9056   3.111   1.788   8.130 -0.2850 -2.2825 -0.8463
   89CHL1   C25 9057   3.297   1.789   8.244  0.1291 -0.3462 -0.2600
   89CHL1   H25 9058   3.403   1.769   8.217  0.5072  2.5905 -1.3843
   89CHL1   C26 9059   3.305   1.940   8.280  0.4298 -0.1352 -0.6371
   89CHL1  H26A 9060   3.338   1.999   8.192  0.0608  1.0662  0.0079
   89CHL1  H26B 9061   3.210   1.972   8.328  0.5988  1.9095 -1.5491
   89CHL1  H26C 9062   3.388   1.959   8.351 -0.3071  4.2232 -0.6657
   89CHL1   C27 9063   3.247   1.708   8.363 -0.1348  0.2534  0.1747
   89CHL1  H27A 9064   3.261   1.598   8.352  1.7853  0.6482 -2.3201
   89CHL1  H27B 9065   3.293   1.750   8.455 -0.3387 -2.9012  1.8429
   89CHL1  H27C 9066   3.139   1.732   8.370  0.5177  4.0019 -0.3382
   90CHL1    C3 9067   2.659   2.750   6.757 -0.6373 -0.5854 -0.0533
   90CHL1    H3 9068   2.764   2.713   6.753 -0.7795 -0.8848 -1.2284
   90CHL1    O3 9069   2.630   2.811   6.632 -0.0435  0.3081  0.2517
   90CHL1   H3' 9070   2.654   2.740   6.572  0.4310  0.6401  0.0426
   90CHL1    C4 9071   2.561   2.642   6.802  0.3785 -0.5094  0.1029
   90CHL1   H4A 9072   2.466   2.698   6.813  1.8066  1.7154  2.0070
   90CHL1   H4B 9073   2.558   2.566   6.720 -1.8690 -1.5381  1.0642
   90CHL1    C5 9074   2.600   2.589   6.937  0.6577 -0.0545 -0.1191
   90CHL1    C6 9075   2.617   2.461   6.959  0.2817 -0.4505 -0.1636
   90CHL1    H6 9076   2.614   2.396   6.870  0.7515 -1.5298  0.5749
   90CHL1    C7 9077   2.651   2.407   7.095 -0.5513  0.3692  0.7356
   90CHL1   H7A 9078   2.591   2.314   7.105  0.4803 -0.6467 -1.6751
   90CHL1   H7B 9079   2.758   2.379   7.092 -0.7654 -0.4967  0.8438
   90CHL1    C8 9080   2.624   2.493   7.214  0.5604  0.4768 -0.2111
   90CHL1    H8 9081   2.515   2.505   7.231  0.4638 -0.0584 -0.4302
   90CHL1   C14 9082   2.697   2.437   7.336  0.0118  0.1613  0.1703
   90CHL1   H14 9083   2.803   2.422   7.306 -0.1722 -1.2269  0.1176
   90CHL1   C15 9084   2.644   2.298   7.380  0.2635  0.5111 -0.1162
   90CHL1  H15A 9085   2.533   2.305   7.380  0.0921 -1.2192 -1.7192
   90CHL1  H15B 9086   2.665   2.221   7.302 -1.7587 -0.5941  0.3779
   90CHL1   C16 9087   2.698   2.276   7.518  0.6439 -0.2001  0.2475
   90CHL1  H16A 9088   2.620   2.256   7.594 -1.4284  2.9175 -0.8686
   90CHL1  H16B 9089   2.784   2.204   7.518  0.0446 -1.0295 -2.2841
   90CHL1   C17 9090   2.753   2.416   7.557  0.1305  0.2549 -0.7915
   90CHL1   H17 9091   2.857   2.415   7.519  0.2661  0.9351 -0.4592
   90CHL1   C13 9092   2.682   2.521   7.457 -0.3121  0.1872  0.0275
   90CHL1   C18 9093   2.543   2.541   7.508 -0.1856 -0.1497 -0.3738
   90CHL1  H18A 9094   2.498   2.442   7.530  0.1237 -0.3660 -0.6974
   90CHL1  H18B 9095   2.547   2.600   7.602  1.4712 -0.1675 -0.3944
   90CHL1  H18C 9096   2.470   2.598   7.447 -0.9111  0.6032  1.1506
   90CHL1   C12 9097   2.766   2.651   7.422  0.8850  0.1951 -0.0304
   90CHL1  H12A 9098   2.758   2.711   7.515  0.2110 -0.4263  0.3196
   90CHL1  H12B 9099   2.876   2.640   7.408  1.0973  1.3858  0.5890
   90CHL1   C11 9100   2.698   2.721   7.308 -0.1119  0.4890 -0.0794
   90CHL1  H11A 9101   2.594   2.742   7.342 -0.6084 -0.6779 -0.7936
   90CHL1  H11B 9102   2.750   2.814   7.276  2.5310 -1.3042 -1.3141
   90CHL1    C9 9103   2.685   2.633   7.175  0.0299 -0.6442 -0.8242
   90CHL1    H9 9104   2.787   2.614   7.137 -1.0050 -0.8662 -3.7608
   90CHL1   C10 9105   2.615   2.693   7.053 -0.3254 -0.9086  0.0190
   90CHL1   C19 9106   2.474   2.741   7.088  0.2667 -0.5854 -0.9991
   90CHL1  H19A 9107   2.478   2.818   7.168  0.3257 -1.6196  0.0178
   90CHL1  H19B 9108   2.424   2.787   7.000  0.3724  0.6774 -0.4127
   90CHL1  H19C 9109   2.410   2.665   7.138 -0.1978 -0.7186 -1.7840
   90CHL1    C1 9110   2.706   2.798   7.009 -0.2929 -0.0551  0.4153
   90CHL1   H1A 9111   2.711   2.886   7.076  1.4815 -0.9665  1.5628
   90CHL1   H1B 9112   2.808   2.755   6.994 -0.1264 -0.7955  3.1182
   90CHL1    C2 9113   2.661   2.866   6.860  0.5287  0.5244  0.1735
   90CHL1   H2A 9114   2.734   2.946   6.838  2.1762 -0.7012  0.9660
   90CHL1   H2B 9115   2.564   2.918   6.876 -0.0375 -0.8688  1.6102
   90CHL1   C20 9116   2.759   2.431   7.713 -0.2802  0.3027  0.2740
   90CHL1   H20 9117   2.657   2.443   7.756 -0.2218 -3.3002  1.7641
   90CHL1   C21 9118   2.837   2.560   7.751 -0.0828  0.4730 -0.1221
   90CHL1  H21A 9119   2.792   2.653   7.709  0.7235  1.3009  0.7967
   90CHL1  H21B 9120   2.940   2.558   7.709  0.7076 -0.5333  1.7673
   90CHL1  H21C 9121   2.846   2.567   7.861 -3.2492  0.4264  0.2198
   90CHL1   C22 9122   2.823   2.310   7.792 -0.7705 -0.1233  0.4557
   90CHL1  H22A 9123   2.787   2.212   7.755  0.1290 -0.6121  0.8620
   90CHL1  H22B 9124   2.929   2.315   7.760 -1.0257  1.6757 -0.2492
   90CHL1   C23 9125   2.798   2.307   7.946 -0.7790  0.0189 -0.2927
   90CHL1  H23A 9126   2.810   2.408   7.991  1.6470  0.6974 -2.2680
   90CHL1  H23B 9127   2.692   2.276   7.958 -0.7976 -0.8764 -2.3229
   90CHL1   C24 9128   2.892   2.205   8.011  0.3404  1.0242 -0.1140
   90CHL1  H24A 9129   2.891   2.109   7.956 -0.7780  1.5836 -1.1206
   90CHL1  H24B 9130   2.995   2.248   8.002  0.8246 -0.3996 -2.1111
   90CHL1   C25 9131   2.865   2.162   8.159  0.9595 -0.2876  0.2498
   90CHL1   H25 9132   2.762   2.123   8.170 -0.1247  2.6716  1.6067
   90CHL1   C26 9133   2.960   2.045   8.197 -0.0937  0.1919 -0.6960
   90CHL1  H26A 9134   2.946   1.975   8.111  2.2670 -0.5464 -0.5294
   90CHL1  H26B 9135   3.068   2.070   8.193 -0.2965  0.9895 -1.6866
   90CHL1  H26C 9136   2.930   1.993   8.291 -1.5862 -1.5167 -2.0250
   90CHL1   C27 9137   2.883   2.266   8.262  0.3890 -0.0964  0.6982
   90CHL1  H27A 9138   2.989   2.297   8.260  0.4123 -0.1866  0.5139
   90CHL1  H27B 9139   2.818   2.354   8.241  0.3715 -1.0562 -4.6147
   90CHL1  H27C 9140   2.875   2.241   8.370 -0.8458  1.7299  1.0816
   91CHL1    C3 9141   1.335   4.626   6.875  0.5605 -0.3361 -0.1936
   91CHL1    H3 9142   1.293   4.529   6.841 -0.1548 -0.1359  0.1084
   91CHL1    O3 9143   1.357   4.708   6.763  0.2899 -0.1788 -0.0596
   91CHL1   H3' 9144   1.401   4.787   6.797 -0.4389  0.5854 -0.8486
   91CHL1    C4 9145   1.248   4.706   6.977  0.4740 -0.2748 -0.7091
   91CHL1   H4A 9146   1.311   4.789   7.016  0.4659 -0.0558 -1.1429
   91CHL1   H4B 9147   1.166   4.761   6.924 -0.4635  0.3155  1.2713
   91CHL1    C5 9148   1.211   4.636   7.105  0.0669  0.0482 -0.3593
   91CHL1    C6 9149   1.084   4.614   7.137 -0.7031  0.0682  1.2881
   91CHL1    H6 9150   1.002   4.653   7.075 -0.3234 -2.0172 -0.6746
   91CHL1    C7 9151   1.054   4.547   7.270 -0.2129  0.3111 -0.1918
   91CHL1   H7A 9152   0.986   4.613   7.327  1.5969  0.7737  1.5330
   91CHL1   H7B 9153   1.011   4.445   7.265  1.1913 -0.4836  2.2055
   91CHL1    C8 9154   1.174   4.530   7.366  0.8533 -0.5491  0.1164
   91CHL1    H8 9155   1.201   4.623   7.421 -0.6714 -0.7553  1.2583
   91CHL1   C14 9156   1.135   4.437   7.479  0.6766  0.7740  0.0923
   91CHL1   H14 9157   1.109   4.341   7.429  0.7878  0.1573  1.1748
   91CHL1   C15 9158   1.007   4.456   7.564  0.6297  0.0096  0.4686
   91CHL1  H15A 9159   0.997   4.558   7.607 -0.8969  1.2341 -2.4953
   91CHL1  H15B 9160   0.916   4.435   7.505  0.5824 -2.5627  1.3510
   91CHL1   C16 9161   1.031   4.344   7.673  0.1798 -0.3382 -0.3574
   91CHL1  H16A 9162   1.000   4.372   7.776  3.5464 -1.4694  1.1232
   91CHL1  H16B 9163   0.973   4.251   7.654  0.6997 -0.8270  0.3940
   91CHL1   C17 9164   1.179   4.297   7.661 -1.2660 -0.0877 -0.2780
   91CHL1   H17 9165   1.177   4.203   7.603  1.4051  0.0834 -0.7944
   91CHL1   C13 9166   1.252   4.393   7.566 -0.1452 -0.7593  0.3450
   91CHL1   C18 9167   1.303   4.515   7.647  0.3521  0.4026  0.0458
   91CHL1  H18A 9168   1.382   4.489   7.720 -1.1732  2.5135  2.6385
   91CHL1  H18B 9169   1.351   4.593   7.584  1.9712  0.3285  1.1335
   91CHL1  H18C 9170   1.228   4.564   7.712 -1.0044 -0.5242 -0.7642
   91CHL1   C12 9171   1.360   4.328   7.475  0.7067  0.0055 -0.1467
   91CHL1  H12A 9172   1.443   4.285   7.535 -1.7461 -2.9822  1.3780
   91CHL1  H12B 9173   1.318   4.239   7.425 -1.2234 -0.1908  1.6662
   91CHL1   C11 9174   1.405   4.423   7.366  0.1314  0.8049 -0.4065
   91CHL1  H11A 9175   1.460   4.495   7.429  0.6303  0.8269 -0.8618
   91CHL1  H11B 9176   1.465   4.358   7.298 -0.5331  0.5036 -0.7184
   91CHL1    C9 9177   1.295   4.483   7.285 -0.0501  0.6830 -0.0063
   91CHL1    H9 9178   1.245   4.402   7.227  1.2744  0.8036 -1.3808
   91CHL1   C10 9179   1.336   4.587   7.182  0.5742  0.2160  0.7398
   91CHL1   C19 9180   1.425   4.701   7.255  0.4783 -0.0400  0.3323
   91CHL1  H19A 9181   1.518   4.650   7.287  1.2895 -0.6892 -2.7347
   91CHL1  H19B 9182   1.446   4.784   7.183 -0.6377 -2.5762 -3.2040
   91CHL1  H19C 9183   1.360   4.737   7.337 -2.4083  0.0601 -1.8273
   91CHL1    C1 9184   1.438   4.519   7.082 -0.0118 -0.4723 -0.2974
   91CHL1   H1A 9185   1.534   4.503   7.134 -0.4383  0.7996  0.9407
   91CHL1   H1B 9186   1.391   4.422   7.056 -3.2920  1.2999 -1.6290
   91CHL1    C2 9187   1.469   4.601   6.950  0.9795  0.0153  0.3644
   91CHL1   H2A 9188   1.531   4.532   6.888 -1.1649 -1.6652 -0.0090
   91CHL1   H2B 9189   1.508   4.705   6.964  2.4900 -0.4775  0.0911
   91CHL1   C20 9190   1.238   4.261   7.798  0.1289  0.2574 -0.3237
   91CHL1   H20 9191   1.240   4.353   7.860 -0.2784 -1.0596  1.7764
   91CHL1   C21 9192   1.386   4.208   7.788  0.5071 -0.1911 -0.0650
   91CHL1  H21A 9193   1.407   4.179   7.893 -3.1960 -2.1126  0.3397
   91CHL1  H21B 9194   1.455   4.280   7.740  2.2738 -1.2697  0.7628
   91CHL1  H21C 9195   1.374   4.123   7.717 -1.7867  0.6604 -0.7798
   91CHL1   C22 9196   1.154   4.152   7.877  0.2721 -0.1412 -0.2652
   91CHL1  H22A 9197   1.044   4.163   7.871  0.2900 -0.6737 -2.6446
   91CHL1  H22B 9198   1.167   4.053   7.829  0.4371 -1.1968  1.8476
   91CHL1   C23 9199   1.180   4.136   8.034  0.0368  0.3081 -0.6236
   91CHL1  H23A 9200   1.289   4.119   8.045  0.2237  1.9826  0.6269
   91CHL1  H23B 9201   1.168   4.234   8.085  1.1314  1.2669 -2.1251
   91CHL1   C24 9202   1.100   4.025   8.101 -0.4810  0.4366  0.0003
   91CHL1  H24A 9203   0.990   4.037   8.090 -0.9583 -3.0974  0.0373
   91CHL1  H24B 9204   1.120   3.933   8.043 -2.2416 -0.4287  0.7063
   91CHL1   C25 9205   1.128   4.012   8.250 -0.6136 -0.0947  0.5593
   91CHL1   H25 9206   1.111   4.113   8.292  4.0731  1.3336 -0.4099
   91CHL1   C26 9207   1.045   3.901   8.316 -0.5104  0.3931  0.4471
   91CHL1  H26A 9208   1.061   3.898   8.426  3.9615  1.4902  0.0122
   91CHL1  H26B 9209   0.940   3.932   8.299 -0.1782  0.7890 -1.0560
   91CHL1  H26C 9210   1.067   3.800   8.277 -0.6168  1.1354 -1.6674
   91CHL1   C27 9211   1.276   3.984   8.280  0.1561  0.2552 -0.1119
   91CHL1  H27A 9212   1.303   3.995   8.387 -0.0429 -0.3339  0.0021
   91CHL1  H27B 9213   1.311   3.884   8.245 -0.3908 -0.3393  0.9920
   91CHL1  H27C 9214   1.346   4.061   8.240 -0.6244  0.8388 -0.3960
   92CHL1    C3 9215   5.729   5.732   6.721 -0.2874  0.7327  0.3784
   92CHL1    H3 9216   5.653   5.660   6.759  1.2167 -1.1020  0.0641
   92CHL1    O3 9217   5.687   5.757   6.589  0.6121  0.6269  0.1634
   92CHL1   H3' 9218   5.767   5.785   6.545  0.0293  3.3385  0.6767
   92CHL1    C4 9219   5.718   5.859   6.799 -0.2093 -0.5138  0.0314
   92CHL1   H4A 9220   5.785   5.932   6.750 -1.1776 -0.5091 -1.3550
   92CHL1   H4B 9221   5.611   5.890   6.798 -0.4775 -1.3376 -2.0987
   92CHL1    C5 9222   5.758   5.839   6.943  0.4432 -0.2973 -0.2916
   92CHL1    C6 9223   5.678   5.858   7.045  0.4563  0.2975  0.1431
   92CHL1    H6 9224   5.576   5.891   7.021  0.6318  0.3236 -0.6039
   92CHL1    C7 9225   5.714   5.855   7.192 -0.4389 -0.0119 -0.5046
   92CHL1   H7A 9226   5.669   5.946   7.238 -0.3870 -0.1052 -0.2698
   92CHL1   H7B 9227   5.665   5.765   7.235 -3.2495  2.2640  1.5054
   92CHL1    C8 9228   5.864   5.862   7.218 -0.2988  0.6141  0.7785
   92CHL1    H8 9229   5.909   5.963   7.209  1.3301 -0.0919  0.6958
   92CHL1   C14 9230   5.893   5.806   7.359  0.2554 -0.3559  0.4438
   92CHL1   H14 9231   5.857   5.701   7.367 -1.0914  0.0992  0.5326
   92CHL1   C15 9232   5.831   5.881   7.482 -0.4977  0.0263 -0.0832
   92CHL1  H15A 9233   5.839   5.990   7.459 -2.0545 -0.2019 -1.9944
   92CHL1  H15B 9234   5.726   5.845   7.490  0.2893 -2.5660 -0.5464
   92CHL1   C16 9235   5.915   5.828   7.602  0.3292  0.0336 -0.2306
   92CHL1  H16A 9236   5.943   5.907   7.675  0.0884 -0.5876  0.5518
   92CHL1  H16B 9237   5.866   5.754   7.669  0.8869 -0.2902 -0.1678
   92CHL1   C17 9238   6.041   5.754   7.540 -0.0430 -0.8049  1.0753
   92CHL1   H17 9239   6.011   5.647   7.540  2.0064 -1.4330  1.2527
   92CHL1   C13 9240   6.042   5.790   7.394  0.2457  0.5475  0.6192
   92CHL1   C18 9241   6.117   5.928   7.387  0.1161  0.0231  0.7050
   92CHL1  H18A 9242   6.227   5.912   7.387  0.3842  1.6868  0.2613
   92CHL1  H18B 9243   6.104   5.982   7.292 -1.7603  1.0790  1.5191
   92CHL1  H18C 9244   6.103   5.990   7.478  0.8720 -1.3058  1.7848
   92CHL1   C12 9245   6.093   5.685   7.290 -0.8889 -0.1367 -0.9291
   92CHL1  H12A 9246   6.201   5.658   7.301 -0.2028  0.5208 -4.6413
   92CHL1  H12B 9247   6.037   5.590   7.306 -3.9075  1.6546 -0.1915
   92CHL1   C11 9248   6.073   5.725   7.140 -0.0764  1.2706 -0.2948
   92CHL1  H11A 9249   6.144   5.805   7.112  2.1544 -0.5159 -0.0886
   92CHL1  H11B 9250   6.103   5.631   7.088 -0.3387 -0.5576  2.6448
   92CHL1    C9 9251   5.929   5.759   7.118  0.1012 -0.6912 -0.2410
   92CHL1    H9 9252   5.862   5.671   7.131 -0.4141 -0.1703  0.7399
   92CHL1   C10 9253   5.905   5.793   6.964  0.1515  0.5097 -0.0617
   92CHL1   C19 9254   6.012   5.897   6.921 -0.3514  0.1372 -0.0756
   92CHL1  H19A 9255   5.990   5.936   6.819  0.5867 -0.6983 -0.6209
   92CHL1  H19B 9256   6.013   5.986   6.987 -1.4932  1.0421 -1.2157
   92CHL1  H19C 9257   6.110   5.846   6.915 -0.1829  0.5052 -0.5325
   92CHL1    C1 9258   5.929   5.671   6.871 -0.2053  0.3856  0.5083
   92CHL1   H1A 9259   6.035   5.637   6.860 -1.5865 -3.8413 -2.1428
   92CHL1   H1B 9260   5.876   5.590   6.924 -3.8706  1.2254 -1.5207
   92CHL1    C2 9261   5.870   5.678   6.727 -0.2945  0.5307 -1.0955
   92CHL1   H2A 9262   5.865   5.572   6.691  0.3812 -0.3574  1.2468
   92CHL1   H2B 9263   5.934   5.742   6.663  0.8641  1.3227  0.7847
   92CHL1   C20 9264   6.163   5.758   7.641 -0.3000 -0.1610  0.0845
   92CHL1   H20 9265   6.190   5.865   7.654 -2.5023  0.0924  4.0639
   92CHL1   C21 9266   6.278   5.666   7.580  0.0661  0.3681 -0.0862
   92CHL1  H21A 9267   6.359   5.667   7.656  0.2095 -1.4703 -0.1675
   92CHL1  H21B 9268   6.320   5.697   7.483  2.2749 -0.6077  0.4998
   92CHL1  H21C 9269   6.237   5.562   7.582  1.3022 -0.1264  0.2497
   92CHL1   C22 9270   6.131   5.698   7.785 -0.3462  0.0985  0.5602
   92CHL1  H22A 9271   6.024   5.702   7.812 -0.6272 -2.0378 -0.0568
   92CHL1  H22B 9272   6.153   5.589   7.773  0.1004  0.4253 -2.5379
   92CHL1   C23 9273   6.222   5.741   7.891  0.0967 -0.0859 -0.6456
   92CHL1  H23A 9274   6.326   5.728   7.855  0.7254  1.4240  0.5299
   92CHL1  H23B 9275   6.215   5.850   7.909  0.6457 -0.2882  0.9931
   92CHL1   C24 9276   6.215   5.664   8.023  0.6793  0.4256 -0.3178
   92CHL1  H24A 9277   6.122   5.674   8.084  0.8581  0.5351 -0.0608
   92CHL1  H24B 9278   6.219   5.557   7.996 -1.8912 -0.1303  1.1718
   92CHL1   C25 9279   6.335   5.678   8.125  0.4572 -0.9264  0.3939
   92CHL1   H25 9280   6.419   5.718   8.065 -1.2839  1.4041 -0.6648
   92CHL1   C26 9281   6.316   5.798   8.221  0.1270  0.2828 -0.2100
   92CHL1  H26A 9282   6.224   5.778   8.281 -0.2292  0.9639 -0.5058
   92CHL1  H26B 9283   6.409   5.800   8.281 -0.6000  0.1455  0.9630
   92CHL1  H26C 9284   6.297   5.886   8.156 -1.2800  0.1937  0.0401
   92CHL1   C27 9285   6.372   5.552   8.191  0.1640  0.0147  0.2847
   92CHL1  H27A 9286   6.409   5.467   8.129 -1.2012  0.5271 -1.3160
   92CHL1  H27B 9287   6.452   5.563   8.267  1.4411 -0.7735 -0.8867
   92CHL1  H27C 9288   6.286   5.506   8.243  0.8868  0.2011  1.6763
   93CHL1    C3 9289   5.584   1.232   6.631 -0.0831 -0.8184 -0.2778
   93CHL1    H3 9290   5.523   1.139   6.636  0.7812 -1.3910 -0.0809
   93CHL1    O3 9291   5.636   1.230   6.501 -0.3052  0.1681 -0.1235
   93CHL1   H3' 9292   5.704   1.298   6.499 -2.6322  2.6092 -0.4714
   93CHL1    C4 9293   5.518   1.367   6.647 -0.3047  0.1715  0.7372
   93CHL1   H4A 9294   5.576   1.453   6.610 -0.3178 -0.3186 -0.4701
   93CHL1   H4B 9295   5.433   1.359   6.576  0.0102 -0.2284  0.4003
   93CHL1    C5 9296   5.470   1.380   6.794 -0.7000 -0.2824 -0.1195
   93CHL1    C6 9297   5.345   1.401   6.826  0.0205  0.1183 -0.4001
   93CHL1    H6 9298   5.283   1.414   6.736 -1.1992 -0.9854  0.2482
   93CHL1    C7 9299   5.292   1.428   6.965 -0.0202 -0.2546 -0.1763
   93CHL1   H7A 9300   5.230   1.520   6.967  0.6091  0.2386  2.9506
   93CHL1   H7B 9301   5.241   1.340   7.011  1.4570 -1.4347 -0.6911
   93CHL1    C8 9302   5.403   1.453   7.067  0.0439  0.6356 -0.6639
   93CHL1    H8 9303   5.441   1.556   7.047 -1.8746  1.9278  1.7392
   93CHL1   C14 9304   5.345   1.440   7.211  0.3592 -0.0635 -0.1350
   93CHL1   H14 9305   5.319   1.336   7.240 -2.7122  1.4234  3.3065
   93CHL1   C15 9306   5.233   1.531   7.257  0.0793 -0.5277 -0.1685
   93CHL1  H15A 9307   5.253   1.637   7.231 -1.6718 -0.1436 -0.0440
   93CHL1  H15B 9308   5.130   1.510   7.222 -1.2780  4.6524 -0.0616
   93CHL1   C16 9309   5.237   1.528   7.411  0.4851  0.0074  0.8718
   93CHL1  H16A 9310   5.225   1.624   7.465 -0.6277 -0.4227  1.4132
   93CHL1  H16B 9311   5.161   1.453   7.441  0.7984  0.1442  2.0923
   93CHL1   C17 9312   5.374   1.473   7.449 -0.5891 -0.0303 -0.3380
   93CHL1   H17 9313   5.353   1.370   7.485 -1.5303  1.0144  2.3185
   93CHL1   C13 9314   5.455   1.471   7.312 -0.0778 -0.1402  0.2905
   93CHL1   C18 9315   5.518   1.610   7.288 -0.4409  0.6671  0.2980
   93CHL1  H18A 9316   5.597   1.619   7.365 -1.0946  0.0319  1.0625
   93CHL1  H18B 9317   5.571   1.622   7.191  0.2502  1.3478  0.7504
   93CHL1  H18C 9318   5.452   1.700   7.295 -0.4280  0.6359  0.8832
   93CHL1   C12 9319   5.556   1.354   7.308 -0.0119  0.2858  0.6301
   93CHL1  H12A 9320   5.635   1.367   7.384 -1.3722  4.1731  1.5975
   93CHL1  H12B 9321   5.492   1.265   7.328 -0.0454 -0.8730 -3.6455
   93CHL1   C11 9322   5.622   1.344   7.167  0.4186 -0.0955 -0.4228
   93CHL1  H11A 9323   5.688   1.432   7.152  0.4364 -0.0086  0.1637
   93CHL1  H11B 9324   5.690   1.256   7.174  1.4075  0.6888 -0.0366
   93CHL1    C9 9325   5.518   1.341   7.053 -0.1803 -0.9445  0.3732
   93CHL1    H9 9326   5.460   1.248   7.041  0.6233 -1.2396 -1.6785
   93CHL1   C10 9327   5.581   1.356   6.908 -0.3736 -0.0172  0.6825
   93CHL1   C19 9328   5.682   1.474   6.894 -0.0887 -0.6301  0.4265
   93CHL1  H19A 9329   5.634   1.574   6.898 -0.7249 -0.9746  1.8323
   93CHL1  H19B 9330   5.765   1.466   6.967  0.5708  0.1788 -0.2069
   93CHL1  H19C 9331   5.734   1.475   6.795  0.7407  2.6720  0.7588
   93CHL1    C1 9332   5.664   1.232   6.873 -0.3081  0.0455 -0.1675
   93CHL1   H1A 9333   5.753   1.227   6.939  1.0244  1.0071 -1.8230
   93CHL1   H1B 9334   5.616   1.135   6.900  1.3687 -0.9732 -0.6791
   93CHL1    C2 9335   5.701   1.205   6.729 -0.0344  0.3206 -0.9327
   93CHL1   H2A 9336   5.747   1.105   6.719  1.1975  0.6879  0.7234
   93CHL1   H2B 9337   5.778   1.280   6.701  4.1746 -2.4931  1.8532
   93CHL1   C20 9338   5.438   1.547   7.573  0.7123  0.1053 -0.9698
   93CHL1   H20 9339   5.439   1.655   7.547  0.1986  0.8991  1.9889
   93CHL1   C21 9340   5.571   1.496   7.618 -0.5984 -0.7938 -0.0845
   93CHL1  H21A 9341   5.648   1.514   7.541 -1.0767  0.2492 -0.3456
   93CHL1  H21B 9342   5.565   1.389   7.645  0.8470 -0.2129  2.9542
   93CHL1  H21C 9343   5.611   1.557   7.702 -2.9242 -0.3785  0.8192
   93CHL1   C22 9344   5.343   1.548   7.701 -0.2357 -0.3342 -0.5247
   93CHL1  H22A 9345   5.237   1.572   7.677 -0.1452 -0.4537 -1.0501
   93CHL1  H22B 9346   5.338   1.446   7.744 -1.0828  0.0833  0.4222
   93CHL1   C23 9347   5.400   1.647   7.807 -0.1594 -0.2645 -0.4437
   93CHL1  H23A 9348   5.491   1.610   7.858 -0.9262  2.0516  2.9268
   93CHL1  H23B 9349   5.424   1.738   7.749  2.8976  0.6766  2.0117
   93CHL1   C24 9350   5.301   1.674   7.922  0.2800 -0.8779 -0.3866
   93CHL1  H24A 9351   5.210   1.724   7.881  1.0442 -0.0290 -1.0699
   93CHL1  H24B 9352   5.275   1.574   7.965 -1.8023 -0.2498 -0.0558
   93CHL1   C25 9353   5.362   1.779   8.025  0.8403  0.1558 -0.6254
   93CHL1   H25 9354   5.450   1.830   7.980  1.8875 -1.3768 -0.3773
   93CHL1   C26 9355   5.260   1.883   8.064  0.2154 -0.1011 -0.5161
   93CHL1  H26A 9356   5.222   1.938   7.975 -2.0813 -2.1006 -0.8926
   93CHL1  H26B 9357   5.172   1.821   8.094  1.3135 -2.2384 -1.5088
   93CHL1  H26C 9358   5.285   1.945   8.152 -1.5841 -0.6213  0.4019
   93CHL1   C27 9359   5.413   1.716   8.152 -0.8109  0.5975 -0.3664
   93CHL1  H27A 9360   5.444   1.782   8.235  0.7251 -1.3625  0.7232
   93CHL1  H27B 9361   5.337   1.646   8.193  1.2128 -0.9523  0.9872
   93CHL1  H27C 9362   5.498   1.649   8.128  0.7120  2.1814  0.4079
   94CHL1    C3 9363   0.156   6.272   6.799  0.5225  0.1495 -0.6169
   94CHL1    H3 9364   0.223   6.360   6.792 -1.8175  1.9532 -1.5793
   94CHL1    O3 9365   0.130   6.238   6.657 -0.0788  0.1379 -1.4258
   94CHL1   H3' 9366   0.085   6.153   6.661 -1.3933  0.8665 -0.2022
   94CHL1    C4 9367   0.236   6.152   6.873 -0.2846  0.3185 -0.1868
   94CHL1   H4A 9368   0.172   6.062   6.868  1.7738 -1.2957  0.9490
   94CHL1   H4B 9369   0.331   6.129   6.822  0.0928  1.1311  0.1314
   94CHL1    C5 9370   0.264   6.196   7.020 -0.7893 -0.6103  0.0282
   94CHL1    C6 9371   0.393   6.207   7.069 -0.5500 -0.5434 -0.2350
   94CHL1    H6 9372   0.482   6.175   7.013 -0.4250 -0.5818 -0.0155
   94CHL1    C7 9373   0.428   6.258   7.206 -0.2186 -0.2932  0.4036
   94CHL1   H7A 9374   0.517   6.206   7.246  2.0563  1.7915 -1.6608
   94CHL1   H7B 9375   0.459   6.364   7.200  0.1784 -0.3181  1.6257
   94CHL1    C8 9376   0.311   6.241   7.302  1.4897  0.2752 -0.1976
   94CHL1    H8 9377   0.294   6.132   7.319 -0.4873  0.1276 -2.5056
   94CHL1   C14 9378   0.328   6.311   7.434 -0.4907 -0.2316  0.6747
   94CHL1   H14 9379   0.326   6.420   7.412 -0.5876 -0.8999 -3.3382
   94CHL1   C15 9380   0.455   6.293   7.511  0.1939  0.2585 -0.4026
   94CHL1  H15A 9381   0.488   6.187   7.505 -2.5550 -0.8248  1.6782
   94CHL1  H15B 9382   0.539   6.352   7.468  0.6537 -1.4861 -2.0023
   94CHL1   C16 9383   0.430   6.329   7.655 -0.9932 -0.2551  0.1118
   94CHL1  H16A 9384   0.441   6.237   7.715  0.8164 -0.9170 -1.1786
   94CHL1  H16B 9385   0.500   6.403   7.700  0.5161 -1.5932  0.0221
   94CHL1   C17 9386   0.282   6.372   7.661 -0.6763  0.4519 -1.0937
   94CHL1   H17 9387   0.271   6.476   7.624 -1.9786  1.3968  1.6777
   94CHL1   C13 9388   0.220   6.307   7.536  0.2517 -0.7273 -0.3662
   94CHL1   C18 9389   0.184   6.157   7.568 -0.3083  0.1977  1.0678
   94CHL1  H18A 9390   0.269   6.106   7.619  0.3583 -0.3678 -0.5181
   94CHL1  H18B 9391   0.101   6.150   7.641 -1.1489 -1.1145  0.0502
   94CHL1  H18C 9392   0.152   6.093   7.483  0.5700  1.0874  0.0455
   94CHL1   C12 9393   0.096   6.378   7.470  0.2859 -0.2689 -0.4207
   94CHL1  H12A 9394   0.006   6.363   7.535  0.0838 -0.5598 -0.7651
   94CHL1  H12B 9395   0.113   6.486   7.450 -2.5587  0.2544 -0.4742
   94CHL1   C11 9396   0.058   6.314   7.334  0.5321  0.4859 -0.4047
   94CHL1  H11A 9397   0.022   6.213   7.363  0.8243  0.4036 -0.3320
   94CHL1  H11B 9398  -0.016   6.384   7.288  1.4897  1.2942 -0.7647
   94CHL1    C9 9399   0.182   6.303   7.241  0.6665  0.2864 -0.3530
   94CHL1    H9 9400   0.215   6.406   7.217 -1.6622  1.0309 -0.6405
   94CHL1   C10 9401   0.147   6.250   7.104  0.1070  0.4005 -0.0676
   94CHL1   C19 9402   0.061   6.124   7.125 -0.4295  0.0511  0.8389
   94CHL1  H19A 9403  -0.040   6.164   7.152 -0.8146  0.2033 -0.7374
   94CHL1  H19B 9404   0.042   6.067   7.032  2.6224 -3.5000  2.1917
   94CHL1  H19C 9405   0.110   6.069   7.208  2.5317  3.0464  1.3099
   94CHL1    C1 9406   0.077   6.356   7.015 -0.5792  0.1508 -0.1791
   94CHL1   H1A 9407  -0.010   6.390   7.076  1.1558  0.1475  2.4713
   94CHL1   H1B 9408   0.137   6.446   6.992 -1.2623  1.0345  1.3188
   94CHL1    C2 9409   0.025   6.312   6.875  0.1820 -0.9298  0.5653
   94CHL1   H2A 9410  -0.027   6.393   6.819  0.4809 -0.7573  0.5357
   94CHL1   H2B 9411  -0.041   6.223   6.877 -2.6643  0.9562 -1.6487
   94CHL1   C20 9412   0.229   6.362   7.803 -0.2654  0.1515  0.7916
   94CHL1   H20 9413   0.240   6.260   7.843 -1.1153  0.7208  2.5723
   94CHL1   C21 9414   0.076   6.394   7.807 -0.4164 -0.0245 -0.2654
   94CHL1  H21A 9415   0.062   6.504   7.797  0.2271  0.1881  1.0076
   94CHL1  H21B 9416   0.038   6.364   7.907  0.7579 -2.5541 -0.5172
   94CHL1  H21C 9417   0.021   6.344   7.725  2.0835  1.7291 -3.2070
   94CHL1   C22 9418   0.306   6.463   7.898 -0.4411  0.0231 -0.0091
   94CHL1  H22A 9419   0.412   6.432   7.912 -0.2459  1.0117  0.8367
   94CHL1  H22B 9420   0.319   6.564   7.855 -3.2387  0.3596 -0.2186
   94CHL1   C23 9421   0.242   6.486   8.037 -0.7719 -0.2165  0.0620
   94CHL1  H23A 9422   0.301   6.565   8.088 -0.9720 -0.2060  0.2810
   94CHL1  H23B 9423   0.148   6.544   8.028 -0.2988  0.8709  1.6412
   94CHL1   C24 9424   0.244   6.353   8.109  0.1218  0.6563 -0.4560
   94CHL1  H24A 9425   0.186   6.271   8.060  0.0230  0.5894 -0.2284
   94CHL1  H24B 9426   0.349   6.317   8.111 -0.2480 -0.6567 -2.0279
   94CHL1   C25 9427   0.185   6.346   8.251 -0.6664 -0.6697  0.6077
   94CHL1   H25 9428   0.205   6.245   8.293 -2.3876 -0.5624  1.8271
   94CHL1   C26 9429   0.254   6.448   8.348  0.8654 -0.7073 -0.5643
   94CHL1  H26A 9430   0.220   6.455   8.454  2.9478  2.0863  0.0621
   94CHL1  H26B 9431   0.364   6.432   8.341  1.2198  1.2497 -0.2491
   94CHL1  H26C 9432   0.253   6.550   8.303  1.0565 -1.1932 -1.7035
   94CHL1   C27 9433   0.031   6.379   8.244  0.5274 -0.3239 -0.3173
   94CHL1  H27A 9434  -0.032   6.310   8.185  1.2153  0.5668 -2.1728
   94CHL1  H27B 9435  -0.001   6.355   8.348  0.9455  0.8877  0.1089
   94CHL1  H27C 9436   0.018   6.487   8.219  0.4294 -0.5651 -1.3519
   95CHL1    C3 9437   5.596   4.724   6.659 -0.0529 -0.5511  0.5184
   95CHL1    H3 9438   5.695   4.682   6.630  1.4533  3.5073 -0.9188
   95CHL1    O3 9439   5.504   4.736   6.556 -0.0728  0.4104 -0.1715
   95CHL1   H3' 9440   5.416   4.728   6.592 -0.2097 -1.3283 -0.8038
   95CHL1    C4 9441   5.530   4.642   6.763  0.4011 -0.1922  0.2635
   95CHL1   H4A 9442   5.420   4.659   6.767 -0.1778 -3.6163  2.3468
   95CHL1   H4B 9443   5.525   4.537   6.727  1.3266 -0.6412  1.3994
   95CHL1    C5 9444   5.594   4.637   6.897 -0.0404 -0.2964 -0.0604
   95CHL1    C6 9445   5.634   4.519   6.959  0.3999 -0.3005 -0.2472
   95CHL1    H6 9446   5.597   4.423   6.920 -1.9962 -0.7683  2.7156
   95CHL1    C7 9447   5.684   4.515   7.099 -1.1168  0.0936 -0.6497
   95CHL1   H7A 9448   5.624   4.451   7.168  1.7433  0.7990  2.7617
   95CHL1   H7B 9449   5.790   4.482   7.101 -1.2368 -0.2621  0.0791
   95CHL1    C8 9450   5.674   4.654   7.177 -0.4077  1.1923 -0.2136
   95CHL1    H8 9451   5.566   4.671   7.195 -1.1857 -2.5417 -0.6453
   95CHL1   C14 9452   5.764   4.644   7.300  0.9003 -0.9069  0.7665
   95CHL1   H14 9453   5.866   4.631   7.258 -0.5587 -1.1424 -3.0503
   95CHL1   C15 9454   5.739   4.535   7.397  0.4712 -0.1497  0.8043
   95CHL1  H15A 9455   5.631   4.548   7.422  0.6787  0.2379  1.5274
   95CHL1  H15B 9456   5.767   4.431   7.371  3.1049  0.7845 -0.3662
   95CHL1   C16 9457   5.809   4.582   7.526  0.0164 -0.4879 -0.0513
   95CHL1  H16A 9458   5.735   4.575   7.608  1.5132  3.0558  1.8011
   95CHL1  H16B 9459   5.898   4.520   7.548  0.0310 -0.7718 -0.8386
   95CHL1   C17 9460   5.853   4.727   7.503 -0.8019  0.6246 -0.5255
   95CHL1   H17 9461   5.958   4.735   7.466 -0.4205  0.7192  0.5303
   95CHL1   C13 9462   5.770   4.775   7.380  0.6540 -0.0955  0.2114
   95CHL1   C18 9463   5.628   4.819   7.423  0.1558 -0.3109 -0.1921
   95CHL1  H18A 9464   5.577   4.762   7.504 -2.8755  2.9020  0.4118
   95CHL1  H18B 9465   5.633   4.920   7.468  0.8925 -0.7810  0.8148
   95CHL1  H18C 9466   5.558   4.829   7.337 -1.1407  1.7711  1.0272
   95CHL1   C12 9467   5.832   4.883   7.285 -0.2065 -0.8185  0.5695
   95CHL1  H12A 9468   5.833   4.981   7.338 -0.8109  0.4849 -1.6649
   95CHL1  H12B 9469   5.936   4.850   7.267 -0.1352 -0.6906  0.7466
   95CHL1   C11 9470   5.752   4.897   7.155  0.5191 -0.4315  0.0113
   95CHL1  H11A 9471   5.651   4.942   7.167  0.9264 -0.0377  2.7268
   95CHL1  H11B 9472   5.801   4.966   7.083 -0.7603 -0.4799 -0.9328
   95CHL1    C9 9473   5.715   4.767   7.079 -0.4421 -0.0751  0.3220
   95CHL1    H9 9474   5.808   4.732   7.030 -0.6904 -0.4220  0.0987
   95CHL1   C10 9475   5.621   4.784   6.954 -0.3200  0.0131 -0.8054
   95CHL1   C19 9476   5.483   4.844   6.993 -0.3189  0.5489  0.2297
   95CHL1  H19A 9477   5.412   4.836   6.907 -0.3471  0.0714  0.2914
   95CHL1  H19B 9478   5.443   4.799   7.086 -1.5616  1.7507  0.3128
   95CHL1  H19C 9479   5.500   4.951   7.017 -0.6889  0.8073 -0.6135
   95CHL1    C1 9480   5.691   4.871   6.847  0.7370  0.5071  0.1679
   95CHL1   H1A 9481   5.697   4.977   6.878  1.6275 -0.4957  3.9732
   95CHL1   H1B 9482   5.795   4.832   6.841  1.0092  1.4123 -1.4473
   95CHL1    C2 9483   5.625   4.869   6.712  0.0045 -0.1515 -0.4306
   95CHL1   H2A 9484   5.687   4.924   6.638  1.2599  0.9168  1.3472
   95CHL1   H2B 9485   5.534   4.933   6.705  0.5065  0.3802 -3.3191
   95CHL1   C20 9486   5.848   4.808   7.630 -0.0665 -0.2106  0.2319
   95CHL1   H20 9487   5.744   4.810   7.668 -0.8002 -0.4265 -1.6608
   95CHL1   C21 9488   5.891   4.955   7.598  0.2295  0.4016 -0.7169
   95CHL1  H21A 9489   5.803   5.005   7.553  0.5254 -0.5275 -2.4389
   95CHL1  H21B 9490   5.970   4.964   7.520  0.2027 -1.8817 -1.0961
   95CHL1  H21C 9491   5.924   5.017   7.684 -0.1842 -1.2033  0.6572
   95CHL1   C22 9492   5.945   4.771   7.743 -0.0967 -0.0625 -0.7358
   95CHL1  H22A 9493   5.931   4.663   7.766 -2.3720  0.6162  1.6059
   95CHL1  H22B 9494   6.051   4.793   7.715 -0.7264  4.7474 -0.1921
   95CHL1   C23 9495   5.921   4.835   7.884 -0.1950  0.3476  0.0385
   95CHL1  H23A 9496   5.920   4.946   7.881  2.0125  0.4017 -1.2445
   95CHL1  H23B 9497   5.819   4.804   7.914 -0.2848 -0.4251 -1.0234
   95CHL1   C24 9498   6.012   4.778   7.992  0.4457  0.1627 -0.1263
   95CHL1  H24A 9499   5.994   4.669   7.979 -1.1286  0.6923 -3.6930
   95CHL1  H24B 9500   6.121   4.798   7.982  1.0582 -1.5509  2.2732
   95CHL1   C25 9501   5.979   4.816   8.141 -0.1286 -0.4455  0.2257
   95CHL1   H25 9502   5.981   4.927   8.135  1.7301 -0.4427  0.3273
   95CHL1   C26 9503   5.846   4.752   8.184  0.5487  0.6389 -0.2188
   95CHL1  H26A 9504   5.776   4.753   8.098  4.2239 -2.4268 -3.6908
   95CHL1  H26B 9505   5.866   4.649   8.221  1.3081  0.7459 -0.3039
   95CHL1  H26C 9506   5.800   4.803   8.272  0.3629 -1.9725  1.2875
   95CHL1   C27 9507   6.074   4.782   8.255 -0.7920 -0.2168 -0.2883
   95CHL1  H27A 9508   6.175   4.821   8.229 -1.0258  1.5135  1.2420
   95CHL1  H27B 9509   6.053   4.840   8.347  2.3064 -1.2861  1.2268
   95CHL1  H27C 9510   6.078   4.677   8.291  1.0257  0.4806  1.7757
   96CHL1    C3 9511   6.280   2.358   6.711  0.5494 -0.9366  0.2760
   96CHL1    H3 9512   6.389   2.369   6.691  0.8479 -1.0615  1.7456
   96CHL1    O3 9513   6.198   2.327   6.598 -0.0943 -0.4435 -0.2281
   96CHL1   H3' 9514   6.221   2.240   6.562 -0.4438 -0.2214 -1.0208
   96CHL1    C4 9515   6.266   2.247   6.815  0.5191 -0.5451  0.5030
   96CHL1   H4A 9516   6.156   2.230   6.818  0.1178  0.8841 -2.1848
   96CHL1   H4B 9517   6.305   2.154   6.770 -1.1725 -0.6165 -0.9494
   96CHL1    C5 9518   6.333   2.281   6.950 -1.1786 -0.2206  0.5397
   96CHL1    C6 9519   6.428   2.197   7.003 -1.1404  0.0030  0.3477
   96CHL1    H6 9520   6.469   2.114   6.943  2.6928  0.2764  2.3270
   96CHL1    C7 9521   6.485   2.217   7.138 -0.7614  0.2748 -0.9597
   96CHL1   H7A 9522   6.490   2.120   7.192  0.3901  1.2273  0.7459
   96CHL1   H7B 9523   6.588   2.258   7.136 -0.6442  0.1703  1.0213
   96CHL1    C8 9524   6.399   2.319   7.224 -0.2363 -0.1775  0.2144
   96CHL1    H8 9525   6.312   2.253   7.245 -0.0997 -0.4215  0.0199
   96CHL1   C14 9526   6.482   2.348   7.348 -0.2694 -0.2908 -1.0923
   96CHL1   H14 9527   6.564   2.411   7.307  0.9975 -0.9398  0.3605
   96CHL1   C15 9528   6.522   2.237   7.433  0.0599 -0.1379 -0.6448
   96CHL1  H15A 9529   6.460   2.147   7.452  0.9186 -0.9865 -1.7162
   96CHL1  H15B 9530   6.616   2.192   7.395  1.4190  2.4940 -0.6306
   96CHL1   C16 9531   6.553   2.303   7.568 -0.2961 -0.1770 -0.3647
   96CHL1  H16A 9532   6.496   2.254   7.650  0.7145  0.5275  0.7894
   96CHL1  H16B 9533   6.660   2.301   7.597 -0.2026  1.6350 -0.4639
   96CHL1   C17 9534   6.503   2.452   7.565 -0.0271  0.2259 -0.2559
   96CHL1   H17 9535   6.602   2.497   7.540  1.0192 -1.5646  0.4627
   96CHL1   C13 9536   6.416   2.454   7.440 -0.9109  1.0110  0.2742
   96CHL1   C18 9537   6.284   2.388   7.486 -0.7952 -0.0310 -0.8007
   96CHL1  H18A 9538   6.284   2.291   7.540 -2.2945  0.6935  0.6304
   96CHL1  H18B 9539   6.235   2.463   7.553 -2.1351 -1.4004 -0.2025
   96CHL1  H18C 9540   6.211   2.370   7.404 -0.8924 -1.2785 -0.4627
   96CHL1   C12 9541   6.387   2.586   7.361  0.1228  0.8372 -0.7543
   96CHL1  H12A 9542   6.320   2.655   7.416 -1.2962 -1.4687  0.5551
   96CHL1  H12B 9543   6.481   2.641   7.340 -0.0022  0.7952 -1.4514
   96CHL1   C11 9544   6.306   2.567   7.236  0.4205  0.2218  0.0765
   96CHL1  H11A 9545   6.199   2.553   7.265 -0.2452 -0.8470 -2.6219
   96CHL1  H11B 9546   6.305   2.662   7.179 -0.3311  0.9259  1.2172
   96CHL1    C9 9547   6.366   2.449   7.147 -0.2685  0.0878 -0.2979
   96CHL1    H9 9548   6.463   2.493   7.117  0.1152 -0.2332  0.4325
   96CHL1   C10 9549   6.282   2.405   7.020  0.4252 -0.3759  0.0618
   96CHL1   C19 9550   6.135   2.386   7.065 -0.3204  0.2914  0.2466
   96CHL1  H19A 9551   6.084   2.480   7.098 -0.2320 -0.0450  1.3637
   96CHL1  H19B 9552   6.067   2.346   6.987  0.5528 -1.7959  0.5154
   96CHL1  H19C 9553   6.121   2.324   7.156 -0.9905 -1.6789 -1.1343
   96CHL1    C1 9554   6.291   2.515   6.911  0.4486 -0.8812  0.2328
   96CHL1   H1A 9555   6.233   2.602   6.949  0.5827 -1.3231  1.4977
   96CHL1   H1B 9556   6.401   2.533   6.909  0.2925  0.1337 -1.1586
   96CHL1    C2 9557   6.239   2.493   6.770 -0.1871 -0.0355  0.4277
   96CHL1   H2A 9558   6.270   2.573   6.700  1.0619 -0.1991  0.7617
   96CHL1   H2B 9559   6.128   2.483   6.770 -0.0075 -3.3711  0.9603
   96CHL1   C20 9560   6.459   2.508   7.694  0.0288 -0.4024  0.4253
   96CHL1   H20 9561   6.375   2.452   7.740  0.2320  0.0351  1.3342
   96CHL1   C21 9562   6.406   2.653   7.672  0.0345  0.3370 -0.5907
   96CHL1  H21A 9563   6.307   2.656   7.622 -0.4522  3.5791  0.3141
   96CHL1  H21B 9564   6.488   2.711   7.624  0.1660  1.6396  1.1207
   96CHL1  H21C 9565   6.396   2.712   7.765  0.9897 -0.6511  0.1654
   96CHL1   C22 9566   6.571   2.525   7.801 -0.3133 -0.2622  0.2101
   96CHL1  H22A 9567   6.637   2.436   7.802  0.6201  0.4266  1.6217
   96CHL1  H22B 9568   6.628   2.612   7.762 -1.3630 -0.2553 -1.4285
   96CHL1   C23 9569   6.522   2.543   7.941  0.6397 -0.2552 -0.1879
   96CHL1  H23A 9570   6.483   2.647   7.950  2.0152  0.3891 -1.2971
   96CHL1  H23B 9571   6.441   2.468   7.945 -0.7663  1.2554  0.9554
   96CHL1   C24 9572   6.624   2.515   8.059  0.1009  0.2127 -0.3552
   96CHL1  H24A 9573   6.671   2.415   8.045 -0.8450 -0.1172 -1.2840
   96CHL1  H24B 9574   6.691   2.604   8.061 -0.7894  0.9341  2.4346
   96CHL1   C25 9575   6.564   2.523   8.199 -0.2407 -0.4183 -0.5937
   96CHL1   H25 9576   6.509   2.619   8.209  2.0327  0.8440  0.5891
   96CHL1   C26 9577   6.465   2.411   8.226  0.6196  0.6682 -0.4683
   96CHL1  H26A 9578   6.529   2.321   8.233 -2.4167 -1.8077 -1.9897
   96CHL1  H26B 9579   6.400   2.413   8.316  0.7097 -3.7913 -0.0817
   96CHL1  H26C 9580   6.391   2.398   8.144  0.1839 -0.1920  0.0531
   96CHL1   C27 9581   6.691   2.529   8.300 -0.3221 -0.0306  0.7407
   96CHL1  H27A 9582   6.660   2.574   8.397 -0.0914  0.4781  0.5834
   96CHL1  H27B 9583   6.737   2.430   8.316 -1.6055 -0.7151  0.3550
   96CHL1  H27C 9584   6.758   2.596   8.241 -1.3854 -0.5181 -1.1312
   97OSM      N 9585   2.738   5.723  11.115 -0.3346 -0.4778  0.1461
   97OSM    C15 9586   2.613   5.662  11.070 -0.3538 -0.1209 -0.4739
   97OSM   H15A 9587   2.555   5.633  11.157 -0.0733 -3.5539 -1.3023
   97OSM   H15B 9588   2.631   5.579  11.004  1.3368  0.8627 -1.3322
   97OSM   H15C 9589   2.564   5.741  11.015  1.5646  0.2579 -1.7206
   97OSM    C14 9590   2.706   5.844  11.200  0.2437  0.3347  0.5433
   97OSM   H14A 9591   2.658   5.922  11.143  1.0665 -0.1047 -0.7860
   97OSM   H14B 9592   2.800   5.882  11.237  0.4078 -0.2172  0.7094
   97OSM   H14C 9593   2.641   5.815  11.282 -0.2314 -0.7465 -0.1994
   97OSM    C13 9594   2.817   5.629  11.204 -0.7162  0.0124 -0.4211
   97OSM   H13A 9595   2.843   5.540  11.147  2.1719  0.7132 -0.3476
   97OSM   H13B 9596   2.763   5.594  11.290  0.7159  0.1322  0.5567
   97OSM   H13C 9597   2.907   5.679  11.235 -2.4179  2.3148  1.1285
   97OSM    C12 9598   2.825   5.759  10.995 -0.0776 -0.2137 -0.3458
   97OSM   H12A 9599   2.836   5.674  10.930 -1.9707 -1.2207  0.5890
   97OSM   H12B 9600   2.920   5.763  11.047 -1.5793 -0.9052  2.7168
   97OSM    C11 9601   2.797   5.893  10.921  0.4937 -0.7282  0.1442
   97OSM   H11A 9602   2.885   5.900  10.853  0.8119 -0.9024  0.5339
   97OSM   H11B 9603   2.807   5.973  10.998 -0.9167  0.2666 -0.6690
   97OSM      P 9604   2.568   6.002  10.880 -0.0385 -0.0891  0.2712
   97OSM    O13 9605   2.434   5.951  10.842  0.5650  0.0212 -0.6552
   97OSM    O14 9606   2.580   6.068  11.014 -0.3097 -0.3894  0.3039
   97OSM    O11 9607   2.611   6.109  10.779  0.2550  0.0678 -0.1097
   97OSM    O12 9608   2.670   5.896  10.851  0.4053  0.7728  0.5114
   97OSM    C1S 9609   2.636   6.094  10.639 -0.9530  0.1541  0.6767
   97OSM    H1S 9610   2.613   5.988  10.615 -0.2123 -0.4905  2.5934
   97OSM    H1T 9611   2.746   6.095  10.619 -0.7857 -1.5069  1.3669
   97OSM     NF 9612   2.576   6.163  10.416  0.1202 -0.1799 -0.0515
   97OSM    HNF 9613   2.628   6.232  10.367 -1.8116  2.6039  1.4885
   97OSM    C2S 9614   2.558   6.193  10.552 -0.4801  0.3187 -0.0560
   97OSM    H2S 9615   2.450   6.178  10.577 -0.6529  0.7065 -0.5638
   97OSM    C3S 9616   2.581   6.344  10.594  0.0293  0.3556  0.0098
   97OSM    H3S 9617   2.682   6.386  10.578 -0.1511  0.2764 -1.4736
   97OSM     O3 9618   2.555   6.365  10.732 -0.0932 -0.2405  0.0416
   97OSM    HO3 9619   2.552   6.276  10.769 -1.0490 -1.0369 -1.8300
   97OSM    C4S 9620   2.486   6.430  10.518  0.0103  0.3014 -0.3640
   97OSM    H4S 9621   2.536   6.463  10.426  0.8470  1.0849  0.3650
   97OSM    C5S 9622   2.360   6.468  10.544 -0.4737 -0.5587 -0.1049
   97OSM    H5S 9623   2.308   6.453  10.640  0.6231 -1.3074  0.3983
   97OSM    C6S 9624   2.295   6.555  10.440 -0.6855  0.4041  0.7077
   97OSM    H6S 9625   2.314   6.662  10.463  2.0591  0.0434  0.4684
   97OSM    H6T 9626   2.188   6.542  10.462 -1.1361  1.1890 -0.8241
   97OSM    C7S 9627   2.305   6.524  10.286  0.2392 -0.3487  0.3909
   97OSM    H7S 9628   2.408   6.545  10.251  0.0850  2.5505  1.4292
   97OSM    H7T 9629   2.239   6.591  10.228 -0.6806 -0.9591  0.7030
   97OSM    C8S 9630   2.259   6.384  10.248 -0.1273  0.2606 -0.0252
   97OSM    H8S 9631   2.163   6.368  10.301 -1.0221 -0.6529 -1.8212
   97OSM    H8T 9632   2.334   6.312  10.288 -1.5474 -0.4690  1.4236
   97OSM    C9S 9633   2.244   6.370  10.095 -0.1881 -0.4052 -0.1601
   97OSM    H9S 9634   2.346   6.391  10.055 -0.5510  0.0657 -0.8598
   97OSM    H9T 9635   2.175   6.450  10.064  0.6119  1.3304  2.2506
   97OSM   C10S 9636   2.196   6.231  10.046 -0.1353  0.2103 -0.2404
   97OSM   H10S 9637   2.210   6.158  10.129 -3.4453  0.5972  0.7877
   97OSM   H10T 9638   2.256   6.195   9.959  2.9491  1.9666  1.0008
   97OSM   C11S 9639   2.062   6.239   9.995  0.7786 -0.1468  0.4421
   97OSM   H11S 9640   1.999   6.290  10.069  1.7505  2.5337 -0.4442
   97OSM   H11T 9641   2.029   6.133  10.000  0.4619 -0.1633 -1.3330
   97OSM   C12S 9642   2.034   6.299   9.857 -0.3632 -0.4636  0.2559
   97OSM   H12S 9643   2.105   6.380   9.830 -2.7774  2.1516  1.2642
   97OSM   H12T 9644   1.936   6.349   9.842  0.1050  0.5143  0.3540
   97OSM   C13S 9645   2.043   6.210   9.733  0.1870  0.4659 -0.5662
   97OSM   H13S 9646   2.134   6.146   9.735  0.4147  0.7121 -1.8575
   97OSM   H13T 9647   2.043   6.282   9.648 -0.1838  1.9129  0.6118
   97OSM   C14S 9648   1.918   6.114   9.734  0.1860 -0.4695 -0.7603
   97OSM   H14S 9649   1.825   6.174   9.739 -0.6018 -1.7242  0.6416
   97OSM   H14T 9650   1.919   6.048   9.824  1.1597 -1.1324 -1.2271
   97OSM   C15S 9651   1.914   6.036   9.599 -0.3195 -0.4243 -0.3690
   97OSM   H15S 9652   2.018   6.000   9.582  1.0084  2.5314  0.7180
   97OSM   H15T 9653   1.897   6.114   9.521  0.3597  0.4085  0.2834
   97OSM   C16S 9654   1.807   5.921   9.590  0.5269 -0.2456  0.5841
   97OSM   H16S 9655   1.724   5.989   9.617  1.3419  0.5632  1.1234
   97OSM   H16T 9656   1.835   5.839   9.660 -1.2507  0.0035  1.6302
   97OSM   C17S 9657   1.794   5.884   9.437  0.0127 -0.0190  0.1200
   97OSM   H17S 9658   1.894   5.844   9.409  0.4501 -0.1754  1.7620
   97OSM   H17T 9659   1.776   5.969   9.369 -4.4210 -1.4403 -0.8431
   97OSM   C18S 9660   1.689   5.780   9.399  0.0629  0.0781  0.1982
   97OSM   H18S 9661   1.720   5.676   9.423  0.6558  0.9556  3.8467
   97OSM   H18T 9662   1.660   5.780   9.292 -1.2228 -0.5246  0.5280
   97OSM   H18U 9663   1.599   5.803   9.459  0.0445 -2.1538  1.1225
   97OSM    C1F 9664   2.540   6.044  10.364 -0.9007 -0.3298  0.5298
   97OSM     OF 9665   2.494   5.949  10.422 -0.3601  0.3409 -0.1007
   97OSM    C2F 9666   2.561   6.038  10.216  0.4782 -0.4680 -0.7503
   97OSM    H2F 9667   2.632   6.117  10.180  0.0094  0.3102  0.0007
   97OSM    H2G 9668   2.461   6.061  10.174  1.0903 -0.4240 -2.2534
   97OSM    C3F 9669   2.595   5.900  10.158 -0.7806  0.1791 -0.0092
   97OSM    H3F 9670   2.509   5.833  10.178 -0.1837 -0.8075 -0.6632
   97OSM    H3G 9671   2.688   5.850  10.194 -0.1371  2.5620  1.8952
   97OSM    C4F 9672   2.607   5.893   9.998 -0.1189 -0.5607 -0.1860
   97OSM    H4F 9673   2.620   5.789   9.963 -0.8721 -0.6529 -0.2120
   97OSM    H4G 9674   2.693   5.957   9.968 -1.3980 -0.2251 -3.6751
   97OSM    C5F 9675   2.489   5.940   9.910  0.0653 -0.3064 -0.1569
   97OSM    H5F 9676   2.516   5.928   9.803 -1.7201 -1.2207 -0.5436
   97OSM    H5G 9677   2.459   6.046   9.920 -0.0352 -0.3726  0.2864
   97OSM    C6F 9678   2.367   5.848   9.941  0.5507  0.5837  0.2629
   97OSM    H6F 9679   2.356   5.847  10.052  0.4099 -0.4773  0.2547
   97OSM    H6G 9680   2.396   5.744   9.916  0.4339  0.9551 -1.5481
   97OSM    C7F 9681   2.238   5.897   9.863 -0.0860 -0.1396  0.5980
   97OSM    H7F 9682   2.255   5.906   9.753  0.8589 -1.3670  0.6205
   97OSM    H7G 9683   2.216   6.004   9.884 -3.9444 -0.4258 -1.0556
   97OSM    C8F 9684   2.104   5.819   9.873 -0.0099 -0.5261 -0.2116
   97OSM    H8F 9685   2.037   5.863   9.796 -0.2429  2.6924  1.6377
   97OSM    H8G 9686   2.057   5.843   9.971 -0.2368  1.8669 -0.8551
   97OSM    C9F 9687   2.127   5.674   9.862 -0.3055 -0.4691  0.6550
   97OSM    H9F 9688   2.163   5.624   9.953 -0.3201 -1.7135  0.0063
   97OSM   C10F 9689   2.123   5.604   9.748 -0.5670 -0.9328  0.6448
   97OSM   H10F 9690   2.158   5.500   9.737 -1.1125 -1.3593  2.6484
   97OSM   C11F 9691   2.085   5.666   9.611  0.0572 -0.2061  0.0796
   97OSM   H11F 9692   2.049   5.771   9.613 -0.5382 -0.4046  0.0853
   97OSM   H11G 9693   1.999   5.621   9.556 -0.2204  0.4683 -0.0549
   97OSM   C12F 9694   2.201   5.672   9.505  0.2058 -0.1056  0.2914
   97OSM   H12F 9695   2.148   5.693   9.409  1.4355  0.6783 -0.2526
   97OSM   H12G 9696   2.244   5.571   9.488  0.5206  0.0774 -0.0334
   97OSM   C13F 9697   2.315   5.770   9.518  0.2319 -0.1054 -0.1237
   97OSM   H13F 9698   2.370   5.749   9.612 -2.4382  0.3273  1.6163
   97OSM   H13G 9699   2.267   5.869   9.525 -2.6812 -1.4215 -0.2120
   97OSM   C14F 9700   2.400   5.772   9.390  0.7584  0.2044 -0.4670
   97OSM   H14F 9701   2.341   5.805   9.302  2.7402 -1.6787 -2.6351
   97OSM   H14G 9702   2.434   5.668   9.369  0.2284 -0.0959  0.1180
   97OSM   C15F 9703   2.528   5.847   9.395  0.2941  0.1346 -0.1875
   97OSM   H15F 9704   2.513   5.953   9.424  0.3109 -0.1145  0.7838
   97OSM   H15G 9705   2.575   5.852   9.295  2.1280 -1.5849  0.5143
   97OSM   C16F 9706   2.624   5.800   9.508  0.2390 -0.4768  0.3801
   97OSM   H16F 9707   2.662   5.702   9.472  1.0403  0.1213 -0.4511
   97OSM   H16G 9708   2.590   5.789   9.614 -0.3157  0.5450  0.3232
   97OSM   C17F 9709   2.753   5.887   9.530 -0.0333 -0.2709  0.4728
   97OSM   H17F 9710   2.827   5.840   9.598 -1.5854 -1.6313  1.2837
   97OSM   H17G 9711   2.714   5.984   9.569 -2.4016 -0.4103 -1.3364
   97OSM   C18F 9712   2.832   5.921   9.400 -0.6351  0.7623 -0.3331
   97OSM   H18F 9713   2.917   5.989   9.423  0.7948 -1.7323  2.3764
   97OSM   H18G 9714   2.757   5.962   9.330 -0.9511  1.6288  0.4850
   97OSM   H18H 9715   2.861   5.828   9.348 -0.3798  0.3887  0.4690
   98OSM      N 9716   2.098   0.254  10.692  0.7736 -0.3554  0.5161
   98OSM    C15 9717   2.235   0.214  10.639  0.7471  0.1776  0.0343
   98OSM   H15A 9718   2.311   0.234  10.713  1.1805 -1.2556 -0.0084
   98OSM   H15B 9719   2.273   0.266  10.552  0.6828  3.7753  1.9497
   98OSM   H15C 9720   2.225   0.108  10.622 -1.8483  0.2326  0.7550
   98OSM    C14 9721   2.053   0.172  10.812  0.2401  0.2426  0.0140
   98OSM   H14A 9722   2.052   0.068  10.784 -0.8691  0.8119 -2.3205
   98OSM   H14B 9723   1.949   0.195  10.833  0.6342  0.7549  1.5642
   98OSM   H14C 9724   2.110   0.201  10.899 -0.8747 -0.6009  1.0608
   98OSM    C13 9725   2.109   0.401  10.730  0.5797 -0.6565  0.2813
   98OSM   H13A 9726   2.156   0.466  10.659  0.1857 -0.2849  0.3551
   98OSM   H13B 9727   2.172   0.414  10.817  1.8572 -1.7468 -0.4470
   98OSM   H13C 9728   2.013   0.438  10.763  1.3182 -0.4828  2.3482
   98OSM    C12 9729   1.994   0.236  10.573  0.2283  0.3526 -0.2820
   98OSM   H12A 9730   1.985   0.131  10.549 -1.4415  0.5931 -0.8501
   98OSM   H12B 9731   2.025   0.305  10.495 -0.6921  0.5245 -0.5073
   98OSM    C11 9732   1.843   0.280  10.596  0.0977 -0.6223  0.4749
   98OSM   H11A 9733   1.791   0.287  10.499  0.5123  2.7154  0.3538
   98OSM   H11B 9734   1.854   0.385  10.631  0.9524 -0.6697  0.3882
   98OSM      P 9735   1.694   0.074  10.654  0.1048  0.1828 -0.3825
   98OSM    O13 9736   1.704  -0.017  10.766 -0.6380 -0.1845  0.0994
   98OSM    O14 9737   1.558   0.109  10.621 -0.0056  0.5077  0.0566
   98OSM    O11 9738   1.769   0.009  10.529  0.9727  0.1546 -0.1956
   98OSM    O12 9739   1.775   0.196  10.685 -0.6581 -0.0526  0.2085
   98OSM    C1S 9740   1.728  -0.115  10.473 -0.3974  0.6455 -0.6978
   98OSM    H1S 9741   1.618  -0.125  10.471 -0.6531  2.5007  1.1325
   98OSM    H1T 9742   1.748  -0.202  10.540 -2.2385  0.1891 -0.6966
   98OSM     NF 9743   1.729  -0.268  10.291 -1.1112 -0.6463 -0.2886
   98OSM    HNF 9744   1.790  -0.347  10.296 -0.4628 -0.0728  1.7779
   98OSM    C2S 9745   1.779  -0.137  10.328 -0.1628 -0.2393  0.4203
   98OSM    H2S 9746   1.754  -0.063  10.249  2.9913 -0.1270 -0.6066
   98OSM    C3S 9747   1.934  -0.125  10.319 -0.0058  0.9793  0.1861
   98OSM    H3S 9748   1.980  -0.211  10.371  0.7949  1.1383 -0.2413
   98OSM     O3 9749   2.000  -0.012  10.379 -0.0348 -0.1478  0.0864
   98OSM    HO3 9750   1.920   0.030  10.411 -0.6744 -1.3823  0.1957
   98OSM    C4S 9751   1.982  -0.132  10.170 -0.4668 -0.3688 -0.3378
   98OSM    H4S 9752   2.014  -0.235  10.144  0.1319 -0.5211  0.9387
   98OSM    C5S 9753   1.993  -0.033  10.079  0.2675  0.5311  0.3677
   98OSM    H5S 9754   1.969   0.068  10.116 -1.4623  0.6271 -0.9222
   98OSM    C6S 9755   2.035  -0.038   9.933  0.5432  0.1739  0.0429
   98OSM    H6S 9756   2.088   0.056   9.906  2.9635 -0.2987  2.7089
   98OSM    H6T 9757   1.941  -0.054   9.875  0.4898  1.3717 -0.2324
   98OSM    C7S 9758   2.129  -0.165   9.930  0.2732  0.0366  0.3879
   98OSM    H7S 9759   2.068  -0.257   9.945  0.3585 -0.2111 -0.6880
   98OSM    H7T 9760   2.204  -0.162  10.012 -0.0716  1.1172  0.6704
   98OSM    C8S 9761   2.207  -0.180   9.796 -0.7433 -0.2579 -0.2316
   98OSM    H8S 9762   2.282  -0.260   9.812  0.6095  0.8970 -0.6466
   98OSM    H8T 9763   2.274  -0.091   9.789  1.0723 -1.5620 -0.1923
   98OSM    C9S 9764   2.130  -0.199   9.669 -0.7317  0.1276  0.1849
   98OSM    H9S 9765   2.068  -0.108   9.653  1.1262  1.5292  0.6019
   98OSM    H9T 9766   2.060  -0.285   9.675  0.0993 -0.5115  0.9032
   98OSM   C10S 9767   2.227  -0.215   9.553 -0.2753  0.1242  0.3304
   98OSM   H10S 9768   2.313  -0.281   9.577  1.8142  2.1006 -1.2861
   98OSM   H10T 9769   2.257  -0.110   9.535 -0.5183  0.3972  1.4222
   98OSM   C11S 9770   2.154  -0.246   9.422  0.1968  0.3736 -0.1211
   98OSM   H11S 9771   2.085  -0.159   9.412  1.9233  1.6919 -1.2942
   98OSM   H11T 9772   2.101  -0.343   9.432  0.1746  0.3602 -0.3450
   98OSM   C12S 9773   2.249  -0.240   9.299  0.2193  0.5493  0.1901
   98OSM   H12S 9774   2.336  -0.309   9.305  0.0839 -0.1909 -3.7900
   98OSM   H12T 9775   2.294  -0.139   9.296  0.8667  0.2416 -1.6916
   98OSM   C13S 9776   2.184  -0.281   9.160 -0.0628 -0.0615  0.3811
   98OSM   H13S 9777   2.103  -0.214   9.123  0.5226  0.3366 -0.2077
   98OSM   H13T 9778   2.132  -0.374   9.190  0.4194 -0.2534  0.6344
   98OSM   C14S 9779   2.286  -0.286   9.034 -0.1469  0.4726  0.3677
   98OSM   H14S 9780   2.228  -0.311   8.942  0.8622  1.0463 -0.4488
   98OSM   H14T 9781   2.353  -0.373   9.050 -1.3065 -0.7998 -1.3249
   98OSM   C15S 9782   2.364  -0.159   9.013 -0.6372  0.8736 -0.4235
   98OSM   H15S 9783   2.428  -0.145   9.102 -1.5825 -1.7401  0.7486
   98OSM   H15T 9784   2.296  -0.071   9.002 -1.5767  0.2327  0.1450
   98OSM   C16S 9785   2.438  -0.164   8.881  0.0720 -0.2541  0.3262
   98OSM   H16S 9786   2.366  -0.162   8.796  0.9194 -0.9207 -0.4162
   98OSM   H16T 9787   2.503  -0.253   8.868 -2.4836 -2.1057 -0.6980
   98OSM   C17S 9788   2.545  -0.049   8.867  0.4819  0.0975  0.5599
   98OSM   H17S 9789   2.618  -0.083   8.943  0.0543 -2.1387  0.0399
   98OSM   H17T 9790   2.496   0.047   8.895 -2.9550 -1.2947 -0.1362
   98OSM   C18S 9791   2.612  -0.043   8.724  0.2728  0.4966 -0.1291
   98OSM   H18S 9792   2.547  -0.083   8.644  2.2362 -1.9221 -0.6385
   98OSM   H18T 9793   2.696  -0.116   8.719  0.2568  0.4326  0.4920
   98OSM   H18U 9794   2.651   0.058   8.697 -0.1276  0.2328 -1.8398
   98OSM    C1F 9795   1.603  -0.288  10.264 -0.6788 -0.2172 -0.7525
   98OSM     OF 9796   1.542  -0.190  10.235  0.0406  0.3903 -0.3940
   98OSM    C2F 9797   1.546  -0.422  10.271  0.4024 -0.4807  0.2351
   98OSM    H2F 9798   1.551  -0.468  10.372  2.2651 -0.1250  0.3418
   98OSM    H2G 9799   1.624  -0.485  10.221  1.3249  0.2078  0.7787
   98OSM    C3F 9800   1.422  -0.446  10.184 -0.5705  0.0833 -1.5442
   98OSM    H3F 9801   1.346  -0.367  10.199 -0.1559  0.2866 -0.3308
   98OSM    H3G 9802   1.378  -0.539  10.225  1.5613 -0.4591 -0.2825
   98OSM    C4F 9803   1.446  -0.445  10.030  1.2632 -0.1890  0.3471
   98OSM    H4F 9804   1.533  -0.511  10.010  1.5689  0.1331  0.6032
   98OSM    H4G 9805   1.480  -0.342  10.003 -0.9052  0.7099  0.8153
   98OSM    C5F 9806   1.328  -0.486   9.940 -0.4607 -0.2026 -0.1429
   98OSM    H5F 9807   1.229  -0.435   9.950 -1.3226 -2.1133  1.9361
   98OSM    H5G 9808   1.315  -0.592   9.969  1.0754 -0.8244 -1.5721
   98OSM    C6F 9809   1.359  -0.501   9.799 -0.3390 -0.6368  0.4587
   98OSM    H6F 9810   1.280  -0.550   9.739  0.7927  1.3909 -2.9557
   98OSM    H6G 9811   1.447  -0.569   9.792  0.2998  0.3295 -2.3578
   98OSM    C7F 9812   1.369  -0.374   9.719  0.6775  0.1309  0.4139
   98OSM    H7F 9813   1.432  -0.401   9.632 -1.3335 -0.7179 -0.8336
   98OSM    H7G 9814   1.421  -0.294   9.775 -1.0580 -0.1783  2.5920
   98OSM    C8F 9815   1.233  -0.324   9.673  0.4938  0.2388  0.4596
   98OSM    H8F 9816   1.189  -0.276   9.764 -0.5967  1.2425 -0.5633
   98OSM    H8G 9817   1.174  -0.414   9.645  0.1651  0.3206  0.8748
   98OSM    C9F 9818   1.248  -0.230   9.551 -0.0330 -0.0859  0.3589
   98OSM    H9F 9819   1.244  -0.121   9.564  0.2990  0.1156 -1.0377
   98OSM   C10F 9820   1.253  -0.270   9.424 -0.3067  0.3523 -0.3659
   98OSM   H10F 9821   1.261  -0.190   9.350  4.0884  0.4328 -0.0777
   98OSM   C11F 9822   1.241  -0.418   9.372 -0.6577 -0.3547  0.3245
   98OSM   H11F 9823   1.175  -0.433   9.284  0.5975 -3.2704 -0.2142
   98OSM   H11G 9824   1.201  -0.488   9.449  0.4335  1.8563  3.0899
   98OSM   C12F 9825   1.379  -0.468   9.336 -0.4884  0.1346  0.8710
   98OSM   H12F 9826   1.452  -0.476   9.418  1.8373  0.1109 -1.0856
   98OSM   H12G 9827   1.430  -0.402   9.262 -0.2580 -0.1022  0.8201
   98OSM   C13F 9828   1.377  -0.608   9.271 -0.4306  0.7912 -0.0672
   98OSM   H13F 9829   1.300  -0.608   9.192  1.3760 -1.6534 -1.9990
   98OSM   H13G 9830   1.349  -0.683   9.349  0.7413  2.2667  1.8821
   98OSM   C14F 9831   1.508  -0.638   9.204 -0.4786 -0.9399 -0.3091
   98OSM   H14F 9832   1.584  -0.635   9.284 -0.3874 -2.7206 -0.2805
   98OSM   H14G 9833   1.527  -0.563   9.125 -0.6898 -0.3020  0.2391
   98OSM   C15F 9834   1.505  -0.783   9.149  0.4044  0.6611 -0.1677
   98OSM   H15F 9835   1.405  -0.816   9.114  1.3511 -0.7173 -1.7102
   98OSM   H15G 9836   1.536  -0.850   9.233  1.1664 -0.3603 -1.2225
   98OSM   C16F 9837   1.618  -0.822   9.052 -0.4101  0.1496  0.4219
   98OSM   H16F 9838   1.719  -0.809   9.098  0.3395 -1.5467 -0.6336
   98OSM   H16G 9839   1.619  -0.753   8.965 -1.7087 -0.4581 -0.0901
   98OSM   C17F 9840   1.614  -0.978   9.004 -0.2862 -0.5633 -0.0959
   98OSM   H17F 9841   1.510  -0.995   8.969 -0.6616  2.7785 -0.9254
   98OSM   H17G 9842   1.631  -1.048   9.088 -0.7983  0.2621  0.7119
   98OSM   C18F 9843   1.709  -1.006   8.891  0.1321  0.6451  0.3719
   98OSM   H18F 9844   1.705  -1.114   8.867  2.4576  0.4931  0.3551
   98OSM   H18G 9845   1.816  -0.985   8.913  0.4542 -0.3588 -0.1990
   98OSM   H18H 9846   1.686  -0.956   8.794 -1.0176 -1.0674 -0.2772
   99OSM      N 9847   5.119   0.048  10.929 -0.2700 -0.1141 -0.1025
   99OSM    C15 9848   5.096   0.144  11.041  0.6329 -0.1740 -0.2011
   99OSM   H15A 9849   5.150   0.125  11.133  0.1383 -1.7457 -0.2123
   99OSM   H15B 9850   4.993   0.149  11.074  0.8422  1.1350  0.3421
   99OSM   H15C 9851   5.125   0.247  11.028  3.2031 -0.7300  0.5737
   99OSM    C14 9852   5.264   0.047  10.897  0.4739 -0.3366 -0.4876
   99OSM   H14A 9853   5.291  -0.049  10.855 -0.3463 -0.2852 -1.1644
   99OSM   H14B 9854   5.310   0.059  10.994 -0.6059 -0.5365  0.0605
   99OSM   H14C 9855   5.287   0.133  10.836 -0.0823 -0.8095 -1.3786
   99OSM    C13 9856   5.073  -0.086  10.971  0.7420  0.6049  0.5770
   99OSM   H13A 9857   4.974  -0.077  11.015  0.0383  1.0713 -1.0293
   99OSM   H13B 9858   5.133  -0.135  11.046 -0.5494 -4.0678 -1.0605
   99OSM   H13C 9859   5.061  -0.146  10.882 -3.1519  0.3006  1.0862
   99OSM    C12 9860   5.041   0.092  10.804 -0.4819 -0.4335  0.3221
   99OSM   H12A 9861   4.937   0.103  10.831 -0.5168 -1.4274  0.6415
   99OSM   H12B 9862   5.043   0.007  10.738  0.5698 -1.0666  1.1448
   99OSM    C11 9863   5.093   0.218  10.727  0.8787  0.8539 -0.0447
   99OSM   H11A 9864   5.019   0.229  10.644  0.8239  1.0125  0.0240
   99OSM   H11B 9865   5.187   0.198  10.672  0.5740  3.0626 -1.4983
   99OSM      P 9866   4.991   0.433  10.830 -0.0357 -0.3421  0.3493
   99OSM    O13 9867   4.864   0.354  10.843 -0.0537  0.1265  0.9237
   99OSM    O14 9868   5.026   0.523  10.945  0.3824  0.0500  0.6179
   99OSM    O11 9869   4.993   0.529  10.703 -0.2420 -0.0791 -0.1349
   99OSM    O12 9870   5.113   0.333  10.800 -0.0308 -0.4999  0.2243
   99OSM    C1S 9871   5.121   0.552  10.642  0.5943 -0.1758  0.7861
   99OSM    H1S 9872   5.210   0.527  10.704  0.5455  0.1055  0.9740
   99OSM    H1T 9873   5.119   0.662  10.625 -1.2472 -0.3361 -0.2952
   99OSM     NF 9874   5.278   0.534  10.445 -0.0549 -0.2151  0.1732
   99OSM    HNF 9875   5.276   0.631  10.420 -2.5246 -0.7341 -2.0815
   99OSM    C2S 9876   5.141   0.496  10.499 -0.8825 -0.5474 -0.0169
   99OSM    H2S 9877   5.134   0.385  10.502 -1.8781 -0.6499 -2.7204
   99OSM    C3S 9878   5.033   0.556  10.412  0.6964 -0.7078 -0.4727
   99OSM    H3S 9879   5.034   0.667  10.406  0.7959 -0.7223 -0.7055
   99OSM     O3 9880   4.900   0.525  10.455 -0.2803  0.1135 -0.0583
   99OSM    HO3 9881   4.922   0.485  10.540  2.1090  0.8542 -0.2528
   99OSM    C4S 9882   5.039   0.517  10.269  0.0270 -0.3265  0.2396
   99OSM    H4S 9883   5.039   0.408  10.255 -0.0353 -0.5749  1.9505
   99OSM    C5S 9884   5.036   0.605  10.165  0.1726 -0.3364 -0.3890
   99OSM    H5S 9885   5.006   0.709  10.186 -1.2775 -0.3910 -2.0233
   99OSM    C6S 9886   5.035   0.568  10.020  0.4818 -0.4647 -0.0348
   99OSM    H6S 9887   5.132   0.590   9.970  0.0862 -2.8990 -2.0451
   99OSM    H6T 9888   4.965   0.639   9.969 -0.4714 -1.0717  0.3971
   99OSM    C7S 9889   4.974   0.433   9.994 -0.2415  0.2221  0.6591
   99OSM    H7S 9890   4.868   0.433  10.026 -0.8165  2.0353 -1.0073
   99OSM    H7T 9891   5.025   0.352  10.050 -0.2673  1.3743  2.4453
   99OSM    C8S 9892   4.978   0.412   9.836 -0.7347  0.2355 -0.3465
   99OSM    H8S 9893   4.937   0.505   9.791  0.6881  0.6909 -0.7435
   99OSM    H8T 9894   4.908   0.331   9.805 -1.0623  0.6070 -0.5805
   99OSM    C9S 9895   5.116   0.381   9.783 -0.6436 -1.0348 -0.6246
   99OSM    H9S 9896   5.113   0.272   9.760  0.1612 -0.8526 -1.6589
   99OSM    H9T 9897   5.198   0.397   9.856 -0.0973 -0.7200 -1.2877
   99OSM   C10S 9898   5.152   0.462   9.651  0.0314 -0.1859 -0.3283
   99OSM   H10S 9899   5.259   0.444   9.624 -0.0146  0.0669 -0.6967
   99OSM   H10T 9900   5.139   0.568   9.681  0.4767 -0.8995  2.6814
   99OSM   C11S 9901   5.054   0.424   9.542  0.9679  0.9303 -0.5349
   99OSM   H11S 9902   4.951   0.435   9.584  1.5995  0.5021  1.2137
   99OSM   H11T 9903   5.072   0.315   9.532  0.4114  0.4714  2.5997
   99OSM   C12S 9904   5.084   0.493   9.416  0.7049 -0.9322  0.7224
   99OSM   H12S 9905   5.081   0.602   9.436  0.3920 -0.9846  0.9753
   99OSM   H12T 9906   5.189   0.491   9.382  0.5255  3.1414 -0.5775
   99OSM   C13S 9907   4.979   0.449   9.302  0.0245  0.0133 -0.2309
   99OSM   H13S 9908   4.875   0.473   9.334  0.0423 -2.2382  1.7328
   99OSM   H13T 9909   4.993   0.344   9.269  1.2035  0.0453  0.1110
   99OSM   C14S 9910   5.016   0.536   9.182 -0.2826 -0.2269  0.1151
   99OSM   H14S 9911   5.125   0.523   9.166 -0.3505 -0.3982 -0.2296
   99OSM   H14T 9912   4.997   0.639   9.216 -0.9416 -0.7114  1.2722
   99OSM   C15S 9913   4.935   0.493   9.062 -0.2839  0.2812 -0.0103
   99OSM   H15S 9914   4.828   0.486   9.093 -0.7134  0.8663 -1.2832
   99OSM   H15T 9915   4.960   0.390   9.030  0.7553  0.4492  0.2214
   99OSM   C16S 9916   4.950   0.587   8.942  0.7443 -0.2463  0.6137
   99OSM   H16S 9917   5.054   0.572   8.907  0.1725 -0.7178 -0.9743
   99OSM   H16T 9918   4.919   0.693   8.948  1.0817  0.0170 -1.5266
   99OSM   C17S 9919   4.865   0.535   8.829 -0.1588 -1.1723  0.0636
   99OSM   H17S 9920   4.889   0.428   8.808  0.5295 -1.4578  2.1306
   99OSM   H17T 9921   4.899   0.597   8.744 -0.0327  0.0024  0.9605
   99OSM   C18S 9922   4.719   0.566   8.854  0.8801 -0.2055 -0.5930
   99OSM   H18S 9923   4.661   0.565   8.759 -1.6824  0.3365  0.8752
   99OSM   H18T 9924   4.711   0.670   8.891  0.6033 -0.0480 -1.0838
   99OSM   H18U 9925   4.668   0.496   8.923  0.5204  0.6038 -0.0218
   99OSM    C1F 9926   5.390   0.463  10.458  0.7926 -0.5846 -0.0430
   99OSM     OF 9927   5.388   0.349  10.494  0.6821  0.2147 -0.5086
   99OSM    C2F 9928   5.516   0.541  10.442 -0.0381  0.3184  0.1664
   99OSM    H2F 9929   5.599   0.469  10.461 -0.0338 -0.0426 -1.1592
   99OSM    H2G 9930   5.522   0.615  10.525  0.1314  1.6197 -0.9739
   99OSM    C3F 9931   5.532   0.594  10.298  0.6620  0.3127  0.1534
   99OSM    H3F 9932   5.472   0.684  10.272  1.6742  0.4140 -2.1349
   99OSM    H3G 9933   5.639   0.623  10.306  0.9538 -0.9121  0.8398
   99OSM    C4F 9934   5.508   0.479  10.196  0.2778 -0.9620 -0.0552
   99OSM    H4F 9935   5.401   0.453  10.193 -0.0063  0.1363 -0.0574
   99OSM    H4G 9936   5.571   0.393  10.227  1.1910  0.3486  2.0322
   99OSM    C5F 9937   5.559   0.514  10.056 -0.1812 -0.4903 -0.0641
   99OSM    H5F 9938   5.670   0.516  10.053  0.0076 -0.6700  3.3580
   99OSM    H5G 9939   5.527   0.618  10.030  0.7509 -0.2887 -0.4204
   99OSM    C6F 9940   5.538   0.398   9.957  0.0327  0.0262  0.7306
   99OSM    H6F 9941   5.430   0.375   9.960 -0.7318  3.1796  2.5692
   99OSM    H6G 9942   5.608   0.314   9.979 -1.3348 -0.5110  3.4326
   99OSM    C7F 9943   5.576   0.445   9.814 -0.0245  0.2068 -0.5389
   99OSM    H7F 9944   5.678   0.489   9.819  0.1047 -0.0385 -1.0042
   99OSM    H7G 9945   5.502   0.520   9.777  1.9379  2.1660 -0.7644
   99OSM    C8F 9946   5.578   0.326   9.712 -0.3580  0.4430 -0.1173
   99OSM    H8F 9947   5.646   0.245   9.746  1.3433  1.0267 -1.9479
   99OSM    H8G 9948   5.627   0.364   9.620  0.7215 -0.5476  0.0288
   99OSM    C9F 9949   5.446   0.251   9.674  0.4192 -0.1380  0.2753
   99OSM    H9F 9950   5.376   0.239   9.758 -0.3482 -0.0004 -0.3311
   99OSM   C10F 9951   5.417   0.195   9.555  0.0559 -0.8370  0.7547
   99OSM   H10F 9952   5.322   0.139   9.551  0.7250 -1.9442 -1.7245
   99OSM   C11F 9953   5.502   0.191   9.431 -0.1194  0.2701 -0.6424
   99OSM   H11F 9954   5.551   0.091   9.428 -0.3615 -0.1681  3.7634
   99OSM   H11G 9955   5.575   0.274   9.423 -0.0111  0.1945 -0.4313
   99OSM   C12F 9956   5.407   0.203   9.308 -0.0206 -0.8324 -0.4573
   99OSM   H12F 9957   5.342   0.293   9.318  0.2775 -0.6648 -0.0154
   99OSM   H12G 9958   5.339   0.115   9.306  1.9758 -2.4537 -2.3054
   99OSM   C13F 9959   5.489   0.214   9.176  0.5193 -0.2584  0.0298
   99OSM   H13F 9960   5.551   0.122   9.164  0.4931 -0.3921  0.8721
   99OSM   H13G 9961   5.555   0.304   9.178  0.8473 -0.4181 -1.8265
   99OSM   C14F 9962   5.397   0.231   9.054 -0.1320 -0.1548  0.4527
   99OSM   H14F 9963   5.319   0.304   9.084  1.5843  0.8451  2.7557
   99OSM   H14G 9964   5.352   0.133   9.026  1.0140 -0.4226 -0.5235
   99OSM   C15F 9965   5.480   0.294   8.938  0.0107  0.1794  0.4396
   99OSM   H15F 9966   5.558   0.217   8.917  0.4924  0.3160  1.6457
   99OSM   H15G 9967   5.537   0.378   8.984  0.2354 -0.0738  0.6342
   99OSM   C16F 9968   5.405   0.349   8.816  0.2210  0.6603  0.4916
   99OSM   H16F 9969   5.477   0.379   8.737 -0.4304 -0.2109 -0.4543
   99OSM   H16G 9970   5.343   0.434   8.853 -1.3053 -0.6385  1.0318
   99OSM   C17F 9971   5.326   0.244   8.731 -0.0817 -0.1704 -0.2183
   99OSM   H17F 9972   5.275   0.183   8.809  0.1378 -1.1715 -0.8317
   99OSM   H17G 9973   5.401   0.173   8.690 -1.6318 -2.2750  0.3957
   99OSM   C18F 9974   5.226   0.292   8.628 -0.2557 -0.0448  0.5974
   99OSM   H18F 9975   5.148   0.215   8.612 -0.6813  0.2011  1.4406
   99OSM   H18G 9976   5.278   0.324   8.534 -0.0357  3.3944  1.7653
   99OSM   H18H 9977   5.173   0.386   8.654 -2.0253 -0.8333  0.0112
  100OSM      N 9978   6.316   0.421  10.575  0.1269  0.4086 -0.7717
  100OSM    C15 9979   6.199   0.507  10.603  0.9900  0.2360 -0.6589
  100OSM   H15A 9980   6.205   0.548  10.703  0.8444 -1.4428  0.0791
  100OSM   H15B 9981   6.105   0.454  10.592  1.5806 -0.7386 -1.1875
  100OSM   H15C 9982   6.193   0.579  10.523  1.2111 -0.0756 -0.9638
  100OSM    C14 9983   6.324   0.322  10.684 -0.2483  0.3182 -0.3674
  100OSM   H14A 9984   6.407   0.253  10.684 -2.0326 -1.9804 -0.6853
  100OSM   H14B 9985   6.236   0.259  10.675 -0.9115  0.7240  2.4438
  100OSM   H14C 9986   6.320   0.373  10.779  0.7686 -1.0497  0.4434
  100OSM    C13 9987   6.299   0.346  10.450 -0.0597 -0.9059  0.0685
  100OSM   H13A 9988   6.209   0.286  10.441 -0.7324  0.2744 -1.6784
  100OSM   H13B 9989   6.372   0.268  10.434  0.5437 -0.2814 -0.3085
  100OSM   H13C 9990   6.303   0.415  10.366 -2.3726 -1.1505 -0.3195
  100OSM    C12 9991   6.435   0.513  10.573  0.4192  0.0309 -0.2372
  100OSM   H12A 9992   6.514   0.443  10.596 -1.7517 -2.8576 -0.9601
  100OSM   H12B 9993   6.436   0.578  10.659  0.2672 -2.1538  1.4905
  100OSM    C11 9994   6.451   0.608  10.454  0.7623  0.7428  0.9179
  100OSM   H11A 9995   6.448   0.546  10.362 -1.4813 -0.0845  1.4957
  100OSM   H11B 9996   6.552   0.654  10.457  0.9488  0.5627 -1.1370
  100OSM      P 9997   6.377   0.850  10.520  0.1571  0.0898 -0.0684
  100OSM    O13 9998   6.248   0.920  10.546 -0.3508  0.3817  0.1127
  100OSM    O14 9999   6.467   0.837  10.638  0.2689  0.7271 -0.1574
  100OSM    O1110000   6.447   0.933  10.411 -0.8172  0.2607 -0.2771
  100OSM    O1210001   6.351   0.710  10.456  1.1359  0.2750  0.2086
  100OSM    C1S10002   6.458   0.893  10.267 -0.2460 -0.9873  0.4037
  100OSM    H1S10003   6.404   0.798  10.251 -2.9723  0.0950  2.3619
  100OSM    H1T10004   6.563   0.885  10.232 -0.5923  0.8584 -1.2379
  100OSM     NF10005   6.398   0.947  10.039  0.3207  0.0194 -0.4250
  100OSM    HNF10006   6.465   0.985   9.975 -1.0942  1.5098 -1.1052
  100OSM    C2S10007   6.393   0.997  10.174  0.9291 -0.6609 -0.3946
  100OSM    H2S10008   6.285   1.003  10.198  1.4619  1.6145  1.9015
  100OSM    C3S10009   6.452   1.138  10.202 -0.3059 -0.3801 -0.2381
  100OSM    H3S10010   6.561   1.138  10.178 -0.4593  3.4577 -1.7751
  100OSM     O310011   6.427   1.181  10.339 -0.4850  0.3670  0.0663
  100OSM    HO310012   6.421   1.108  10.400 -0.4905  1.6890  1.7100
  100OSM    C4S10013   6.392   1.236  10.112  0.1109 -0.7103  0.3166
  100OSM    H4S10014   6.478   1.277  10.058  0.4981 -0.6113  1.0064
  100OSM    C5S10015   6.260   1.272  10.099  0.4188  0.0135 -0.0588
  100OSM    H5S10016   6.176   1.224  10.150  2.2358 -0.6109  2.5633
  100OSM    C6S10017   6.216   1.371   9.993 -0.3718  0.8673 -0.3556
  100OSM    H6S10018   6.206   1.476  10.026 -0.6646  0.7243  0.0195
  100OSM    H6T10019   6.113   1.341   9.963 -1.2734  0.6130  2.6538
  100OSM    C7S10020   6.307   1.372   9.868 -0.1166 -0.1936  0.4080
  100OSM    H7S10021   6.320   1.269   9.831  1.8464 -0.4657  1.7171
  100OSM    H7T10022   6.413   1.394   9.891  1.0222 -2.7855 -1.9017
  100OSM    C8S10023   6.261   1.466   9.759  0.0712 -0.0440 -0.1486
  100OSM    H8S10024   6.270   1.572   9.789  1.0181 -0.4700  1.1187
  100OSM    H8T10025   6.154   1.440   9.738  1.0177 -2.3970 -2.7134
  100OSM    C9S10026   6.343   1.439   9.633  0.2818 -0.8531 -0.3349
  100OSM    H9S10027   6.361   1.330   9.621  0.2231 -0.9341  0.2629
  100OSM    H9T10028   6.441   1.489   9.653  1.0810 -2.9770  1.6086
  100OSM   C10S10029   6.278   1.494   9.504 -0.7904 -0.8458  0.7054
  100OSM   H10S10030   6.270   1.605   9.506 -2.6965 -0.8724 -1.3539
  100OSM   H10T10031   6.175   1.456   9.491 -1.9253  2.2245 -0.2781
  100OSM   C11S10032   6.368   1.456   9.385  0.6436 -0.3654 -0.3242
  100OSM   H11S10033   6.379   1.345   9.383  1.4288 -0.2904 -0.3376
  100OSM   H11T10034   6.461   1.510   9.411 -0.1095  0.9163 -0.2070
  100OSM   C12S10035   6.322   1.506   9.247  0.3824  0.7568 -0.8954
  100OSM   H12S10036   6.300   1.615   9.253 -0.1098  0.5842  1.5993
  100OSM   H12T10037   6.227   1.455   9.221 -0.6952  0.1567  3.4828
  100OSM   C13S10038   6.431   1.484   9.142 -0.2194  0.2001  0.7100
  100OSM   H13S10039   6.468   1.380   9.154  3.4551  1.4257  1.0811
  100OSM   H13T10040   6.515   1.554   9.160 -1.1663  1.0281  2.1344
  100OSM   C14S10041   6.386   1.496   8.996 -0.1297 -0.8670  0.3179
  100OSM   H14S10042   6.355   1.600   8.974  1.8379 -0.9949 -3.9114
  100OSM   H14T10043   6.302   1.427   8.971 -0.5085  0.4978 -2.5422
  100OSM   C15S10044   6.514   1.472   8.909 -0.1685  0.0989 -0.0937
  100OSM   H15S10045   6.538   1.365   8.926 -2.3540 -0.5136 -0.4928
  100OSM   H15T10046   6.604   1.525   8.946  0.0888 -1.3763  1.5091
  100OSM   C16S10047   6.486   1.489   8.758 -0.1398 -0.1714 -0.6633
  100OSM   H16S10048   6.457   1.594   8.736 -2.4557 -0.7754 -0.7483
  100OSM   H16T10049   6.399   1.429   8.723 -1.1767  1.1795 -0.4962
  100OSM   C17S10050   6.617   1.450   8.686  0.1306  0.2150 -0.7084
  100OSM   H17S10051   6.659   1.352   8.717  0.3426  1.1671  2.3183
  100OSM   H17T10052   6.696   1.520   8.722  0.9254 -0.8070 -0.4143
  100OSM   C18S10053   6.604   1.483   8.542 -0.1582 -0.2398  0.2488
  100OSM   H18S10054   6.701   1.460   8.492 -0.8671 -0.4659 -1.0844
  100OSM   H18T10055   6.592   1.593   8.529 -3.2977 -0.6721 -1.5677
  100OSM   H18U10056   6.524   1.423   8.492  0.6790 -0.0341 -1.4109
  100OSM    C1F10057   6.320   0.847  10.002 -0.4046 -0.1973  0.4435
  100OSM     OF10058   6.211   0.822  10.050 -0.4938  0.5371 -0.0830
  100OSM    C2F10059   6.365   0.756   9.895 -1.3573  0.0994 -0.0746
  100OSM    H2F10060   6.461   0.791   9.851 -1.6797 -1.1659 -1.9017
  100OSM    H2G10061   6.293   0.754   9.810 -1.7986 -1.3877  0.3158
  100OSM    C3F10062   6.387   0.608   9.942  0.0726 -0.0271  0.3175
  100OSM    H3F10063   6.281   0.576   9.952 -0.1199  0.1517 -0.9609
  100OSM    H3G10064   6.433   0.614  10.043 -1.3634  1.5458  0.9306
  100OSM    C4F10065   6.457   0.533   9.832 -0.1884  0.3390  0.2984
  100OSM    H4F10066   6.390   0.509   9.747  1.1136  0.0349 -0.6784
  100OSM    H4G10067   6.490   0.433   9.869 -0.6284 -0.5215 -1.5108
  100OSM    C5F10068   6.591   0.588   9.776  0.0762 -0.6799 -0.5736
  100OSM    H5F10069   6.664   0.507   9.757  0.5721 -0.6432  1.1026
  100OSM    H5G10070   6.625   0.651   9.861 -1.4744 -2.4282  1.4544
  100OSM    C6F10071   6.580   0.668   9.644 -0.3154  0.1074 -0.1237
  100OSM    H6F10072   6.662   0.743   9.645  2.1992 -2.4916  1.0086
  100OSM    H6G10073   6.483   0.723   9.641  0.0104  0.6830 -3.1274
  100OSM    C7F10074   6.599   0.589   9.520 -0.2641  0.4828  0.5935
  100OSM    H7F10075   6.517   0.515   9.508 -0.7799  1.3682 -2.1912
  100OSM    H7G10076   6.693   0.529   9.518  0.2295  1.2525 -0.0350
  100OSM    C8F10077   6.607   0.668   9.391  0.8897 -0.5232  0.5006
  100OSM    H8F10078   6.536   0.753   9.390  0.4043 -0.9143 -0.4301
  100OSM    H8G10079   6.569   0.605   9.307  0.4049  0.1530  0.2014
  100OSM    C9F10080   6.742   0.725   9.356  0.6182 -0.5056 -0.8163
  100OSM    H9F10081   6.793   0.755   9.448  1.3094  0.2136 -1.4231
  100OSM   C10F10082   6.806   0.733   9.239 -0.1880 -0.3802 -0.9347
  100OSM   H10F10083   6.910   0.770   9.247 -0.6112  0.4710  1.6954
  100OSM   C11F10084   6.757   0.700   9.103 -0.3505 -0.4365 -0.4852
  100OSM   H11F10085   6.803   0.777   9.037 -0.5244  0.3094  0.2535
  100OSM   H11G10086   6.646   0.706   9.101 -0.5423 -2.7212  0.4088
  100OSM   C12F10087   6.801   0.555   9.072 -0.1234  0.1744 -0.3657
  100OSM   H12F10088   6.743   0.490   9.141  0.8853 -0.5744 -0.2027
  100OSM   H12G10089   6.909   0.542   9.096 -0.5431 -1.2723  0.9008
  100OSM   C13F10090   6.778   0.516   8.919 -0.8511  0.0361  0.2006
  100OSM   H13F10091   6.668   0.508   8.902 -1.4478 -2.3126  3.9280
  100OSM   H13G10092   6.815   0.411   8.913  2.0976  0.9868  0.3537
  100OSM   C14F10093   6.858   0.588   8.816  0.2377 -0.1776  0.0945
  100OSM   H14F10094   6.812   0.689   8.807  0.1201 -0.2374  0.0245
  100OSM   H14G10095   6.835   0.538   8.719  0.8156 -0.3167  0.0220
  100OSM   C15F10096   7.008   0.601   8.836 -0.0642 -0.0331 -0.3291
  100OSM   H15F10097   7.051   0.515   8.892 -0.9426 -0.4205 -0.2303
  100OSM   H15G10098   7.012   0.683   8.910 -0.1336  1.0239 -1.4670
  100OSM   C16F10099   7.091   0.647   8.714 -0.0688  0.4438  0.3614
  100OSM   H16F10100   7.026   0.714   8.655  2.9003  3.1246 -0.1644
  100OSM   H16G10101   7.121   0.563   8.647 -0.0058  0.9105 -0.1999
  100OSM   C17F10102   7.223   0.719   8.749 -0.0713  0.1336  0.0223
  100OSM   H17F10103   7.189   0.819   8.781  0.6353  0.6197 -0.7064
  100OSM   H17G10104   7.286   0.730   8.658  1.3721 -1.1271  0.8339
  100OSM   C18F10105   7.294   0.642   8.853  0.2115 -0.0771  0.0646
  100OSM   H18F10106   7.403   0.665   8.850  0.6472 -1.7610  1.2535
  100OSM   H18G10107   7.292   0.535   8.821  0.3178 -0.0058 -0.1828
  100OSM   H18H10108   7.256   0.660   8.956 -2.1102  1.5132 -0.9921
  101OSM      N10109   4.027   0.031  10.728 -0.5414 -0.0009  0.4635
  101OSM    C1510110   3.952   0.116  10.628  0.0709 -0.4855  1.1692
  101OSM   H15A10111   4.007   0.133  10.537  1.1779 -1.9654  1.5201
  101OSM   H15B10112   3.940   0.215  10.669 -0.3518  0.7505 -1.7465
  101OSM   H15C10113   3.851   0.089  10.602  0.8914 -2.0776 -0.5554
  101OSM    C1410114   4.059  -0.100  10.667  0.0620  0.2582 -0.0293
  101OSM   H14A10115   3.975  -0.146  10.617  0.5008 -0.0924 -0.4399
  101OSM   H14B10116   4.098  -0.171  10.738 -3.9749  0.6978  3.0615
  101OSM   H14C10117   4.128  -0.078  10.587  0.3260 -1.4602 -0.3004
  101OSM    C1310118   4.150   0.102  10.755 -0.4150  0.1222 -0.3702
  101OSM   H13A10119   4.207   0.123  10.666 -2.5673  1.2727 -1.5446
  101OSM   H13B10120   4.218   0.044  10.816 -3.0432 -0.3555  2.3368
  101OSM   H13C10121   4.143   0.197  10.805 -0.6607  0.0447 -0.2560
  101OSM    C1210122   3.947   0.012  10.854 -0.4189 -0.9424 -0.9253
  101OSM   H12A10123   4.019  -0.024  10.926 -0.6964 -1.9420 -1.1425
  101OSM   H12B10124   3.871  -0.063  10.842  0.2398 -1.8358  0.3462
  101OSM    C1110125   3.881   0.131  10.926 -0.1087  0.2624 -0.0129
  101OSM   H11A10126   3.963   0.202  10.949 -0.9774  0.1884  3.9657
  101OSM   H11B10127   3.838   0.101  11.025  1.7002  0.6964  0.9367
  101OSM      P10128   3.637   0.137  10.821  0.0670 -0.1907 -0.1011
  101OSM    O1310129   3.644  -0.011  10.858 -0.0165  0.3520  0.2063
  101OSM    O1410130   3.540   0.220  10.892  0.0771  0.0135 -0.0443
  101OSM    O1110131   3.604   0.154  10.668  0.4122 -0.0830  0.0947
  101OSM    O1210132   3.783   0.198  10.846  0.0967  0.0739 -0.4086
  101OSM    C1S10133   3.621   0.280  10.602 -0.1286 -0.0564 -0.2354
  101OSM    H1S10134   3.693   0.348  10.652  0.1408 -1.0183  0.7370
  101OSM    H1T10135   3.522   0.330  10.611  0.3631  1.4919 -2.5896
  101OSM     NF10136   3.686   0.400  10.402  0.0379  0.0223 -0.8449
  101OSM    HNF10137   3.611   0.439  10.349 -0.8522 -0.2133  0.2138
  101OSM    C2S10138   3.654   0.264  10.450 -0.2424 -1.0013 -0.4982
  101OSM    H2S10139   3.743   0.198  10.454 -0.0326 -0.6692  2.2874
  101OSM    C3S10140   3.532   0.193  10.387 -0.0801  0.5968 -0.4665
  101OSM    H3S10141   3.445   0.256  10.413 -1.3388 -0.0269 -2.8257
  101OSM     O310142   3.519   0.058  10.433 -0.3528  0.0004 -0.2124
  101OSM    HO310143   3.542   0.062  10.526  0.2405  1.2230 -0.4037
  101OSM    C4S10144   3.537   0.184  10.239 -0.3389  0.3848  0.6722
  101OSM    H4S10145   3.616   0.115  10.206 -0.5869  0.3482  0.1531
  101OSM    C5S10146   3.469   0.252  10.146  0.1065  0.0592  0.3452
  101OSM    H5S10147   3.401   0.332  10.178  0.4107  0.4733 -0.0296
  101OSM    C6S10148   3.473   0.252   9.990 -0.0789 -0.7940 -0.0852
  101OSM    H6S10149   3.475   0.355   9.950  0.4376 -1.2238 -1.2067
  101OSM    H6T10150   3.375   0.228   9.944  0.1166 -0.1631 -0.8442
  101OSM    C7S10151   3.583   0.176   9.939  0.0944  0.7692 -0.0696
  101OSM    H7S10152   3.570   0.067   9.955 -0.1857  0.6820 -0.8807
  101OSM    H7T10153   3.680   0.203   9.987  1.6098 -0.4797 -2.2629
  101OSM    C8S10154   3.596   0.200   9.790 -0.7335  0.3390 -0.0369
  101OSM    H8S10155   3.583   0.303   9.752  1.0139 -0.1686 -2.1972
  101OSM    H8T10156   3.507   0.156   9.741 -1.0894  0.4772  0.4861
  101OSM    C9S10157   3.724   0.144   9.736 -0.3237 -0.7794 -0.7421
  101OSM    H9S10158   3.713   0.035   9.716 -2.4644 -0.5125 -1.2661
  101OSM    H9T10159   3.811   0.158   9.803 -0.2884  1.7338 -1.2479
  101OSM   C10S10160   3.765   0.208   9.606  0.1648  0.6137 -0.0060
  101OSM   H10S10161   3.868   0.182   9.576 -0.7794 -0.9783 -2.0268
  101OSM   H10T10162   3.737   0.315   9.621 -1.3411  0.1913  0.4323
  101OSM   C11S10163   3.681   0.177   9.481  0.6095  1.0552  0.0461
  101OSM   H11S10164   3.573   0.194   9.499  0.6038  0.5740  0.4825
  101OSM   H11T10165   3.694   0.070   9.452 -4.5858 -0.0553  0.8986
  101OSM   C12S10166   3.714   0.271   9.364  0.3405  0.2625 -0.9573
  101OSM   H12S10167   3.815   0.245   9.327  0.7081 -0.0444  0.2260
  101OSM   H12T10168   3.723   0.376   9.399  3.5887  0.1136 -1.0767
  101OSM   C13S10169   3.610   0.260   9.250  0.1614  0.5379  0.0985
  101OSM   H13S10170   3.553   0.355   9.235 -0.7905 -0.1000 -0.4595
  101OSM   H13T10171   3.533   0.184   9.273 -1.2154  1.6905 -0.4987
  101OSM   C14S10172   3.675   0.230   9.121 -0.0375  0.3601  0.0621
  101OSM   H14S10173   3.740   0.140   9.124 -0.7608 -0.3098 -2.2976
  101OSM   H14T10174   3.752   0.306   9.098 -0.6953  1.5686  1.6430
  101OSM   C15S10175   3.579   0.200   8.996 -0.7383  0.0195 -0.8717
  101OSM   H15S10176   3.628   0.213   8.897 -0.8283 -2.0110 -1.2174
  101OSM   H15T10177   3.495   0.270   9.015  0.7637  1.7183 -0.1375
  101OSM   C16S10178   3.530   0.052   8.989 -0.2056  0.3475  0.0817
  101OSM   H16S10179   3.481   0.022   9.084  0.5759 -1.9129 -0.1706
  101OSM   H16T10180   3.626  -0.003   8.984 -0.1872 -0.4743  4.9620
  101OSM   C17S10181   3.448   0.021   8.870 -0.2196 -0.8604  0.3264
  101OSM   H17S10182   3.460   0.090   8.784 -1.0620  0.9133  1.5788
  101OSM   H17T10183   3.347   0.059   8.894  1.1176  2.7961  0.7859
  101OSM   C18S10184   3.452  -0.128   8.831  0.0397 -0.4019  0.6530
  101OSM   H18S10185   3.416  -0.193   8.913  1.8499 -3.4354 -0.7656
  101OSM   H18T10186   3.556  -0.155   8.806  0.0350  0.8704 -0.8866
  101OSM   H18U10187   3.388  -0.139   8.740  2.0065 -2.5435 -0.5630
  101OSM    C1F10188   3.796   0.473  10.412  0.4537 -1.0519 -0.3125
  101OSM     OF10189   3.903   0.433  10.443 -0.2774 -0.1996  0.2089
  101OSM    C2F10190   3.776   0.621  10.390  0.6490  0.4069 -0.7279
  101OSM    H2F10191   3.823   0.675  10.475  0.2989  1.1286 -0.9821
  101OSM    H2G10192   3.669   0.651  10.392  0.5427 -0.0082  0.6602
  101OSM    C3F10193   3.848   0.666  10.264  0.1003  0.4357 -0.2873
  101OSM    H3F10194   3.957   0.673  10.285  0.3836 -1.1979 -1.0435
  101OSM    H3G10195   3.820   0.770  10.238  0.2184  0.2956 -0.9989
  101OSM    C4F10196   3.850   0.581  10.133 -0.0213  0.0496  0.6595
  101OSM    H4F10197   3.743   0.553  10.118 -0.6756  0.6378  3.5778
  101OSM    H4G10198   3.885   0.476  10.133 -1.0584 -0.3624  2.6304
  101OSM    C5F10199   3.892   0.667  10.014  0.2727  0.3669 -0.1495
  101OSM    H5F10200   3.988   0.714  10.043 -0.1025  1.5420 -0.7159
  101OSM    H5G10201   3.814   0.745   9.995  1.6972  1.5912 -1.2562
  101OSM    C6F10202   3.896   0.580   9.896  0.1078 -0.4003  0.5092
  101OSM    H6F10203   3.976   0.503   9.904  0.9968  0.2932 -1.1656
  101OSM    H6G10204   3.796   0.533   9.887  0.1650 -0.6984  1.3464
  101OSM    C7F10205   3.930   0.652   9.766  0.1106  0.0452 -0.1179
  101OSM    H7F10206   4.014   0.722   9.783 -1.4585  1.7461  0.8872
  101OSM    H7G10207   3.840   0.710   9.738  0.6761 -0.2151 -2.6933
  101OSM    C8F10208   3.957   0.556   9.651  0.1849 -0.2679  0.3673
  101OSM    H8F10209   3.922   0.607   9.559  1.0658 -0.0297  0.1652
  101OSM    H8G10210   3.900   0.462   9.669  1.8747 -1.7336 -1.6023
  101OSM    C9F10211   4.099   0.508   9.647  0.0517  0.6181 -0.9589
  101OSM    H9F10212   4.149   0.492   9.743 -1.6210  2.4842  0.3162
  101OSM   C10F10213   4.167   0.482   9.533 -0.4759  0.3802  0.3048
  101OSM   H10F10214   4.270   0.444   9.538 -0.6940 -0.5018 -1.0538
  101OSM   C11F10215   4.119   0.500   9.389 -0.5442  0.9332 -0.0730
  101OSM   H11F10216   4.192   0.554   9.324  1.9604 -1.5529  0.4764
  101OSM   H11G10217   4.033   0.569   9.399  0.9094  2.5000  2.9064
  101OSM   C12F10218   4.091   0.373   9.318  0.0327  0.2384 -0.8047
  101OSM   H12F10219   4.025   0.394   9.231 -1.8060  0.1362  0.5342
  101OSM   H12G10220   4.035   0.308   9.388  0.0204 -0.0664 -1.0930
  101OSM   C13F10221   4.217   0.301   9.267  0.4198  0.4728 -0.3662
  101OSM   H13F10222   4.258   0.240   9.351 -0.6961  2.8097  2.0205
  101OSM   H13G10223   4.300   0.359   9.222  1.9688 -2.3826 -1.4306
  101OSM   C14F10224   4.180   0.208   9.148  0.1544  0.1315 -0.7110
  101OSM   H14F10225   4.093   0.149   9.183 -0.3294  0.2901 -1.5995
  101OSM   H14G10226   4.266   0.139   9.132  1.0520  0.3101  2.6475
  101OSM   C15F10227   4.154   0.280   9.020  0.0792 -0.1431 -0.2187
  101OSM   H15F10228   4.087   0.369   9.026 -0.5236 -0.6504  0.8357
  101OSM   H15G10229   4.104   0.207   8.953  0.6869 -0.2501 -0.5590
  101OSM   C16F10230   4.286   0.329   8.953  0.3179 -0.8191  0.3483
  101OSM   H16F10231   4.357   0.243   8.951  1.4044  0.0364 -2.0558
  101OSM   H16G10232   4.332   0.401   9.024  0.5712 -2.0937  1.5291
  101OSM   C17F10233   4.272   0.402   8.813  0.3727  0.8194 -0.5771
  101OSM   H17F10234   4.215   0.326   8.756  0.8014 -0.0265  0.0978
  101OSM   H17G10235   4.368   0.422   8.760  0.0409 -0.5781 -1.7931
  101OSM   C18F10236   4.197   0.530   8.814  0.0560  0.8535  0.3361
  101OSM   H18F10237   4.252   0.611   8.867  1.5786  0.4169 -0.5120
  101OSM   H18G10238   4.107   0.523   8.878 -0.8078  0.9301 -0.8370
  101OSM   H18H10239   4.149   0.569   8.721  0.6973  1.3692  0.2051
  102OSM      N10240   5.803   2.197  10.927  0.1103  0.3616  0.0473
  102OSM    C1510241   5.836   2.290  11.036 -0.2309 -0.4339 -0.3209
  102OSM   H15A10242   5.757   2.321  11.102 -2.8681 -4.9430 -0.9444
  102OSM   H15B10243   5.889   2.377  10.997  0.6672  0.1235  1.9872
  102OSM   H15C10244   5.909   2.253  11.106 -0.0704  0.6140  0.0795
  102OSM    C1410245   5.933   2.157  10.870 -0.2694 -0.5993 -0.5149
  102OSM   H14A10246   5.929   2.069  10.808  0.2118 -0.0271 -1.3729
  102OSM   H14B10247   6.005   2.136  10.948  1.6951  1.1386 -1.7648
  102OSM   H14C10248   5.976   2.224  10.798 -1.3995 -3.1945 -3.8554
  102OSM    C1310249   5.737   2.084  10.980  0.9322  0.4767 -0.0199
  102OSM   H13A10250   5.810   2.029  11.038  1.9429  1.2429 -0.5395
  102OSM   H13B10251   5.700   2.027  10.896  0.4614  1.2580 -0.3479
  102OSM   H13C10252   5.657   2.114  11.046 -0.2702 -1.6887 -0.4031
  102OSM    C1210253   5.708   2.273  10.824  0.1630 -0.1236  0.4741
  102OSM   H12A10254   5.733   2.375  10.799 -0.3497 -0.4053 -1.3291
  102OSM   H12B10255   5.616   2.288  10.877  0.4220  0.3954  0.7902
  102OSM    C1110256   5.660   2.208  10.701  0.0742  0.4035  0.8540
  102OSM   H11A10257   5.733   2.210  10.617 -2.1826  0.6679 -1.1848
  102OSM   H11B10258   5.577   2.265  10.656  0.2565 -0.9098 -1.3070
  102OSM      P10259   5.627   1.959  10.652 -0.2042  0.3951 -0.2535
  102OSM    O1310260   5.772   1.920  10.673 -0.0483 -0.3791 -0.4813
  102OSM    O1410261   5.526   1.849  10.677 -0.1317 -0.7572 -0.0424
  102OSM    O1110262   5.613   1.999  10.502  0.1154  0.2087 -0.3835
  102OSM    O1210263   5.597   2.079  10.731 -0.1910 -0.2449  0.6850
  102OSM    C1S10264   5.506   2.076  10.455 -0.2839  0.6947  0.8261
  102OSM    H1S10265   5.536   2.182  10.464 -0.0061  0.7271 -0.3713
  102OSM    H1T10266   5.413   2.053  10.511 -2.5274 -0.5774 -3.0641
  102OSM     NF10267   5.408   2.146  10.228 -0.2042 -0.2979 -0.3533
  102OSM    HNF10268   5.313   2.131  10.205 -1.3852  3.4119  1.2754
  102OSM    C2S10269   5.480   2.042  10.306  0.0704  0.2118 -0.6655
  102OSM    H2S10270   5.581   2.034  10.261  0.2611  1.3957 -0.4852
  102OSM    C3S10271   5.405   1.906  10.303 -0.5404 -0.6376 -0.5060
  102OSM    H3S10272   5.316   1.919  10.369  0.7717  1.7686  0.9599
  102OSM     O310273   5.487   1.799  10.359 -0.1664 -0.0626  0.2723
  102OSM    HO310274   5.557   1.841  10.410 -1.6249  2.1378  0.6212
  102OSM    C4S10275   5.375   1.878  10.162 -0.4767  0.6493  0.0265
  102OSM    H4S10276   5.278   1.917  10.128 -0.0334  0.7330 -1.1793
  102OSM    C5S10277   5.457   1.817  10.075 -0.0510  0.0340  0.5273
  102OSM    H5S10278   5.546   1.773  10.123 -0.5386  0.4598  1.8881
  102OSM    C6S10279   5.427   1.790   9.924  0.6098  0.0731 -0.1691
  102OSM    H6S10280   5.319   1.784   9.901  0.6969 -0.2119 -0.5009
  102OSM    H6T10281   5.468   1.697   9.879  0.7431  0.7385 -1.4677
  102OSM    C7S10282   5.479   1.907   9.841 -0.4729 -0.2849  0.4126
  102OSM    H7S10283   5.589   1.915   9.833 -0.3327 -0.2243  2.0228
  102OSM    H7T10284   5.457   2.009   9.879  1.0470  1.0775 -2.0985
  102OSM    C8S10285   5.411   1.915   9.701  0.4862  0.6614  0.2808
  102OSM    H8S10286   5.446   2.016   9.670  0.8652  1.0485  1.8777
  102OSM    H8T10287   5.303   1.925   9.726  0.7578 -1.1376  2.5702
  102OSM    C9S10288   5.457   1.801   9.603  0.1891 -0.3984 -0.0552
  102OSM    H9S10289   5.405   1.708   9.637  0.5650 -0.8350 -0.6665
  102OSM    H9T10290   5.565   1.782   9.616 -0.0370 -0.9592  1.1593
  102OSM   C10S10291   5.430   1.838   9.450  0.2962  0.3046  0.1499
  102OSM   H10S10292   5.479   1.936   9.429 -1.1248  0.5936 -2.1693
  102OSM   H10T10293   5.324   1.855   9.424 -0.2132  0.2110  2.0261
  102OSM   C11S10294   5.479   1.733   9.357 -0.4797  0.4097 -0.2778
  102OSM   H11S10295   5.434   1.633   9.376 -0.1598  0.0068 -1.5266
  102OSM   H11T10296   5.589   1.723   9.371 -0.5550 -0.2292 -0.1105
  102OSM   C12S10297   5.450   1.757   9.204 -0.3924  0.4607  0.5537
  102OSM   H12S10298   5.508   1.849   9.182  0.3593  0.5001  2.5008
  102OSM   H12T10299   5.340   1.764   9.192 -0.8001 -1.5824  2.3959
  102OSM   C13S10300   5.500   1.652   9.109 -0.2525 -0.1129 -0.1437
  102OSM   H13S10301   5.470   1.550   9.143 -0.6290  0.3113  0.8122
  102OSM   H13T10302   5.611   1.649   9.101  0.1059 -1.2495  3.4488
  102OSM   C14S10303   5.448   1.692   8.970 -0.4258 -0.1271 -0.1868
  102OSM   H14S10304   5.467   1.801   8.959  0.4415 -0.4679 -2.4882
  102OSM   H14T10305   5.340   1.676   8.955 -0.3297  0.4153 -1.6369
  102OSM   C15S10306   5.519   1.627   8.857  0.5811 -0.3098  0.5657
  102OSM   H15S10307   5.490   1.520   8.855  0.8473 -0.3797 -0.8170
  102OSM   H15T10308   5.629   1.646   8.865  0.5717  1.3410 -1.9767
  102OSM   C16S10309   5.471   1.690   8.721  0.5428  0.0267  0.7925
  102OSM   H16S10310   5.531   1.781   8.700 -0.8878  0.5259 -1.5807
  102OSM   H16T10311   5.366   1.720   8.741  1.7994  2.8300  4.1766
  102OSM   C17S10312   5.483   1.584   8.600 -0.3569  0.2792 -0.1351
  102OSM   H17S10313   5.441   1.626   8.506 -1.7948  1.0662  0.8124
  102OSM   H17T10314   5.417   1.496   8.619  0.4167 -0.3857 -0.4869
  102OSM   C18S10315   5.623   1.536   8.588 -0.1951  0.2568 -0.3677
  102OSM   H18S10316   5.623   1.492   8.486 -1.9623 -0.6225 -0.0278
  102OSM   H18T10317   5.648   1.452   8.657 -0.4439  1.3157  1.0648
  102OSM   H18U10318   5.692   1.623   8.593 -0.1160  0.2751 -1.6004
  102OSM    C1F10319   5.477   2.253  10.194 -0.9883 -0.1276  0.2669
  102OSM     OF10320   5.592   2.276  10.227 -0.1069 -0.2133 -0.7678
  102OSM    C2F10321   5.394   2.346  10.109 -0.6629 -0.0408 -0.0139
  102OSM    H2F10322   5.341   2.412  10.181 -0.9755  0.2117 -0.4650
  102OSM    H2G10323   5.317   2.295  10.047  1.3314 -0.8262 -2.0062
  102OSM    C3F10324   5.490   2.434  10.022 -0.0474  0.0032 -0.4074
  102OSM    H3F10325   5.583   2.469  10.073 -0.4240 -1.6267  1.5566
  102OSM    H3G10326   5.433   2.529  10.016 -0.8780 -0.4303  0.3473
  102OSM    C4F10327   5.503   2.383   9.871  0.1754 -0.6265  0.8646
  102OSM    H4F10328   5.443   2.292   9.852 -0.2792  0.0385 -1.0097
  102OSM    H4G10329   5.613   2.369   9.873  0.4731  1.3962  0.8311
  102OSM    C5F10330   5.469   2.487   9.755 -0.0759  0.6733 -0.7819
  102OSM    H5F10331   5.487   2.594   9.778  0.1249  0.8548 -1.7311
  102OSM    H5G10332   5.359   2.476   9.744 -0.3004 -0.6041  1.9245
  102OSM    C6F10333   5.531   2.443   9.619  0.6053  0.6425 -0.3479
  102OSM    H6F10334   5.492   2.342   9.592  0.4390  0.3716  0.8174
  102OSM    H6G10335   5.641   2.430   9.627  0.6125 -1.6214 -2.8295
  102OSM    C7F10336   5.493   2.540   9.507  0.0838  0.2989 -0.3524
  102OSM    H7F10337   5.564   2.622   9.531  1.1294 -0.7309  0.1350
  102OSM    H7G10338   5.393   2.580   9.533  0.5716  0.1306  1.9895
  102OSM    C8F10339   5.488   2.476   9.369  0.2859  0.1615  0.9189
  102OSM    H8F10340   5.397   2.414   9.376  0.3823 -0.2614 -1.0441
  102OSM    H8G10341   5.577   2.410   9.365  0.1524 -0.0543  1.4024
  102OSM    C9F10342   5.481   2.582   9.257  0.4543  0.2622  0.0213
  102OSM    H9F10343   5.583   2.610   9.225  1.1648 -1.2026  0.9084
  102OSM   C10F10344   5.363   2.622   9.211  0.7958  0.1250  0.1651
  102OSM   H10F10345   5.365   2.682   9.119 -1.5490 -0.1653 -0.1237
  102OSM   C11F10346   5.222   2.586   9.256 -0.4363 -0.3039  0.0789
  102OSM   H11F10347   5.163   2.680   9.246  0.8925  0.4708 -0.7342
  102OSM   H11G10348   5.223   2.555   9.363  0.5633  0.3237  0.2599
  102OSM   C12F10349   5.158   2.477   9.160  0.1271 -0.2906  0.3910
  102OSM   H12F10350   5.072   2.430   9.213 -1.3588  0.6520 -1.0774
  102OSM   H12G10351   5.224   2.390   9.142 -0.2378 -0.0717 -2.5479
  102OSM   C13F10352   5.107   2.548   9.029  0.4485  0.0375  0.3491
  102OSM   H13F10353   5.200   2.590   8.986  0.8478 -1.7596 -0.6676
  102OSM   H13G10354   5.033   2.627   9.054  1.4367  0.8022  0.9386
  102OSM   C14F10355   5.046   2.449   8.934 -0.1310  0.6172  0.5316
  102OSM   H14F10356   4.969   2.382   8.978 -0.0680  0.6542  0.6963
  102OSM   H14G10357   5.125   2.381   8.893 -2.3073 -1.1835 -0.9278
  102OSM   C15F10358   4.968   2.514   8.813  0.1160 -0.0208  0.7156
  102OSM   H15F10359   5.046   2.531   8.736 -0.5610  0.2793  0.0820
  102OSM   H15G10360   4.920   2.613   8.834 -1.4736 -0.6841  0.3835
  102OSM   C16F10361   4.860   2.427   8.735 -0.2301  0.5418 -0.9812
  102OSM   H16F10362   4.793   2.382   8.811  0.7589  1.9292  0.8033
  102OSM   H16G10363   4.917   2.343   8.691  0.3899  1.5215 -2.1186
  102OSM   C17F10364   4.773   2.512   8.642 -0.1797 -0.1797  0.4170
  102OSM   H17F10365   4.745   2.611   8.684 -1.0322  1.5082 -3.6110
  102OSM   H17G10366   4.681   2.453   8.624  0.4198 -0.6095 -1.5680
  102OSM   C18F10367   4.839   2.550   8.505 -0.5201  0.2839  0.5400
  102OSM   H18F10368   4.886   2.461   8.456  0.1751  0.1690  1.3946
  102OSM   H18G10369   4.928   2.615   8.519  0.7169 -1.4427  1.1427
  102OSM   H18H10370   4.767   2.610   8.446  0.6695  2.1626  0.9155
  103OSM      N10371   2.478   5.600  10.625 -0.5497  0.0259  0.1919
  103OSM    C1510372   2.393   5.651  10.515  0.6745 -0.7505  0.1168
  103OSM   H15A10373   2.311   5.586  10.488 -0.8455  0.6213  1.2163
  103OSM   H15B10374   2.460   5.681  10.436 -0.2430  0.3865 -0.2517
  103OSM   H15C10375   2.341   5.737  10.556  0.0654 -1.0901  0.0720
  103OSM    C1410376   2.388   5.583  10.745 -0.3753  0.2238 -0.4733
  103OSM   H14A10377   2.298   5.533  10.714 -1.5479  0.4544  2.2865
  103OSM   H14B10378   2.365   5.679  10.790  2.7686  0.8340  0.0952
  103OSM   H14C10379   2.442   5.524  10.818 -2.3353 -2.7912 -1.3004
  103OSM    C1310380   2.534   5.472  10.576 -0.4296  0.4848  0.3599
  103OSM   H13A10381   2.617   5.468  10.507 -0.5264 -0.7454  0.2926
  103OSM   H13B10382   2.462   5.411  10.522  0.9581 -1.1797  0.2996
  103OSM   H13C10383   2.563   5.406  10.657 -0.3737  0.9554  0.7259
  103OSM    C1210384   2.591   5.691  10.661  0.0566  0.2182  0.2569
  103OSM   H12A10385   2.639   5.666  10.755 -1.5124  0.2241  1.0963
  103OSM   H12B10386   2.545   5.784  10.692 -3.0320 -1.3913  0.9334
  103OSM    C1110387   2.712   5.722  10.557 -0.1051  0.8054  0.0782
  103OSM   H11A10388   2.776   5.794  10.613  1.3612 -0.1351 -0.3271
  103OSM   H11B10389   2.665   5.780  10.475  1.5994  3.5561  0.9317
  103OSM      P10390   2.897   5.551  10.612  0.0690 -0.2959 -0.3997
  103OSM    O1310391   2.851   5.586  10.751 -0.3451  0.6526  0.2067
  103OSM    O1410392   2.923   5.408  10.578  0.8092 -0.3040  0.1832
  103OSM    O1110393   3.025   5.633  10.569 -0.4175 -0.1544  0.1225
  103OSM    O1210394   2.781   5.605  10.513  0.2676  0.4451 -0.1883
  103OSM    C1S10395   3.064   5.627  10.428 -0.1089 -0.8912 -0.4254
  103OSM    H1S10396   3.033   5.530  10.383 -1.8647 -0.2003 -0.7448
  103OSM    H1T10397   3.175   5.632  10.433 -0.0998 -1.6845  0.5905
  103OSM     NF10398   3.046   5.737  10.212 -0.2274  0.4930 -0.0465
  103OSM    HNF10399   3.133   5.777  10.182  0.5002 -1.7311 -1.0898
  103OSM    C2S10400   3.015   5.751  10.350 -0.5512  0.0580  0.8030
  103OSM    H2S10401   2.905   5.757  10.362 -0.4877  0.5821  1.1396
  103OSM    C3S10402   3.077   5.875  10.413 -0.1703  0.1787 -0.5867
  103OSM    H3S10403   3.188   5.876  10.426 -0.3241 -1.1993  1.2781
  103OSM     O310404   3.026   5.888  10.547 -0.2076  0.6232  0.1010
  103OSM    HO310405   2.971   5.811  10.563 -1.4578  1.0151 -1.9878
  103OSM    C4S10406   3.037   6.003  10.336  0.5782  0.3091  0.2140
  103OSM    H4S10407   2.928   6.017  10.338  0.4287 -0.6665 -0.5088
  103OSM    C5S10408   3.117   6.088  10.265 -0.3759 -0.3228 -0.1410
  103OSM    H5S10409   3.227   6.085  10.262 -0.3185 -0.9583  1.6866
  103OSM    C6S10410   3.058   6.203  10.189 -0.5269 -0.1019 -0.0905
  103OSM    H6S10411   3.085   6.296  10.243  3.5943 -0.7163 -0.7891
  103OSM    H6T10412   2.949   6.188  10.174 -0.4875 -2.4184  1.4223
  103OSM    C7S10413   3.122   6.203  10.048  0.5107 -0.2095 -0.7770
  103OSM    H7S10414   3.231   6.181  10.048  0.8671  1.4162  0.3765
  103OSM    H7T10415   3.103   6.302  10.002 -0.7561 -0.3460 -0.5876
  103OSM    C8S10416   3.056   6.092   9.957  0.1461  0.0040 -0.5743
  103OSM    H8S10417   2.945   6.101   9.959  0.0269  0.0540 -3.2325
  103OSM    H8T10418   3.082   5.990   9.992 -0.5450  0.0185  0.0070
  103OSM    C9S10419   3.076   6.112   9.806 -0.6038 -0.2484  0.0063
  103OSM    H9S10420   3.013   6.041   9.747 -0.8851  0.4190 -0.5066
  103OSM    H9T10421   3.180   6.075   9.793 -0.0103 -0.2837  3.6792
  103OSM   C10S10422   3.063   6.255   9.750  0.0552  0.9362 -0.5256
  103OSM   H10S10423   3.149   6.313   9.791  1.1974 -0.2164 -1.2152
  103OSM   H10T10424   2.972   6.308   9.785 -1.7793 -1.2712 -1.6863
  103OSM   C11S10425   3.065   6.253   9.596 -0.0606 -0.3238 -0.5484
  103OSM   H11S10426   2.978   6.196   9.558 -1.9043 -0.1799  3.0102
  103OSM   H11T10427   3.163   6.209   9.568 -0.4346 -2.1326  0.7455
  103OSM   C12S10428   3.045   6.398   9.535  0.8036  0.6218 -0.5934
  103OSM   H12S10429   3.137   6.453   9.565  0.9366  0.8985 -1.4828
  103OSM   H12T10430   2.969   6.445   9.601  1.0920  3.7291 -2.2625
  103OSM   C13S10431   3.003   6.386   9.390 -0.4470 -0.0806 -0.3097
  103OSM   H13S10432   2.982   6.491   9.362  1.7290  1.0179  1.7521
  103OSM   H13T10433   2.921   6.315   9.368 -0.3909 -0.3396  0.2889
  103OSM   C14S10434   3.115   6.360   9.279  0.3691  0.5631  0.1777
  103OSM   H14S10435   3.207   6.420   9.300  1.4554 -1.5034  1.6931
  103OSM   H14T10436   3.062   6.399   9.189  0.9455  0.0917 -0.3718
  103OSM   C15S10437   3.146   6.210   9.255  0.9910 -0.5187  0.7948
  103OSM   H15S10438   3.045   6.174   9.227  0.5703  0.3447  1.1809
  103OSM   H15T10439   3.191   6.155   9.340  3.4412 -1.0223 -0.7060
  103OSM   C16S10440   3.238   6.180   9.129 -0.0680 -0.4142  0.1632
  103OSM   H16S10441   3.335   6.227   9.157 -0.9068  1.2202  0.4633
  103OSM   H16T10442   3.206   6.242   9.043 -1.1505 -2.2716 -0.8113
  103OSM   C17S10443   3.247   6.028   9.090 -0.1324  0.0163  0.1599
  103OSM   H17S10444   3.141   6.010   9.063  0.0816 -1.6828  0.3488
  103OSM   H17T10445   3.271   5.974   9.184 -0.5998 -1.4979 -0.5588
  103OSM   C18S10446   3.340   5.989   8.982 -0.7301  0.1714  0.0862
  103OSM   H18S10447   3.318   6.032   8.882  1.2022  1.4604  0.1545
  103OSM   H18T10448   3.344   5.878   8.973 -3.3877 -0.0742  1.2309
  103OSM   H18U10449   3.443   6.030   8.998 -1.2192  1.3778  0.2585
  103OSM    C1F10450   2.968   5.670  10.137  0.4085  0.4039  0.0542
  103OSM     OF10451   2.874   5.607  10.181  0.4124 -0.1195  0.1734
  103OSM    C2F10452   3.011   5.681   9.995 -0.2084 -0.1644 -0.2400
  103OSM    H2F10453   3.121   5.664   9.991  0.0205  1.3866 -1.4324
  103OSM    H2G10454   3.009   5.786   9.961 -0.6703 -0.0411  0.1599
  103OSM    C3F10455   2.941   5.585   9.897 -0.1142  1.0782  0.4813
  103OSM    H3F10456   2.831   5.598   9.901 -0.0860  1.2491  0.7943
  103OSM    H3G10457   2.958   5.483   9.938  0.5288  0.0160 -2.2282
  103OSM    C4F10458   2.981   5.600   9.751 -0.2493 -0.4948 -0.1538
  103OSM    H4F10459   2.952   5.706   9.734 -2.3033 -0.9151  0.4429
  103OSM    H4G10460   2.931   5.530   9.681 -0.2832 -0.9125  0.2775
  103OSM    C5F10461   3.139   5.592   9.737 -0.7079  0.2406 -0.7413
  103OSM    H5F10462   3.170   5.498   9.787 -1.9161  0.6358  0.8226
  103OSM    H5G10463   3.186   5.674   9.794  1.8031 -0.9580 -0.9673
  103OSM    C6F10464   3.201   5.595   9.596 -0.3077 -0.7773  0.6604
  103OSM    H6F10465   3.152   5.517   9.534 -1.1247  0.7556 -0.6834
  103OSM    H6G10466   3.306   5.559   9.603 -0.2741 -1.2663 -1.5885
  103OSM    C7F10467   3.198   5.729   9.529 -0.2334  0.4668  0.7971
  103OSM    H7F10468   3.237   5.811   9.593  0.8734 -0.3282  1.1712
  103OSM    H7G10469   3.091   5.754   9.511 -0.8219 -0.5925  2.5206
  103OSM    C8F10470   3.287   5.730   9.410  0.3000 -0.0711  1.2494
  103OSM    H8F10471   3.395   5.719   9.437  0.9067 -1.8201 -1.5162
  103OSM    H8G10472   3.268   5.830   9.365  2.2846 -0.4143 -0.4947
  103OSM    C9F10473   3.259   5.615   9.313  0.0272 -0.6553 -0.3894
  103OSM    H9F10474   3.288   5.517   9.355  0.0115 -0.0874  1.0057
  103OSM   C10F10475   3.194   5.610   9.201 -0.0432 -0.7518  0.8411
  103OSM   H10F10476   3.185   5.518   9.141 -1.5963 -0.5314  0.6856
  103OSM   C11F10477   3.115   5.732   9.141 -0.6245  0.3336 -0.1041
  103OSM   H11F10478   3.153   5.761   9.041  0.5145  0.2736  0.2986
  103OSM   H11G10479   3.113   5.818   9.211 -1.5079  0.1175  0.1422
  103OSM   C12F10480   2.964   5.685   9.126 -0.4225  0.0285 -0.5328
  103OSM   H12F10481   2.916   5.680   9.226 -0.2446  1.0482 -0.3816
  103OSM   H12G10482   2.967   5.590   9.068 -0.0288  0.6373 -1.5500
  103OSM   C13F10483   2.875   5.793   9.043  0.4669  1.0691 -0.0125
  103OSM   H13F10484   2.853   5.872   9.119 -0.6984  0.0590  0.7259
  103OSM   H13G10485   2.781   5.736   9.032  1.3493 -0.0826 -2.2877
  103OSM   C14F10486   2.919   5.858   8.910 -0.3632  0.1294 -0.0897
  103OSM   H14F10487   2.927   5.783   8.829 -0.7803 -2.0458  1.7780
  103OSM   H14G10488   3.018   5.909   8.914 -0.0373 -0.4855 -0.1528
  103OSM   C15F10489   2.819   5.970   8.860  0.3504  0.3446  0.1112
  103OSM   H15F10490   2.819   6.045   8.943 -0.6495 -0.8072  1.1883
  103OSM   H15G10491   2.717   5.927   8.852  1.2744 -1.6544 -1.9832
  103OSM   C16F10492   2.872   6.012   8.722  0.5220 -0.0766  0.3790
  103OSM   H16F10493   2.894   5.924   8.658  0.1068  1.3650 -1.8579
  103OSM   H16G10494   2.968   6.067   8.732  2.0580 -2.2852 -1.2614
  103OSM   C17F10495   2.785   6.110   8.632  0.0497  0.2166 -0.0980
  103OSM   H17F10496   2.808   6.109   8.523  0.3290  0.0381 -0.0394
  103OSM   H17G10497   2.803   6.213   8.669  0.3504  0.6184 -1.2899
  103OSM   C18F10498   2.630   6.101   8.639 -0.0258  0.1049 -0.8521
  103OSM   H18F10499   2.592   6.005   8.599 -1.1229  1.6264 -3.7578
  103OSM   H18G10500   2.576   6.183   8.587 -0.7386 -0.3096 -0.7792
  103OSM   H18H10501   2.598   6.108   8.745  2.0394 -0.4745 -0.1568
  104OSM      N10502   5.524   5.588  11.053 -0.2355 -0.4162  0.2221
  104OSM    C1510503   5.649   5.647  10.992  0.3604 -0.3637 -0.1333
  104OSM   H15A10504   5.733   5.580  11.002  1.0524  0.5692  0.4460
  104OSM   H15B10505   5.685   5.731  11.048 -0.3672  0.8476 -1.4001
  104OSM   H15C10506   5.636   5.673  10.888  0.6071  0.7324  0.0991
  104OSM    C1410507   5.541   5.580  11.202 -0.1569 -0.8100 -0.1805
  104OSM   H14A10508   5.580   5.668  11.250  4.4391 -3.2711  1.2753
  104OSM   H14B10509   5.616   5.507  11.229  1.6973  1.8628  2.6625
  104OSM   H14C10510   5.447   5.551  11.246  0.6196 -1.1974  1.2563
  104OSM    C1310511   5.404   5.675  11.026  0.3000 -0.7751 -0.1844
  104OSM   H13A10512   5.315   5.656  11.084  0.5939  0.8312  0.8718
  104OSM   H13B10513   5.374   5.652  10.925 -1.3459  1.1399 -0.2010
  104OSM   H13C10514   5.426   5.780  11.038 -1.4648 -0.3781 -0.2749
  104OSM    C1210515   5.495   5.447  11.002  0.1764  0.5668  0.3411
  104OSM   H12A10516   5.407   5.409  11.052 -0.2674  1.8907  0.6149
  104OSM   H12B10517   5.575   5.391  11.048  0.0333  1.7520  2.1219
  104OSM    C1110518   5.459   5.424  10.849 -0.0487  0.3493  0.1782
  104OSM   H11A10519   5.479   5.316  10.832  0.6690  0.5825 -0.5241
  104OSM   H11B10520   5.522   5.485  10.781 -0.5630  0.2796 -0.3660
  104OSM      P10521   5.207   5.366  10.864  0.2052  0.3375 -0.2126
  104OSM    O1310522   5.239   5.300  10.994  0.2485 -0.0262 -0.3074
  104OSM    O1410523   5.075   5.437  10.853  0.3160  0.1923 -0.3180
  104OSM    O1110524   5.219   5.252  10.751  0.1842 -0.8413 -0.5722
  104OSM    O1210525   5.325   5.466  10.823  0.1149  0.2278  0.5169
  104OSM    C1S10526   5.196   5.292  10.611 -0.1793  0.6196 -0.5159
  104OSM    H1S10527   5.292   5.341  10.584  0.4926 -0.1657  0.3871
  104OSM    H1T10528   5.108   5.360  10.611 -0.5906  0.0939 -0.3876
  104OSM     NF10529   5.183   5.219  10.386  0.5887  0.4998 -0.6405
  104OSM    HNF10530   5.093   5.242  10.350  0.0393  0.7446  0.8144
  104OSM    C2S10531   5.180   5.174  10.517  0.6677  0.1460 -0.4711
  104OSM    H2S10532   5.265   5.104  10.532 -0.2407 -0.4786  2.2688
  104OSM    C3S10533   5.045   5.107  10.552 -0.2859 -0.6800  0.1582
  104OSM    H3S10534   4.961   5.178  10.542  1.9925  2.0329 -1.2449
  104OSM     O310535   5.035   5.063  10.684  0.2174  0.5941 -0.3364
  104OSM    HO310536   5.102   5.120  10.722  1.4678 -0.6037 -0.6757
  104OSM    C4S10537   5.031   4.997  10.448  0.7152  0.1593  0.0175
  104OSM    H4S10538   4.978   5.022  10.354  1.0599  0.6141 -0.0582
  104OSM    C5S10539   5.067   4.871  10.470  0.6407  0.4206  0.5679
  104OSM    H5S10540   5.103   4.831  10.567 -0.5557  0.6696  1.1317
  104OSM    C6S10541   5.056   4.760  10.367  0.4634 -0.0558 -0.0839
  104OSM    H6S10542   4.980   4.689  10.406 -1.8391  1.8212 -0.9473
  104OSM    H6T10543   5.154   4.710  10.352  0.6061 -0.0333  0.7219
  104OSM    C7S10544   5.014   4.808  10.226 -0.3276  0.2156 -0.0362
  104OSM    H7S10545   5.083   4.890  10.195 -0.8384  0.4070 -0.7109
  104OSM    H7T10546   4.913   4.854  10.212 -0.6578 -0.5539 -0.2849
  104OSM    C8S10547   5.008   4.688  10.127  0.3064  0.2774  0.0889
  104OSM    H8S10548   4.940   4.612  10.171  1.5691 -1.7280 -1.2540
  104OSM    H8T10549   5.105   4.634  10.121  0.3433  0.4754 -1.8204
  104OSM    C9S10550   4.946   4.733   9.995 -0.4038 -0.1110 -0.5101
  104OSM    H9S10551   5.001   4.824   9.962 -1.4706  0.0325 -1.9948
  104OSM    H9T10552   4.846   4.765  10.031  1.6684  2.5156  3.7293
  104OSM   C10S10553   4.934   4.636   9.879  0.3001  0.0887 -0.1619
  104OSM   H10S10554   4.891   4.539   9.911 -0.6563  0.0855 -1.3796
  104OSM   H10T10555   5.037   4.620   9.839  1.1911 -0.6688  2.2549
  104OSM   C11S10556   4.840   4.699   9.768 -0.5117 -0.0634 -0.2045
  104OSM   H11S10557   4.868   4.804   9.743 -1.4298  0.5209  1.0784
  104OSM   H11T10558   4.732   4.685   9.789 -1.0537  3.4350 -0.0062
  104OSM   C12S10559   4.865   4.624   9.631 -0.2025 -0.4408  0.1442
  104OSM   H12S10560   4.805   4.530   9.631  0.2498 -0.7291  0.1406
  104OSM   H12T10561   4.971   4.594   9.618  0.2502  1.8406 -2.2080
  104OSM   C13S10562   4.831   4.726   9.519 -0.7292  0.3123 -0.4873
  104OSM   H13S10563   4.901   4.813   9.518  0.5573 -0.6935 -0.7285
  104OSM   H13T10564   4.736   4.773   9.551 -0.5549 -0.8628  1.9559
  104OSM   C14S10565   4.811   4.652   9.386  0.0674 -0.1031  1.0098
  104OSM   H14S10566   4.734   4.576   9.406  0.7712 -1.3012 -0.6364
  104OSM   H14T10567   4.912   4.613   9.359 -0.2062 -0.5348  0.6007
  104OSM   C15S10568   4.757   4.749   9.280  0.3048  0.5463 -0.0012
  104OSM   H15S10569   4.844   4.804   9.237  1.1805  0.5325  1.6852
  104OSM   H15T10570   4.687   4.827   9.316  0.5602  0.4505  0.7100
  104OSM   C16S10571   4.690   4.680   9.164 -0.5832  0.3782  0.1600
  104OSM   H16S10572   4.759   4.604   9.122 -1.2526  0.7874 -1.7647
  104OSM   H16T10573   4.672   4.747   9.077  1.2906 -1.4474 -1.7494
  104OSM   C17S10574   4.549   4.627   9.191  0.6393 -0.5417  0.4485
  104OSM   H17S10575   4.495   4.718   9.226  1.7335 -0.0426  0.8682
  104OSM   H17T10576   4.550   4.554   9.275 -4.4730  0.6302  1.8867
  104OSM   C18S10577   4.479   4.553   9.076  0.1428 -0.2019 -0.1414
  104OSM   H18S10578   4.444   4.620   8.994 -2.4794 -1.8839 -0.5238
  104OSM   H18T10579   4.381   4.510   9.106 -0.7541  1.3335 -0.7883
  104OSM   H18U10580   4.538   4.470   9.031 -0.1496 -0.9388  0.7873
  104OSM    C1F10581   5.291   5.245  10.318 -0.2884  1.0412 -0.2542
  104OSM     OF10582   5.400   5.231  10.374 -0.2759 -0.2101  0.1182
  104OSM    C2F10583   5.267   5.292  10.187  0.1569  0.1277  0.5823
  104OSM    H2F10584   5.362   5.329  10.146 -0.0370 -0.3722 -0.3432
  104OSM    H2G10585   5.198   5.379  10.193 -1.6126 -1.1430 -0.3730
  104OSM    C3F10586   5.214   5.170  10.105  0.5516 -0.0288 -0.4014
  104OSM    H3F10587   5.186   5.210  10.005  1.4443  2.1752  0.1853
  104OSM    H3G10588   5.120   5.126  10.147 -0.0563  1.1697 -0.4598
  104OSM    C4F10589   5.322   5.056  10.091 -0.4163  0.9837 -0.2730
  104OSM    H4F10590   5.316   4.996  10.185 -2.2607 -2.3972 -2.3239
  104OSM    H4G10591   5.416   5.113  10.082 -1.2768  2.5943  0.6106
  104OSM    C5F10592   5.304   4.952   9.984  0.5175  0.7417 -0.1414
  104OSM    H5F10593   5.211   4.897  10.012  0.6724  0.2026 -0.6725
  104OSM    H5G10594   5.388   4.880   9.976 -0.1128 -0.0310 -0.0487
  104OSM    C6F10595   5.262   5.016   9.850 -0.2364 -0.3810  0.3196
  104OSM    H6F10596   5.334   5.092   9.815 -1.1533  0.0793 -0.6070
  104OSM    H6G10597   5.164   5.066   9.865 -0.7095 -1.1835  0.0051
  104OSM    C7F10598   5.244   4.906   9.744 -0.4658 -0.2531 -0.6084
  104OSM    H7F10599   5.169   4.840   9.791 -1.2138  0.7683 -0.3312
  104OSM    H7G10600   5.343   4.856   9.744 -0.3347 -0.0145  0.4927
  104OSM    C8F10601   5.197   4.949   9.611  0.1404  0.0445  0.0257
  104OSM    H8F10602   5.110   5.015   9.630  0.2630  0.8266 -1.8823
  104OSM    H8G10603   5.152   4.858   9.566 -3.1217  2.2925 -1.6120
  104OSM    C9F10604   5.313   5.018   9.540  0.2269 -0.1598 -0.1582
  104OSM    H9F10605   5.367   5.085   9.608 -1.4918 -0.3793  1.5043
  104OSM   C10F10606   5.350   5.002   9.415  0.2356  0.5439  0.9540
  104OSM   H10F10607   5.429   5.065   9.372  0.7597 -0.8918 -0.2815
  104OSM   C11F10608   5.284   4.911   9.317  0.5548 -0.1657  0.0274
  104OSM   H11F10609   5.254   4.818   9.370  0.1060  0.7734  1.4902
  104OSM   H11G10610   5.355   4.883   9.236 -0.4246 -0.4085 -0.7603
  104OSM   C12F10611   5.166   4.974   9.247  0.2382 -0.3050  0.3458
  104OSM   H12F10612   5.112   5.052   9.304 -2.1800 -1.6714  0.0618
  104OSM   H12G10613   5.095   4.890   9.234  0.6464 -0.4434 -1.1817
  104OSM   C13F10614   5.194   5.027   9.104 -0.1825  0.1568  0.0294
  104OSM   H13F10615   5.206   4.946   9.030  0.3755  1.2098 -1.0773
  104OSM   H13G10616   5.295   5.073   9.107 -0.0022 -0.2304 -0.1687
  104OSM   C14F10617   5.084   5.125   9.051 -0.3702 -0.6043  1.5143
  104OSM   H14F10618   5.065   5.203   9.128  2.1428  1.0477  0.5680
  104OSM   H14G10619   4.991   5.077   9.013  0.0141 -1.6863  1.9113
  104OSM   C15F10620   5.143   5.180   8.921  0.9690 -0.0687 -0.3953
  104OSM   H15F10621   5.130   5.090   8.858 -0.1514 -1.4132  1.6628
  104OSM   H15G10622   5.252   5.192   8.939  1.0715 -0.3782 -0.7966
  104OSM   C16F10623   5.093   5.314   8.868  0.2568 -0.0010 -0.3680
  104OSM   H16F10624   5.102   5.402   8.935 -2.1656  0.6323 -0.8101
  104OSM   H16G10625   4.984   5.300   8.858  0.2716  0.5604 -1.3822
  104OSM   C17F10626   5.145   5.346   8.725  0.2527 -0.4638  0.0261
  104OSM   H17F10627   5.155   5.244   8.680 -2.1837 -0.1820 -1.3210
  104OSM   H17G10628   5.247   5.388   8.717 -0.0666  0.1950 -0.7093
  104OSM   C18F10629   5.045   5.430   8.637  0.2347 -0.1636 -0.0415
  104OSM   H18F10630   5.039   5.534   8.677 -0.3446  0.0515 -0.6850
  104OSM   H18G10631   4.947   5.379   8.630  0.1393  0.1257 -0.9530
  104OSM   H18H10632   5.079   5.433   8.532  0.7694 -0.2697  0.1248
  105OSM      N10633   3.728   0.582  10.970  0.1375  0.0669  0.0367
  105OSM    C1510634   3.609   0.502  11.002  0.5687  0.4372 -0.7237
  105OSM   H15A10635   3.569   0.453  10.914  0.4502 -2.0011  0.5942
  105OSM   H15B10636   3.522   0.558  11.035 -0.4822 -1.6084  0.1641
  105OSM   H15C10637   3.623   0.419  11.070 -1.4160  0.6926  0.0739
  105OSM    C1410638   3.767   0.662  11.095 -0.0033  0.1602 -0.0030
  105OSM   H14A10639   3.867   0.699  11.080 -0.5554  1.1740 -1.4302
  105OSM   H14B10640   3.751   0.600  11.182 -1.1231 -0.2921 -0.5165
  105OSM   H14C10641   3.698   0.745  11.102 -0.6054 -0.2838 -0.5970
  105OSM    C1310642   3.846   0.494  10.938 -0.2355  0.0647  0.4657
  105OSM   H13A10643   3.873   0.439  11.027 -2.1533 -0.3428  0.8548
  105OSM   H13B10644   3.927   0.561  10.915  0.5657 -0.9905  0.1736
  105OSM   H13C10645   3.832   0.428  10.853 -0.5572  2.6068 -1.5781
  105OSM    C1210646   3.707   0.681  10.858  0.4991  0.3751 -0.7062
  105OSM   H12A10647   3.803   0.725  10.837 -0.7025  3.1084 -0.9093
  105OSM   H12B10648   3.634   0.756  10.888 -2.6078 -2.8742  0.6593
  105OSM    C1110649   3.668   0.633  10.719 -0.0205 -0.0475  0.2276
  105OSM   H11A10650   3.733   0.550  10.682  1.1254  1.3348 -0.9825
  105OSM   H11B10651   3.685   0.714  10.645  1.2544 -0.9451 -0.4985
  105OSM      P10652   3.417   0.687  10.693  0.3724  0.2000 -0.1482
  105OSM    O1310653   3.292   0.610  10.725 -0.6501  0.2651 -0.1977
  105OSM    O1410654   3.444   0.808  10.769  0.1341 -0.1770  0.1644
  105OSM    O1110655   3.417   0.725  10.541  0.2066 -0.5008 -0.3543
  105OSM    O1210656   3.529   0.583  10.718  0.3276 -0.3607  0.3905
  105OSM    C1S10657   3.295   0.794  10.488 -0.0882 -0.2187 -0.2870
  105OSM    H1S10658   3.280   0.887  10.546  1.3084 -0.2778  0.1950
  105OSM    H1T10659   3.200   0.738  10.505  0.6015 -0.9009  1.6181
  105OSM     NF10660   3.192   0.892  10.288 -0.3397 -0.0965  0.4200
  105OSM    HNF10661   3.105   0.846  10.271 -0.4199 -0.0027  0.5723
  105OSM    C2S10662   3.308   0.814  10.335 -0.2401 -0.4417  1.0923
  105OSM    H2S10663   3.403   0.868  10.317  0.6244 -2.3916 -0.6376
  105OSM    C3S10664   3.328   0.676  10.262 -0.2139  0.1597  0.4033
  105OSM    H3S10665   3.231   0.628  10.239  1.2018 -1.2284 -3.6046
  105OSM     O310666   3.407   0.587  10.332  0.0198  0.0834 -0.0831
  105OSM    HO310667   3.408   0.621  10.422  1.1366 -2.5256  0.9979
  105OSM    C4S10668   3.407   0.687  10.135  0.2264 -0.3077  0.4393
  105OSM    H4S10669   3.510   0.725  10.147  0.4239 -0.4330 -0.7555
  105OSM    C5S10670   3.375   0.637  10.011  1.0075 -0.5666 -0.4724
  105OSM    H5S10671   3.274   0.596   9.995  0.6735  0.5518 -1.3443
  105OSM    C6S10672   3.470   0.650   9.897 -0.1116 -0.2717  0.0573
  105OSM    H6S10673   3.556   0.581   9.908 -0.0717 -0.4688 -1.2637
  105OSM    H6T10674   3.517   0.750   9.885 -1.0446  0.0060 -1.6227
  105OSM    C7S10675   3.401   0.620   9.757  0.0453  0.6339 -0.3866
  105OSM    H7S10676   3.349   0.715   9.730  0.4221  1.1624  0.6902
  105OSM    H7T10677   3.315   0.552   9.773  0.3811  0.5671  1.3453
  105OSM    C8S10678   3.491   0.582   9.640  0.5167 -0.2989  0.4337
  105OSM    H8S10679   3.430   0.512   9.579 -2.1080  1.1652  1.2456
  105OSM    H8T10680   3.579   0.527   9.680  0.3785  0.8116  2.3933
  105OSM    C9S10681   3.536   0.702   9.552 -0.1834  0.4209  1.0661
  105OSM    H9S10682   3.586   0.789   9.600 -0.6986  2.2670 -1.4982
  105OSM    H9T10683   3.443   0.748   9.510  0.0864 -0.8197 -1.0637
  105OSM   C10S10684   3.628   0.659   9.436 -0.0234  0.8622 -0.6861
  105OSM   H10S10685   3.567   0.595   9.368  2.9238 -5.3693  1.7709
  105OSM   H10T10686   3.708   0.607   9.493  0.2880  3.1973  1.1559
  105OSM   C11S10687   3.691   0.771   9.368  0.0576 -0.0951  0.3353
  105OSM   H11S10688   3.754   0.830   9.438 -0.2184 -1.5089  1.8365
  105OSM   H11T10689   3.616   0.844   9.332 -1.4152 -1.2425  0.9926
  105OSM   C12S10690   3.774   0.727   9.240 -0.8104  0.3523  0.4352
  105OSM   H12S10691   3.861   0.672   9.280  1.6240  3.9314  0.5600
  105OSM   H12T10692   3.818   0.817   9.190  1.4780 -1.6331 -1.3751
  105OSM   C13S10693   3.684   0.657   9.134 -0.3103  0.5092 -0.0150
  105OSM   H13S10694   3.596   0.716   9.100  0.8900  3.8010  2.0495
  105OSM   H13T10695   3.655   0.559   9.177 -0.5925  0.7523  0.3643
  105OSM   C14S10696   3.772   0.622   9.013 -0.5600 -0.6601 -0.0068
  105OSM   H14S10697   3.725   0.540   8.954 -0.5121  0.3167 -1.4402
  105OSM   H14T10698   3.868   0.578   9.048 -2.1286 -3.9659  0.5544
  105OSM   C15S10699   3.796   0.743   8.922 -0.2085 -0.2328  0.0742
  105OSM   H15S10700   3.843   0.831   8.970  0.5040  0.8477 -2.4216
  105OSM   H15T10701   3.694   0.773   8.891 -0.2864  0.4221  0.9297
  105OSM   C16S10702   3.871   0.705   8.792 -0.1617  0.0690  0.4891
  105OSM   H16S10703   3.830   0.615   8.741 -0.1535  0.5530 -0.3953
  105OSM   H16T10704   3.975   0.678   8.817  0.5261  0.1594 -1.9561
  105OSM   C17S10705   3.884   0.816   8.686 -0.3562 -0.1073  0.3994
  105OSM   H17S10706   3.947   0.777   8.603  0.1264 -0.7028  1.0311
  105OSM   H17T10707   3.932   0.899   8.743  0.8015  0.4306 -1.2860
  105OSM   C18S10708   3.754   0.854   8.630  0.2668  0.2028  0.3604
  105OSM   H18S10709   3.688   0.919   8.690 -0.5747  2.0584 -2.3669
  105OSM   H18T10710   3.696   0.760   8.625 -0.1446  0.3351  2.1488
  105OSM   H18U10711   3.759   0.903   8.530 -3.4949  0.6495  0.2744
  105OSM    C1F10712   3.193   1.029  10.310  0.4116  0.5297 -0.3250
  105OSM     OF10713   3.285   1.081  10.366 -0.5557  0.0858  0.2321
  105OSM    C2F10714   3.074   1.120  10.262 -0.4441 -0.2276  0.2677
  105OSM    H2F10715   3.015   1.150  10.351 -1.0571  4.1300 -1.3983
  105OSM    H2G10716   3.019   1.048  10.199  1.2348  0.0526 -1.5996
  105OSM    C3F10717   3.110   1.237  10.170 -0.2717  0.0182 -0.4236
  105OSM    H3F10718   3.160   1.316  10.229  0.6397 -1.3578  0.6824
  105OSM    H3G10719   3.022   1.288  10.124  0.7535  1.6328 -0.6906
  105OSM    C4F10720   3.201   1.202  10.057 -1.2215  0.3973 -0.5206
  105OSM    H4F10721   3.296   1.163  10.100 -0.4885  2.5156 -0.0999
  105OSM    H4G10722   3.235   1.288   9.996  2.1280  0.4402  1.2195
  105OSM    C5F10723   3.151   1.101   9.953  0.2948 -1.4061  0.3113
  105OSM    H5F10724   3.048   1.130   9.923  0.6832 -0.8030 -0.4451
  105OSM    H5G10725   3.143   1.003  10.005  0.0095  0.5515  4.3751
  105OSM    C6F10726   3.235   1.088   9.831  0.2315  0.1453  0.4937
  105OSM    H6F10727   3.204   0.998   9.773 -0.1390 -0.0884  1.0446
  105OSM    H6G10728   3.341   1.093   9.861 -0.0371  0.0206  1.5089
  105OSM    C7F10729   3.201   1.198   9.733 -0.5998  0.0503  0.9637
  105OSM    H7F10730   3.217   1.295   9.784  0.6116 -1.1956  3.0663
  105OSM    H7G10731   3.093   1.181   9.712 -0.8751 -2.7064  3.9525
  105OSM    C8F10732   3.290   1.178   9.598  0.1671 -0.1709 -0.3253
  105OSM    H8F10733   3.293   1.073   9.564  0.4364 -0.0469 -0.6951
  105OSM    H8G10734   3.398   1.194   9.618 -0.4844  2.0914  1.9078
  105OSM    C9F10735   3.234   1.286   9.508  0.0515 -0.0091  0.9484
  105OSM    H9F10736   3.256   1.389   9.541 -2.0996  0.8725 -0.1714
  105OSM   C10F10737   3.160   1.267   9.398 -0.6740 -0.0555  0.1758
  105OSM   H10F10738   3.123   1.356   9.346  2.5350  0.5441 -1.2886
  105OSM   C11F10739   3.121   1.133   9.340  0.3735  0.6713 -0.0870
  105OSM   H11F10740   3.024   1.142   9.286  1.1589  1.6506 -1.3840
  105OSM   H11G10741   3.118   1.064   9.427  0.5724 -1.0933 -1.4228
  105OSM   C12F10742   3.235   1.110   9.236 -0.2064  0.2252  0.3491
  105OSM   H12F10743   3.335   1.120   9.283  0.5455  0.7967 -1.2986
  105OSM   H12G10744   3.221   1.195   9.165 -0.2772  0.7846  1.0209
  105OSM   C13F10745   3.230   0.979   9.159 -0.5676  0.7550  0.6086
  105OSM   H13F10746   3.301   0.982   9.074 -0.4062  0.7334  0.7414
  105OSM   H13G10747   3.134   0.969   9.105 -0.4121  0.9640  0.2927
  105OSM   C14F10748   3.262   0.857   9.248  0.6106  0.0105 -0.1054
  105OSM   H14F10749   3.200   0.845   9.340 -1.1188  3.1307 -0.7420
  105OSM   H14G10750   3.369   0.861   9.276  0.9241  2.8817 -1.4026
  105OSM   C15F10751   3.244   0.728   9.157 -0.2163 -0.2562  0.0887
  105OSM   H15F10752   3.301   0.745   9.063  1.0987 -0.1617  0.8632
  105OSM   H15G10753   3.137   0.735   9.128 -0.4234 -0.0786  0.8757
  105OSM   C16F10754   3.281   0.594   9.207 -0.0397 -0.1664  0.5007
  105OSM   H16F10755   3.385   0.564   9.234 -0.2737 -2.2567 -0.6905
  105OSM   H16G10756   3.255   0.520   9.128  0.5015 -0.0496  0.2077
  105OSM   C17F10757   3.193   0.554   9.333  0.4089 -0.1096  0.2599
  105OSM   H17F10758   3.217   0.625   9.415 -2.0273  0.2781  0.7293
  105OSM   H17G10759   3.236   0.461   9.375 -0.8730 -0.2789  1.3066
  105OSM   C18F10760   3.038   0.548   9.324 -0.2560 -0.4014  0.3036
  105OSM   H18F10761   3.018   0.458   9.262 -1.4650  0.0860 -0.0297
  105OSM   H18G10762   2.997   0.641   9.280  0.5290  1.0581  2.5195
  105OSM   H18H10763   2.998   0.546   9.427  0.1696  1.5695  0.5483
  106OSM      N10764   1.005   1.517  10.914 -0.1374  0.3134 -0.1042
  106OSM    C1510765   1.137   1.561  10.964  0.5380 -0.1115 -0.7035
  106OSM   H15A10766   1.133   1.595  11.067  1.4608 -2.5816  0.2279
  106OSM   H15B10767   1.184   1.643  10.912  0.4992 -0.2621 -0.9755
  106OSM   H15C10768   1.202   1.474  10.962 -1.5727 -1.7806 -1.0771
  106OSM    C1410769   0.960   1.387  10.980  0.2512  0.4218 -0.3162
  106OSM   H14A10770   0.860   1.359  10.953  1.1092 -0.9548 -2.2883
  106OSM   H14B10771   0.963   1.396  11.087  0.0284 -2.5216  0.0065
  106OSM   H14C10772   1.021   1.303  10.950  0.5650 -0.4883  2.5696
  106OSM    C1310773   0.906   1.620  10.949  0.1626  0.0045  0.6119
  106OSM   H13A10774   0.802   1.592  10.938 -0.1054  1.6299 -1.6666
  106OSM   H13B10775   0.912   1.703  10.880 -0.3269  1.1490  1.8942
  106OSM   H13C10776   0.930   1.667  11.043  1.2391  0.2519  0.2186
  106OSM    C1210777   1.021   1.496  10.757 -0.3275  0.0079 -0.5320
  106OSM   H12A10778   0.933   1.446  10.719  0.8713 -1.2233 -1.8020
  106OSM   H12B10779   1.103   1.427  10.743 -0.2724 -0.1154  0.3468
  106OSM    C1110780   1.063   1.616  10.667 -0.9146 -0.0751 -0.4188
  106OSM   H11A10781   0.983   1.693  10.673 -0.1601  0.6960 -0.1533
  106OSM   H11B10782   1.064   1.598  10.557 -0.3609  3.7504 -1.1701
  106OSM      P10783   1.220   1.813  10.664 -0.1607  0.2569 -0.4174
  106OSM    O1310784   1.112   1.892  10.720  0.1711 -0.2131  0.2503
  106OSM    O1410785   1.362   1.844  10.704 -0.1724  0.2106  0.2541
  106OSM    O1110786   1.213   1.801  10.504 -1.0234  0.6990 -0.0314
  106OSM    O1210787   1.189   1.663  10.712 -1.5384  0.1137  0.1556
  106OSM    C1S10788   1.297   1.702  10.437  0.2874 -0.5547 -0.7369
  106OSM    H1S10789   1.235   1.610  10.435  1.2768 -1.2203 -1.0778
  106OSM    H1T10790   1.401   1.695  10.472  1.0277 -1.1297 -2.8678
  106OSM     NF10791   1.389   1.627  10.226 -0.1768  0.2576  0.7764
  106OSM    HNF10792   1.488   1.625  10.236 -0.0939  1.2386  0.2564
  106OSM    C2S10793   1.330   1.743  10.289  0.7274 -0.5362  0.3343
  106OSM    H2S10794   1.237   1.768  10.235  0.4422  0.0342  1.0735
  106OSM    C3S10795   1.424   1.869  10.294  0.0396  0.0295  0.5520
  106OSM    H3S10796   1.525   1.846  10.335  0.3317  1.6579  0.7942
  106OSM     O310797   1.381   1.974  10.380  0.3290  0.8998 -0.1264
  106OSM    HO310798   1.301   1.931  10.411 -0.1228  0.0416 -2.2540
  106OSM    C4S10799   1.442   1.926  10.150  0.0820  0.4203 -0.8293
  106OSM    H4S10800   1.341   1.957  10.123 -0.4425  0.2264  0.8054
  106OSM    C5S10801   1.556   1.940  10.081  0.6055 -0.1723  0.0414
  106OSM    H5S10802   1.654   1.924  10.128  1.3143 -1.5597 -1.7964
  106OSM    C6S10803   1.576   1.989   9.944 -0.5813 -0.1772 -0.3666
  106OSM    H6S10804   1.661   1.934   9.900 -2.7010 -5.0964  1.0220
  106OSM    H6T10805   1.604   2.097   9.940  0.8738 -0.4428  1.5029
  106OSM    C7S10806   1.456   1.959   9.856  0.5308 -0.0040 -0.4043
  106OSM    H7S10807   1.359   1.988   9.902 -0.8419 -3.4848 -0.7555
  106OSM    H7T10808   1.436   1.850   9.844 -2.1153  0.2806  0.7319
  106OSM    C8S10809   1.469   2.009   9.708 -0.4626  0.1533  0.1025
  106OSM    H8S10810   1.574   1.985   9.681  0.7865  2.7951  2.1635
  106OSM    H8T10811   1.470   2.119   9.695  2.6073  0.1824 -0.1734
  106OSM    C9S10812   1.375   1.949   9.606 -0.0063  0.5964  1.1124
  106OSM    H9S10813   1.276   1.947   9.654  0.4745 -2.3818  2.1650
  106OSM    H9T10814   1.408   1.847   9.576 -1.4119  0.5932 -0.5926
  106OSM   C10S10815   1.370   2.023   9.478 -0.4294  0.2611  0.2781
  106OSM   H10S10816   1.465   2.008   9.422 -0.9913 -0.2237 -0.5840
  106OSM   H10T10817   1.359   2.130   9.506 -1.6302 -0.1748  1.6061
  106OSM   C11S10818   1.247   1.999   9.390  0.5446  0.3380 -0.1367
  106OSM   H11S10819   1.155   2.013   9.450  1.7515 -1.7987  2.4228
  106OSM   H11T10820   1.258   1.891   9.366  2.3411  0.7966 -1.6018
  106OSM   C12S10821   1.230   2.079   9.263  0.2717 -0.0805 -0.1887
  106OSM   H12S10822   1.181   2.177   9.281 -0.6486 -0.6430  0.4796
  106OSM   H12T10823   1.154   2.019   9.209 -0.6577  1.2842 -0.4632
  106OSM   C13S10824   1.348   2.098   9.165 -0.5686  0.2149  1.1281
  106OSM   H13S10825   1.390   2.001   9.132 -0.8020  0.7058 -0.7754
  106OSM   H13T10826   1.431   2.145   9.221 -2.5955  4.3118  1.0948
  106OSM   C14S10827   1.320   2.181   9.034  0.3431 -0.2802 -0.5236
  106OSM   H14S10828   1.415   2.229   9.005  0.5072  0.3554  0.9485
  106OSM   H14T10829   1.261   2.270   9.066  1.1770 -0.0419  0.4099
  106OSM   C15S10830   1.256   2.100   8.919  0.1472 -0.7133  0.6162
  106OSM   H15S10831   1.157   2.145   8.898  0.4958 -0.2070  0.0442
  106OSM   H15T10832   1.244   1.995   8.955 -2.8584 -0.8084 -0.4239
  106OSM   C16S10833   1.331   2.109   8.787  0.3646 -0.3402  0.6764
  106OSM   H16S10834   1.300   2.026   8.720 -0.4063 -0.0977  0.7314
  106OSM   H16T10835   1.441   2.094   8.800  0.1989 -1.0862  1.3144
  106OSM   C17S10836   1.310   2.232   8.705  0.1946  0.2867  0.2635
  106OSM   H17S10837   1.357   2.318   8.759  2.7621 -0.8787  0.0092
  106OSM   H17T10838   1.202   2.248   8.686 -0.0788 -1.2885  0.3755
  106OSM   C18S10839   1.387   2.224   8.568 -0.2845 -0.7335  0.3279
  106OSM   H18S10840   1.488   2.270   8.572 -0.8880  0.5293  2.9165
  106OSM   H18T10841   1.320   2.274   8.494 -0.5788 -1.3090  0.1957
  106OSM   H18U10842   1.405   2.116   8.550  0.7566 -0.8163  1.7527
  106OSM    C1F10843   1.311   1.535  10.183  0.5267  0.3614  0.2420
  106OSM     OF10844   1.189   1.543  10.201  0.1207  0.3384 -0.4077
  106OSM    C2F10845   1.385   1.415  10.119  0.6020 -0.7910 -0.1809
  106OSM    H2F10846   1.394   1.349  10.208 -2.2791  2.2343  2.6630
  106OSM    H2G10847   1.486   1.453  10.095  1.3897 -1.6818  1.5068
  106OSM    C3F10848   1.313   1.358   9.992 -0.3448 -0.1501  1.4857
  106OSM    H3F10849   1.202   1.356  10.002 -0.4867  1.5205  0.5730
  106OSM    H3G10850   1.344   1.252   9.984  1.7112  0.4548  0.6345
  106OSM    C4F10851   1.353   1.422   9.857  0.2164  0.1327 -0.5646
  106OSM    H4F10852   1.464   1.423   9.854  0.2125  1.9008 -1.3696
  106OSM    H4G10853   1.313   1.525   9.843 -0.1489 -0.1353 -1.5577
  106OSM    C5F10854   1.322   1.323   9.749  0.0834  0.1791 -0.3966
  106OSM    H5F10855   1.212   1.313   9.742 -0.1924  1.2224  1.5376
  106OSM    H5G10856   1.364   1.223   9.772 -2.2613 -0.7105  0.2796
  106OSM    C6F10857   1.370   1.380   9.617 -0.8156  0.3799  0.3698
  106OSM    H6F10858   1.474   1.416   9.631 -0.2473 -0.3288 -1.7420
  106OSM    H6G10859   1.305   1.467   9.592  1.3076  2.1357  0.6763
  106OSM    C7F10860   1.374   1.284   9.494  0.6445 -0.3056 -0.2265
  106OSM    H7F10861   1.344   1.352   9.411 -1.4105 -3.5273 -2.3159
  106OSM    H7G10862   1.297   1.208   9.519  1.0991 -1.9795 -3.4429
  106OSM    C8F10863   1.513   1.219   9.470  0.3857 -0.4541 -0.3031
  106OSM    H8F10864   1.529   1.142   9.548  1.9823 -3.3093 -3.1914
  106OSM    H8G10865   1.591   1.297   9.478 -0.3154  0.1456  0.9954
  106OSM    C9F10866   1.526   1.138   9.343 -0.1839 -0.5738 -0.8813
  106OSM    H9F10867   1.506   1.031   9.358 -0.6493 -0.3189  0.5273
  106OSM   C10F10868   1.583   1.170   9.229 -0.5756 -0.0633  0.5470
  106OSM   H10F10869   1.581   1.088   9.155  2.0430  0.1332  0.1901
  106OSM   C11F10870   1.645   1.301   9.184 -0.2606 -0.1474 -0.1445
  106OSM   H11F10871   1.755   1.288   9.175 -0.2298  0.0613 -0.0583
  106OSM   H11G10872   1.626   1.373   9.266 -2.3050 -0.5514 -0.2033
  106OSM   C12F10873   1.581   1.350   9.053  0.5197  0.5366  0.2775
  106OSM   H12F10874   1.620   1.450   9.026  2.6258  0.1812  1.7414
  106OSM   H12G10875   1.472   1.366   9.068  0.6319  3.2501 -1.1907
  106OSM   C13F10876   1.600   1.255   8.933 -0.5111  0.7385 -0.2087
  106OSM   H13F10877   1.563   1.287   8.833  2.2579  1.5564 -1.0693
  106OSM   H13G10878   1.551   1.158   8.956  0.6972  0.0924 -0.2936
  106OSM   C14F10879   1.754   1.239   8.913 -0.2805  0.1194  0.3775
  106OSM   H14F10880   1.803   1.197   9.003  0.5213 -0.5842 -0.3675
  106OSM   H14G10881   1.789   1.344   8.909  0.9984 -0.2853  0.5388
  106OSM   C15F10882   1.797   1.157   8.784 -0.2331 -0.2282 -0.8546
  106OSM   H15F10883   1.906   1.170   8.771 -0.1452 -1.4307 -1.4743
  106OSM   H15G10884   1.747   1.207   8.698  1.3632  2.8834 -0.0938
  106OSM   C16F10885   1.766   1.004   8.806  0.2685 -0.7770 -0.5776
  106OSM   H16F10886   1.665   0.982   8.848  2.4470 -2.1845  4.8067
  106OSM   H16G10887   1.825   0.979   8.897 -2.7285 -0.2426  1.6906
  106OSM   C17F10888   1.811   0.923   8.686 -0.6536 -0.4895  0.5047
  106OSM   H17F10889   1.744   0.953   8.602 -0.7959 -0.0006  0.7902
  106OSM   H17G10890   1.801   0.816   8.712  0.0525 -1.5943 -3.1265
  106OSM   C18F10891   1.964   0.950   8.640  0.3240 -0.2360 -0.4331
  106OSM   H18F10892   2.022   1.005   8.717 -0.8096  0.5920 -0.1422
  106OSM   H18G10893   1.953   1.029   8.563  2.1797 -0.9106 -1.4687
  106OSM   H18H10894   2.018   0.858   8.609 -1.8146 -1.4307 -0.8255
  107OSM      N10895   4.637   5.168  10.975  0.0466  0.4836  0.6980
  107OSM    C1510896   4.538   5.064  10.980  0.5786  0.8859 -0.4366
  107OSM   H15A10897   4.568   4.969  11.024 -0.6798  0.7541  0.1599
  107OSM   H15B10898   4.510   5.040  10.878  2.2578  1.0116 -0.9657
  107OSM   H15C10899   4.442   5.093  11.018 -1.2329 -3.3642 -1.1000
  107OSM    C1410900   4.672   5.209  11.115 -0.3437  0.1710 -0.1822
  107OSM   H14A10901   4.588   5.268  11.148 -1.3942 -0.0034 -2.3240
  107OSM   H14B10902   4.757   5.275  11.122 -0.1810 -0.1912  1.5089
  107OSM   H14C10903   4.690   5.120  11.173 -0.5102 -0.1110 -0.5577
  107OSM    C1310904   4.764   5.122  10.910  0.3412 -0.0269 -0.1877
  107OSM   H13A10905   4.832   5.201  10.884  1.0544 -0.1302  1.2603
  107OSM   H13B10906   4.744   5.083  10.811  0.8945  0.6527 -0.5769
  107OSM   H13C10907   4.815   5.045  10.966  0.6201 -0.3864 -0.9233
  107OSM    C1210908   4.593   5.296  10.890  0.7175  0.2743  0.3574
  107OSM   H12A10909   4.576   5.254  10.792 -0.7670  0.6585  0.4215
  107OSM   H12B10910   4.681   5.358  10.888  2.1061 -1.5443 -2.8963
  107OSM    C1110911   4.462   5.370  10.937  0.9101  0.3478 -0.4346
  107OSM   H11A10912   4.433   5.454  10.870 -1.6168 -0.3397 -0.3020
  107OSM   H11B10913   4.471   5.414  11.039 -0.2039  0.3719 -0.3391
  107OSM      P10914   4.241   5.255  10.834  0.1020  0.2137 -0.1663
  107OSM    O1310915   4.300   5.165  10.734 -0.2842 -0.0684 -0.4727
  107OSM    O1410916   4.106   5.218  10.886 -0.0272 -0.1778  0.0500
  107OSM    O1110917   4.214   5.394  10.764 -0.5362  0.3434  0.3303
  107OSM    O1210918   4.353   5.279  10.949  0.1588 -0.5041  0.1482
  107OSM    C1S10919   4.270   5.432  10.639  0.2530 -0.0365  0.3522
  107OSM    H1S10920   4.364   5.376  10.616  0.5916  0.2570  1.0045
  107OSM    H1T10921   4.313   5.534  10.651 -0.1467  0.0580  1.0270
  107OSM     NF10922   4.232   5.486  10.404 -0.7038 -0.4516  0.3932
  107OSM    HNF10923   4.214   5.581  10.384  0.8458 -0.1023  0.5028
  107OSM    C2S10924   4.169   5.417  10.516 -1.0286  0.7722 -0.1795
  107OSM    H2S10925   4.169   5.308  10.494 -1.1454  1.2349 -2.8625
  107OSM    C3S10926   4.021   5.473  10.546  0.0849  0.7539 -0.5986
  107OSM    H3S10927   4.031   5.583  10.554 -1.6591  1.0870 -2.2708
  107OSM     O310928   3.965   5.434  10.673 -0.2394  0.3852  0.1029
  107OSM    HO310929   4.043   5.399  10.717 -0.0515 -0.7663 -1.0983
  107OSM    C4S10930   3.934   5.433  10.431 -1.0501  0.1480 -0.2633
  107OSM    H4S10931   3.927   5.516  10.358 -0.4762 -0.1806 -0.6973
  107OSM    C5S10932   3.878   5.315  10.415 -0.2517  0.3848  0.7690
  107OSM    H5S10933   3.907   5.240  10.490 -2.5136  1.2838  2.6690
  107OSM    C6S10934   3.796   5.276  10.299 -0.1105  0.2032 -0.2650
  107OSM    H6S10935   3.716   5.352  10.281  0.1374  0.0370 -2.3555
  107OSM    H6T10936   3.746   5.181  10.326  0.8973 -0.3732 -0.4124
  107OSM    C7S10937   3.864   5.258  10.165 -0.6181  0.4681  0.0963
  107OSM    H7S10938   3.957   5.199  10.178 -0.8031  0.2517  0.4548
  107OSM    H7T10939   3.890   5.359  10.128  3.6714 -0.8972 -1.2959
  107OSM    C8S10940   3.774   5.184  10.063  0.2460  0.0534 -0.0312
  107OSM    H8S10941   3.676   5.236  10.062 -1.1992 -2.4588 -2.6145
  107OSM    H8T10942   3.740   5.088  10.107  1.2935 -1.1561 -1.7421
  107OSM    C9S10943   3.837   5.153   9.926 -1.0799  0.3285  0.1469
  107OSM    H9S10944   3.889   5.055   9.929 -1.7829 -0.0353  1.8358
  107OSM    H9T10945   3.918   5.227   9.909 -0.5239 -0.8027 -2.6077
  107OSM   C10S10946   3.745   5.127   9.811  0.3819 -0.3908  0.5150
  107OSM   H10S10947   3.680   5.216   9.794 -2.1919 -2.5840 -2.2987
  107OSM   H10T10948   3.678   5.043   9.842  0.9996 -0.9732  0.2763
  107OSM   C11S10949   3.813   5.080   9.684 -0.5413  0.3938  0.3000
  107OSM   H11S10950   3.883   4.997   9.707 -0.4129  0.9924  2.2747
  107OSM   H11T10951   3.872   5.162   9.639  0.5101 -1.8278 -2.7101
  107OSM   C12S10952   3.724   5.022   9.575  0.0785 -1.2384  0.5326
  107OSM   H12S10953   3.776   5.041   9.478  0.6372  2.3950  1.3959
  107OSM   H12T10954   3.624   5.069   9.562  0.1444 -1.0690  0.6423
  107OSM   C13S10955   3.712   4.865   9.588  0.1888 -0.0595 -0.2618
  107OSM   H13S10956   3.657   4.856   9.685  1.9550  3.0346  1.2031
  107OSM   H13T10957   3.806   4.809   9.608 -0.7526 -0.9251  2.0790
  107OSM   C14S10958   3.630   4.806   9.468  0.1238 -0.0312 -0.6801
  107OSM   H14S10959   3.564   4.888   9.433  0.3208  0.5130  0.2033
  107OSM   H14T10960   3.556   4.740   9.518 -2.8043  3.6632  0.3093
  107OSM   C15S10961   3.719   4.747   9.362  0.0160 -0.0562 -0.3478
  107OSM   H15S10962   3.781   4.661   9.395 -0.6076 -0.0341  0.9089
  107OSM   H15T10963   3.795   4.824   9.335 -0.6819  0.5736 -0.5474
  107OSM   C16S10964   3.647   4.696   9.231 -0.8876  0.1594  0.6742
  107OSM   H16S10965   3.605   4.593   9.236 -0.8678 -0.0803 -2.3029
  107OSM   H16T10966   3.736   4.679   9.167 -0.3630 -1.3888  1.7664
  107OSM   C17S10967   3.554   4.794   9.162 -0.1217  0.1062  0.0829
  107OSM   H17S10968   3.501   4.856   9.238  0.1338  0.7706 -0.2661
  107OSM   H17T10969   3.487   4.747   9.088  2.2480 -0.3600 -1.9164
  107OSM   C18S10970   3.638   4.897   9.076  0.3126  0.3752 -0.1095
  107OSM   H18S10971   3.692   4.976   9.132  3.1570 -1.5330  0.0487
  107OSM   H18T10972   3.573   4.941   8.997  1.6789 -1.4625 -2.3822
  107OSM   H18U10973   3.716   4.841   9.019  0.9882  1.2030 -0.0151
  107OSM    C1F10974   4.330   5.440  10.328 -0.2152  0.8706 -0.2117
  107OSM     OF10975   4.381   5.332  10.343 -0.3797 -0.3527  0.0733
  107OSM    C2F10976   4.377   5.541  10.222  0.4351  0.8250 -0.5426
  107OSM    H2F10977   4.487   5.548  10.238  0.6247  0.9715 -1.7994
  107OSM    H2G10978   4.346   5.645  10.247 -1.1562  0.3034 -0.2581
  107OSM    C3F10979   4.342   5.499  10.075 -0.3361  0.3901 -0.2056
  107OSM    H3F10980   4.367   5.392  10.063  1.8536  0.9404 -1.3128
  107OSM    H3G10981   4.408   5.564  10.011 -0.3814  0.5710 -0.0682
  107OSM    C4F10982   4.194   5.520  10.040  0.0233  0.0953  0.3706
  107OSM    H4F10983   4.159   5.621  10.074  0.0140  0.5849 -1.0476
  107OSM    H4G10984   4.141   5.441  10.098  0.2385  0.3786  0.9685
  107OSM    C5F10985   4.155   5.503   9.888  0.1483  0.6869  0.1620
  107OSM    H5F10986   4.045   5.502   9.876  0.2893 -1.0151 -1.6353
  107OSM    H5G10987   4.192   5.402   9.858  1.5725  1.3506 -0.4389
  107OSM    C6F10988   4.222   5.597   9.786 -0.5176  0.8165  0.2494
  107OSM    H6F10989   4.319   5.555   9.754 -1.0470 -0.6827  0.5083
  107OSM    H6G10990   4.252   5.693   9.834 -0.3700  0.7491  0.2916
  107OSM    C7F10991   4.142   5.615   9.658 -0.6320  0.0991 -0.3276
  107OSM    H7F10992   4.207   5.674   9.589 -2.8349  1.5715 -1.2708
  107OSM    H7G10993   4.044   5.664   9.671 -0.1422  1.3057 -0.9861
  107OSM    C8F10994   4.106   5.486   9.574  0.4763 -0.3789  0.1956
  107OSM    H8F10995   4.024   5.498   9.500 -0.7459  0.0427  1.5717
  107OSM    H8G10996   4.053   5.420   9.645 -1.7655  0.9338 -0.1646
  107OSM    C9F10997   4.226   5.428   9.500  0.4308  0.4292  0.1251
  107OSM    H9F10998   4.303   5.373   9.556 -0.2124 -1.7154 -0.9584
  107OSM   C10F10999   4.247   5.446   9.366 -0.1930 -0.5466 -1.0853
  107OSM   H10F11000   4.339   5.408   9.318 -0.6195  0.8706 -3.1408
  107OSM   C11F11001   4.173   5.526   9.264  0.4862 -0.1420 -0.3302
  107OSM   H11F11002   4.240   5.609   9.230  2.4582 -0.2005  2.9141
  107OSM   H11G11003   4.077   5.564   9.306 -0.1060 -0.3324 -1.4730
  107OSM   C12F11004   4.124   5.444   9.141 -0.0641 -0.4608  0.3436
  107OSM   H12F11005   4.066   5.504   9.068  0.6387  0.3465  0.4212
  107OSM   H12G11006   4.051   5.364   9.166 -0.1770 -0.2270  0.7770
  107OSM   C13F11007   4.242   5.374   9.075  0.0810  0.5381 -0.2430
  107OSM   H13F11008   4.279   5.293   9.141  2.2200 -0.3847 -2.4082
  107OSM   H13G11009   4.322   5.446   9.049 -0.3983  1.0627 -0.2951
  107OSM   C14F11010   4.198   5.299   8.942 -0.6352  0.1226 -0.0133
  107OSM   H14F11011   4.270   5.216   8.923 -0.2496  0.4028  0.2071
  107OSM   H14G11012   4.237   5.367   8.863  1.4638 -2.2698 -1.1941
  107OSM   C15F11013   4.053   5.258   8.915 -0.0293 -0.0149 -0.1678
  107OSM   H15F11014   3.985   5.344   8.932 -0.0200 -0.1074  0.3507
  107OSM   H15G11015   4.025   5.182   8.991 -0.6132 -1.7445 -2.0170
  107OSM   C16F11016   4.022   5.220   8.769 -0.8167  0.2259 -0.2187
  107OSM   H16F11017   4.061   5.119   8.744 -0.8144  0.7274 -2.5215
  107OSM   H16G11018   4.073   5.279   8.690  0.7034 -1.2702 -0.4312
  107OSM   C17F11019   3.877   5.210   8.725  0.3458  0.9528  0.3330
  107OSM   H17F11020   3.877   5.187   8.616  1.4989  2.3817 -0.0048
  107OSM   H17G11021   3.843   5.315   8.733 -0.9057  0.6357 -0.4575
  107OSM   C18F11022   3.783   5.123   8.816 -0.7176  0.3360 -0.2729
  107OSM   H18F11023   3.834   5.026   8.833 -0.3962  0.9353  2.7215
  107OSM   H18G11024   3.687   5.116   8.760  1.4655 -1.2879 -4.2077
  107OSM   H18H11025   3.780   5.176   8.913  2.3896  2.5131 -1.2007
  108OSM      N11026   1.487   0.952  10.577 -0.7000 -0.1632  0.5741
  108OSM    C1511027   1.372   1.026  10.626 -0.7868 -0.1960  0.1464
  108OSM   H15A11028   1.361   1.004  10.731 -0.5973  0.6725  0.3580
  108OSM   H15B11029   1.281   0.992  10.579 -0.8605 -2.0052  1.5130
  108OSM   H15C11030   1.376   1.134  10.625 -0.7360 -0.1848  0.9482
  108OSM    C1411031   1.512   0.985  10.429 -0.4099 -0.0394 -0.4061
  108OSM   H14A11032   1.548   1.086  10.427  3.1844 -1.0319  2.9948
  108OSM   H14B11033   1.420   0.972  10.372  0.3034 -2.8163 -1.0725
  108OSM   H14C11034   1.596   0.928  10.392  0.7714 -0.0985  2.2130
  108OSM    C1311035   1.610   0.983  10.655  0.5703 -0.2536  0.0692
  108OSM   H13A11036   1.616   0.925  10.746 -0.0705 -0.1759  0.1637
  108OSM   H13B11037   1.627   1.087  10.679 -0.1520  0.0825 -0.7865
  108OSM   H13C11038   1.694   0.953  10.593  3.3705  1.8811  2.5622
  108OSM    C1211039   1.454   0.799  10.578  0.3118  0.1546 -0.5699
  108OSM   H12A11040   1.427   0.772  10.679 -0.3181 -0.8934 -1.0026
  108OSM   H12B11041   1.544   0.745  10.551 -0.2457 -1.7651  1.1300
  108OSM    C1111042   1.338   0.741  10.495 -0.2608  0.2589 -0.1240
  108OSM   H11A11043   1.339   0.630  10.501 -1.9343  0.2894  1.5823
  108OSM   H11B11044   1.358   0.770  10.390 -2.4888 -1.4998 -1.1236
  108OSM      P11045   1.142   0.716  10.656  0.1859  0.7704 -0.2368
  108OSM    O1311046   1.236   0.709  10.772 -0.3557  0.3590  0.3045
  108OSM    O1411047   1.009   0.774  10.683 -0.0992  0.2848 -0.2373
  108OSM    O1111048   1.126   0.570  10.598 -1.0800 -0.3127 -0.1708
  108OSM    O1211049   1.210   0.786  10.538 -0.0988 -0.3718 -0.2143
  108OSM    C1S11050   1.017   0.549  10.505 -0.8342  0.2376 -0.4821
  108OSM    H1S11051   0.996   0.641  10.447  0.6586 -0.8864 -2.9367
  108OSM    H1T11052   0.926   0.511  10.557  0.0118 -3.3911 -1.3387
  108OSM     NF11053   0.958   0.433  10.299  0.0091 -0.3828  0.7888
  108OSM    HNF11054   0.912   0.345  10.285  0.1789 -0.5611  1.3483
  108OSM    C2S11055   1.052   0.435  10.405  0.2890  0.1337 -1.0020
  108OSM    H2S11056   1.150   0.460  10.361  0.9470  1.6214  1.1500
  108OSM    C3S11057   1.074   0.290  10.470  0.5851  0.6069  0.2393
  108OSM    H3S11058   0.973   0.264  10.508 -0.6816  1.2717 -2.3963
  108OSM     O311059   1.157   0.298  10.587  0.2181 -0.8530  0.2558
  108OSM    HO311060   1.159   0.394  10.588 -0.6696 -0.6184 -3.7424
  108OSM    C4S11061   1.139   0.191  10.376 -0.1678 -0.3458  1.1585
  108OSM    H4S11062   1.248   0.208  10.375  0.0476 -1.2480  3.2916
  108OSM    C5S11063   1.084   0.079  10.319  0.2856 -0.1602  0.5294
  108OSM    H5S11064   0.977   0.056  10.325 -0.1637  1.4372 -0.5730
  108OSM    C6S11065   1.172  -0.006  10.220  0.2264 -0.4503 -0.4579
  108OSM    H6S11066   1.207  -0.098  10.271  0.1403 -0.5321 -0.5462
  108OSM    H6T11067   1.259   0.057  10.194 -0.6367  0.5216 -1.0819
  108OSM    C7S11068   1.112  -0.046  10.084  0.0777  0.0650 -0.1978
  108OSM    H7S11069   1.031  -0.121  10.096 -0.8326  1.1802  0.9157
  108OSM    H7T11070   1.191  -0.102  10.030 -0.9773 -0.5641 -1.1593
  108OSM    C8S11071   1.049   0.072  10.013 -0.1498 -0.1159  0.2938
  108OSM    H8S11072   1.125   0.152  10.001  0.4081 -0.6114  0.4424
  108OSM    H8T11073   0.965   0.102  10.079 -0.3688  0.5835 -0.2956
  108OSM    C9S11074   0.998   0.045   9.872  0.3074 -0.3991 -0.5980
  108OSM    H9S11075   0.895   0.004   9.885  0.6730 -0.6702  1.8680
  108OSM    H9T11076   1.068  -0.025   9.823  2.4379  2.3781 -1.7923
  108OSM   C10S11077   0.967   0.183   9.812  0.4326 -0.0905  0.1517
  108OSM   H10S11078   1.059   0.246   9.813 -0.0120  0.5674  0.4251
  108OSM   H10T11079   0.884   0.236   9.864 -0.2743 -0.1367 -0.9150
  108OSM   C11S11080   0.929   0.161   9.668 -0.1551 -0.0353 -0.0537
  108OSM   H11S11081   0.905   0.264   9.632  0.2008 -0.1182 -0.5347
  108OSM   H11T11082   0.838   0.106   9.636  0.7197 -0.9039 -1.1107
  108OSM   C12S11083   1.047   0.125   9.586  0.1432 -0.4553 -0.1285
  108OSM   H12S11084   1.090   0.030   9.625 -0.3840 -0.5758  0.1688
  108OSM   H12T11085   1.129   0.199   9.600 -1.4170  1.4758 -0.7781
  108OSM   C13S11086   1.022   0.114   9.428  0.0634  0.3077 -0.8600
  108OSM   H13S11087   0.951   0.195   9.400  0.8767  2.5862  2.8952
  108OSM   H13T11088   0.973   0.016   9.410  0.1289  0.5109 -2.2811
  108OSM   C14S11089   1.143   0.118   9.345 -0.5982 -0.5186  1.0033
  108OSM   H14S11090   1.229   0.073   9.400  0.8636 -1.9578 -2.1748
  108OSM   H14T11091   1.172   0.222   9.316 -0.8010 -0.9236 -0.7558
  108OSM   C15S11092   1.133   0.052   9.205  0.1263 -0.4783  0.0318
  108OSM   H15S11093   1.079  -0.045   9.207 -0.0003 -0.4020  0.3322
  108OSM   H15T11094   1.233   0.026   9.163  0.4607 -0.9645  1.0754
  108OSM   C16S11095   1.052   0.145   9.101  0.0332  0.3083  0.1450
  108OSM   H16S11096   1.081   0.251   9.117 -1.1293  0.7271 -0.3878
  108OSM   H16T11097   0.943   0.138   9.123  0.1749 -1.7665  0.3783
  108OSM   C17S11098   1.075   0.112   8.953  0.0542  0.2033 -0.4800
  108OSM   H17S11099   1.183   0.114   8.929 -0.0233 -1.0915 -1.0027
  108OSM   H17T11100   1.041   0.203   8.898 -1.2243  0.0644  0.0486
  108OSM   C18S11101   0.996  -0.004   8.900 -1.0944  0.1169 -0.6026
  108OSM   H18S11102   1.036  -0.039   8.803  1.5930  1.2065  0.0142
  108OSM   H18T11103   0.889   0.021   8.886 -1.2788 -0.6990 -0.6485
  108OSM   H18U11104   1.000  -0.088   8.973  0.9234  0.6979  0.0406
  108OSM    C1F11105   0.964   0.520  10.201  0.5221 -0.3554  0.0168
  108OSM     OF11106   1.055   0.598  10.193  0.2039 -0.2805  0.0170
  108OSM    C2F11107   0.860   0.509  10.100 -0.7149 -0.0267  0.6189
  108OSM    H2F11108   0.768   0.566  10.120 -0.7502  1.4136 -2.8840
  108OSM    H2G11109   0.843   0.401  10.076  0.4615  0.1571 -1.2597
  108OSM    C3F11110   0.900   0.559   9.955  0.9276  0.8578  0.7898
  108OSM    H3F11111   0.958   0.483   9.898 -0.1436  1.0674 -0.6215
  108OSM    H3G11112   0.961   0.652   9.958 -0.8030  2.2897 -2.6728
  108OSM    C4F11113   0.774   0.589   9.873  0.0011  0.8365  0.9664
  108OSM    H4F11114   0.697   0.660   9.910  0.0575  1.3836  0.0675
  108OSM    H4G11115   0.728   0.489   9.862  1.5273  0.1944  0.0751
  108OSM    C5F11116   0.807   0.646   9.732  0.7303  0.3239 -0.3436
  108OSM    H5F11117   0.893   0.587   9.694  0.0467 -0.0172 -1.4124
  108OSM    H5G11118   0.851   0.748   9.731  0.4906  0.4546 -2.3553
  108OSM    C6F11119   0.686   0.631   9.631 -0.0036  0.3366 -0.0358
  108OSM    H6F11120   0.615   0.711   9.662  0.4059  1.1709 -1.1790
  108OSM    H6G11121   0.637   0.532   9.624 -3.2318  1.7814  0.3269
  108OSM    C7F11122   0.745   0.669   9.490  0.4563 -0.7971  0.0339
  108OSM    H7F11123   0.777   0.775   9.502 -4.5300  1.3431 -2.6438
  108OSM    H7G11124   0.655   0.692   9.429 -1.2534  0.4127  2.8458
  108OSM    C8F11125   0.825   0.568   9.416 -0.1471 -0.7484 -0.3723
  108OSM    H8F11126   0.751   0.501   9.368  0.8770 -0.3001 -2.6983
  108OSM    H8G11127   0.884   0.506   9.486 -0.8234 -3.1352 -1.8204
  108OSM    C9F11128   0.922   0.628   9.319 -0.4041 -0.2642 -0.4665
  108OSM    H9F11129   1.009   0.686   9.354  0.2815 -0.3819 -1.8910
  108OSM   C10F11130   0.905   0.619   9.191 -0.1541  0.3920  0.1180
  108OSM   H10F11131   0.982   0.659   9.124  0.9640 -3.3087 -1.0010
  108OSM   C11F11132   0.800   0.552   9.106  0.3321 -0.4773 -0.2367
  108OSM   H11F11133   0.762   0.615   9.023 -0.7869 -0.4832  0.2552
  108OSM   H11G11134   0.713   0.526   9.171  0.3562 -0.3216 -0.1437
  108OSM   C12F11135   0.844   0.415   9.043  0.1109  0.7399  0.1440
  108OSM   H12F11136   0.872   0.347   9.127 -1.0197 -0.9076 -0.7465
  108OSM   H12G11137   0.936   0.432   8.983  0.2148 -0.0750  0.0526
  108OSM   C13F11138   0.743   0.335   8.953  0.5740  0.1007  0.7591
  108OSM   H13F11139   0.640   0.345   8.992  0.0441  0.6687 -0.7585
  108OSM   H13G11140   0.765   0.226   8.954 -1.7228 -0.5026 -2.1899
  108OSM   C14F11141   0.761   0.371   8.802  0.1461 -0.2271 -0.5879
  108OSM   H14F11142   0.865   0.354   8.766  0.1144 -1.7521 -0.0343
  108OSM   H14G11143   0.742   0.480   8.787 -2.0334 -0.4212  0.4544
  108OSM   C15F11144   0.659   0.302   8.712 -1.0680 -0.0988  0.7773
  108OSM   H15F11145   0.560   0.351   8.718 -1.7779 -1.6886  3.9804
  108OSM   H15G11146   0.659   0.195   8.742  0.7667 -0.1536  0.6711
  108OSM   C16F11147   0.696   0.309   8.560  0.5785 -0.2686  0.4884
  108OSM   H16F11148   0.614   0.269   8.497  0.2691  2.5866 -1.0907
  108OSM   H16G11149   0.783   0.240   8.550  1.6893  0.7736  2.2835
  108OSM   C17F11150   0.732   0.450   8.516 -0.2396  0.4820 -0.4487
  108OSM   H17F11151   0.785   0.436   8.419  1.3577  1.1288  0.2921
  108OSM   H17G11152   0.807   0.483   8.592 -2.0345  0.7934  1.2591
  108OSM   C18F11153   0.612   0.533   8.490  0.4967  0.1115  0.5314
  108OSM   H18F11154   0.538   0.475   8.431  0.5906 -1.3368  1.7853
  108OSM   H18G11155   0.640   0.628   8.439  1.0781  0.5293  1.5912
  108OSM   H18H11156   0.553   0.556   8.581  0.1241 -2.4998  1.0395
  109OSM      N11157   5.337   4.670  10.979  0.2900  0.7207 -0.3184
  109OSM    C1511158   5.202   4.721  10.958  0.5155 -0.6500 -0.3125
  109OSM   H15A11159   5.211   4.822  10.923 -0.4079 -0.3107  0.3886
  109OSM   H15B11160   5.142   4.714  11.047  0.0955 -0.1502 -0.5534
  109OSM   H15C11161   5.141   4.664  10.890 -0.6061 -0.3573  0.4314
  109OSM    C1411162   5.397   4.738  11.100  0.5607  0.8163 -0.5368
  109OSM   H14A11163   5.324   4.759  11.177 -1.8339  0.0528 -2.4566
  109OSM   H14B11164   5.443   4.830  11.067  0.7041  0.0473 -2.6432
  109OSM   H14C11165   5.471   4.668  11.137 -0.0547  0.2700 -0.3206
  109OSM    C1311166   5.331   4.523  11.003  0.1432 -0.0193 -0.9739
  109OSM   H13A11167   5.285   4.497  11.097 -0.7238 -1.3234 -1.7176
  109OSM   H13B11168   5.432   4.488  11.014  0.9700  2.8318  2.2505
  109OSM   H13C11169   5.281   4.467  10.925  0.2377 -0.5687 -0.6434
  109OSM    C1211170   5.423   4.705  10.856  0.9500  0.6182 -0.1283
  109OSM   H12A11171   5.394   4.641  10.774  2.7654 -1.3837  0.6758
  109OSM   H12B11172   5.525   4.670  10.871  0.4413  0.0349  2.4946
  109OSM    C1111173   5.437   4.853  10.806  0.0675  0.8804  0.3406
  109OSM   H11A11174   5.343   4.904  10.773 -0.3548 -0.5203 -0.6996
  109OSM   H11B11175   5.493   4.852  10.711 -1.0720  0.9055 -0.3566
  109OSM      P11176   5.639   4.968  10.924 -0.3652 -0.0312  0.2741
  109OSM    O1311177   5.654   5.089  11.012 -0.2115 -0.1688 -0.3732
  109OSM    O1411178   5.688   4.841  10.975  0.0763 -0.1286 -0.0729
  109OSM    O1111179   5.699   4.995  10.779  0.4075 -0.5873 -0.3001
  109OSM    O1211180   5.486   4.947  10.900  0.1504  0.1140  0.0810
  109OSM    C1S11181   5.646   5.117  10.722 -0.8668  1.0889 -0.3951
  109OSM    H1S11182   5.688   5.210  10.765  0.4828  0.8232 -1.1000
  109OSM    H1T11183   5.535   5.116  10.721 -0.8577  0.0767 -1.7425
  109OSM     NF11184   5.634   5.251  10.514  0.6181  0.2157  0.4516
  109OSM    HNF11185   5.551   5.257  10.459  1.0647  0.2043 -0.2502
  109OSM    C2S11186   5.687   5.121  10.570 -1.0058  0.1159  0.2509
  109OSM    H2S11187   5.798   5.128  10.559 -1.3286  2.3496 -2.6278
  109OSM    C3S11188   5.633   4.997  10.494  0.1263 -0.0106  0.3747
  109OSM    H3S11189   5.527   5.005  10.524  0.2557 -0.1865  0.8853
  109OSM     O311190   5.674   4.870  10.541 -0.2329 -0.5662 -0.8274
  109OSM    HO311191   5.715   4.897  10.624  0.2077  0.7358 -1.4484
  109OSM    C4S11192   5.652   5.007  10.345  0.1457 -0.1082 -0.4669
  109OSM    H4S11193   5.561   5.052  10.305 -0.7691 -1.0224  0.5315
  109OSM    C5S11194   5.758   4.960  10.273 -0.2041  0.3610  0.0442
  109OSM    H5S11195   5.839   4.918  10.334  0.1915  0.9663 -0.0567
  109OSM    C6S11196   5.783   4.980  10.119  0.0301 -0.0653 -0.2872
  109OSM    H6S11197   5.892   4.964  10.107 -0.1141 -2.5310  1.0016
  109OSM    H6T11198   5.749   5.080  10.084 -1.2380  0.6708  2.7059
  109OSM    C7S11199   5.702   4.878  10.042 -1.1276 -0.1206  0.4160
  109OSM    H7S11200   5.601   4.919  10.063 -0.9973  1.3949 -1.7088
  109OSM    H7T11201   5.712   4.774  10.081 -0.2850 -1.3604 -2.7455
  109OSM    C8S11202   5.720   4.868   9.887 -0.4226 -0.4124 -0.2128
  109OSM    H8S11203   5.829   4.854   9.869  0.0497  2.2849  0.0913
  109OSM    H8T11204   5.702   4.962   9.830 -1.6600 -1.0726 -0.9541
  109OSM    C9S11205   5.643   4.762   9.814  0.0222  0.1713  0.4577
  109OSM    H9S11206   5.534   4.783   9.808 -0.6873 -2.4085  2.4050
  109OSM    H9T11207   5.634   4.668   9.873 -0.5732  0.1639  0.3628
  109OSM   C10S11208   5.693   4.729   9.670 -0.2938 -0.2760  0.4371
  109OSM   H10S11209   5.655   4.630   9.637  0.2553 -1.2475  2.5763
  109OSM   H10T11210   5.801   4.704   9.682 -0.6962 -2.2171  0.2736
  109OSM   C11S11211   5.670   4.843   9.565  0.5776 -0.1647  0.1018
  109OSM   H11S11212   5.702   4.943   9.603  1.0851 -0.0604 -0.5719
  109OSM   H11T11213   5.559   4.850   9.560  0.5848  1.7122  1.5877
  109OSM   C12S11214   5.710   4.814   9.419 -0.0797  0.5446 -0.0990
  109OSM   H12S11215   5.821   4.816   9.415 -0.0248  1.4380  1.1339
  109OSM   H12T11216   5.676   4.902   9.361 -0.0740  0.5570 -0.0842
  109OSM   C13S11217   5.660   4.679   9.361  0.6704 -0.0282  0.4702
  109OSM   H13S11218   5.549   4.667   9.355  0.6467 -1.1422  2.3478
  109OSM   H13T11219   5.686   4.597   9.431  3.3416  1.0066  0.7910
  109OSM   C14S11220   5.723   4.646   9.227  0.0112 -0.0627  0.0639
  109OSM   H14S11221   5.699   4.540   9.203 -1.5087  0.3046 -0.1458
  109OSM   H14T11222   5.832   4.659   9.242 -0.0700  1.3428 -0.4192
  109OSM   C15S11223   5.669   4.742   9.119 -0.2954  0.9123  0.2496
  109OSM   H15S11224   5.721   4.839   9.134 -0.4557  0.7407  2.0485
  109OSM   H15T11225   5.563   4.758   9.146 -0.2008  2.4580 -0.1968
  109OSM   C16S11226   5.682   4.707   8.977 -0.7117 -0.6324 -0.5200
  109OSM   H16S11227   5.620   4.622   8.939 -3.9188  1.4104 -0.3001
  109OSM   H16T11228   5.788   4.686   8.954 -0.6166 -1.0374  0.2756
  109OSM   C17S11229   5.640   4.815   8.881  0.6290 -0.2338  0.0371
  109OSM   H17S11230   5.673   4.782   8.780  0.7633 -1.3207  0.4155
  109OSM   H17T11231   5.688   4.911   8.906  1.0138 -0.4383  0.0948
  109OSM   C18S11232   5.484   4.837   8.882 -0.3602 -0.0365  0.1739
  109OSM   H18S11233   5.435   4.759   8.819  1.7538  0.4340 -2.1873
  109OSM   H18T11234   5.472   4.940   8.841  3.3828  0.3827 -0.2278
  109OSM   H18U11235   5.439   4.847   8.984 -2.8591  1.1046 -0.9413
  109OSM    C1F11236   5.687   5.367  10.540  0.2593  0.4174 -0.0120
  109OSM     OF11237   5.800   5.377  10.589 -0.2425 -0.0731  0.6901
  109OSM    C2F11238   5.602   5.490  10.511  0.3150 -0.0774  0.3041
  109OSM    H2F11239   5.621   5.560  10.596 -4.0468 -0.2472  1.6547
  109OSM    H2G11240   5.495   5.468  10.534 -0.1889  2.5860  0.8783
  109OSM    C3F11241   5.640   5.561  10.382 -0.0380  0.0996 -1.0146
  109OSM    H3F11242   5.750   5.579  10.389 -0.2999  1.2357  0.8097
  109OSM    H3G11243   5.595   5.662  10.375  1.8853  1.1233  0.2874
  109OSM    C4F11244   5.608   5.486  10.252  0.5371  0.6440  0.5540
  109OSM    H4F11245   5.503   5.503  10.222  0.9586 -0.6022 -1.9711
  109OSM    H4G11246   5.608   5.377  10.276  2.1746  0.7336  1.1181
  109OSM    C5F11247   5.702   5.513  10.137  0.1411 -0.1445  0.6591
  109OSM    H5F11248   5.800   5.465  10.158  0.8001  1.0764  0.4320
  109OSM    H5G11249   5.723   5.622  10.132 -0.2747 -0.0550  0.8334
  109OSM    C6F11250   5.644   5.478   9.997 -0.4455  0.4960 -0.3896
  109OSM    H6F11251   5.555   5.541   9.974  0.4262  3.1692  2.7840
  109OSM    H6G11252   5.601   5.375   9.991 -1.4506  0.7578  1.5141
  109OSM    C7F11253   5.755   5.489   9.884 -0.2766 -0.2165  0.8467
  109OSM    H7F11254   5.833   5.419   9.920 -0.4275 -1.7561 -1.6081
  109OSM    H7G11255   5.808   5.587   9.880 -0.5983 -0.0730 -0.9410
  109OSM    C8F11256   5.699   5.461   9.748 -0.7463  0.1317  0.1215
  109OSM    H8F11257   5.769   5.501   9.671 -1.2089  1.7850  0.5007
  109OSM    H8G11258   5.615   5.531   9.728 -1.1189 -0.6796 -1.2535
  109OSM    C9F11259   5.655   5.325   9.726  0.8396  0.0901 -0.2375
  109OSM    H9F11260   5.591   5.277   9.802  0.9271 -2.4176 -1.6571
  109OSM   C10F11261   5.680   5.235   9.627 -0.3734 -0.3018 -0.1839
  109OSM   H10F11262   5.641   5.133   9.642  1.2082 -0.7324  1.2521
  109OSM   C11F11263   5.765   5.250   9.497 -0.0951 -0.4665 -0.9623
  109OSM   H11F11264   5.861   5.195   9.502  0.1564  0.1105  2.2389
  109OSM   H11G11265   5.804   5.354   9.502 -0.9061 -0.1974  0.4697
  109OSM   C12F11266   5.694   5.233   9.363  0.8048  0.3643 -0.7664
  109OSM   H12F11267   5.617   5.313   9.369  0.4766 -0.0596  1.9780
  109OSM   H12G11268   5.644   5.134   9.362  0.9065  0.2261  1.6673
  109OSM   C13F11269   5.774   5.232   9.235 -0.1300  0.2199  0.3067
  109OSM   H13F11270   5.870   5.179   9.252 -0.5028 -0.6456 -0.2215
  109OSM   H13G11271   5.800   5.337   9.212  0.1789  0.6163  2.2964
  109OSM   C14F11272   5.695   5.189   9.109  0.3415 -0.0982 -0.8082
  109OSM   H14F11273   5.616   5.266   9.102  2.1088  1.9499  0.4762
  109OSM   H14G11274   5.645   5.090   9.116  0.5020 -0.1131  0.3565
  109OSM   C15F11275   5.763   5.201   8.982 -0.3438 -0.0795  0.1218
  109OSM   H15F11276   5.837   5.121   8.958  1.4500  1.5219  0.0714
  109OSM   H15G11277   5.821   5.296   8.983 -1.3767  0.5564  0.4985
  109OSM   C16F11278   5.665   5.193   8.873  0.6021 -0.3283 -0.1043
  109OSM   H16F11279   5.613   5.291   8.866 -1.2815 -1.3755 -1.9937
  109OSM   H16G11280   5.591   5.118   8.906  0.0571  0.4614  0.5009
  109OSM   C17F11281   5.729   5.168   8.738 -0.0928 -0.6366 -0.0322
  109OSM   H17F11282   5.795   5.079   8.734  2.2849  0.9118  1.5479
  109OSM   H17G11283   5.800   5.253   8.728 -2.8735  1.8466  0.1011
  109OSM   C18F11284   5.629   5.171   8.627 -0.8840 -0.1048  0.2475
  109OSM   H18F11285   5.580   5.072   8.622 -0.2764 -0.3641 -0.8807
  109OSM   H18G11286   5.679   5.174   8.528 -0.6928  1.9251  0.3561
  109OSM   H18H11287   5.551   5.250   8.637  0.4464  1.3402 -0.3125
  110OSM      N11288   0.498   3.830  10.989  0.8271  0.6053 -0.3248
  110OSM    C1511289   0.511   3.700  10.911 -0.6738 -0.4545  0.2704
  110OSM   H15A11290   0.419   3.673  10.860 -1.3547 -0.1006  1.2802
  110OSM   H15B11291   0.547   3.621  10.975 -2.8929 -1.2154  0.6794
  110OSM   H15C11292   0.583   3.707  10.832 -1.8985  1.6742 -0.7423
  110OSM    C1411293   0.406   3.924  10.913 -0.3950 -0.0764 -1.1011
  110OSM   H14A11294   0.404   4.017  10.969  1.3008 -0.3505 -0.5183
  110OSM   H14B11295   0.308   3.878  10.917 -0.1584 -0.5133  1.3711
  110OSM   H14C11296   0.439   3.945  10.813 -0.0201  0.7950 -0.8079
  110OSM    C1311297   0.436   3.810  11.122  0.1590 -0.1058 -0.5714
  110OSM   H13A11298   0.494   3.744  11.185  1.3995  1.6962  0.2719
  110OSM   H13B11299   0.341   3.760  11.121  0.6249 -1.0367  0.1826
  110OSM   H13C11300   0.406   3.899  11.176 -0.9471 -1.2958  0.8221
  110OSM    C1211301   0.627   3.897  10.997 -0.3489  0.9044  1.2981
  110OSM   H12A11302   0.659   3.940  10.902  0.5447 -0.9626  0.7108
  110OSM   H12B11303   0.710   3.828  10.998 -1.1348 -0.2200 -1.6266
  110OSM    C1111304   0.640   4.010  11.103 -0.2708  0.3624  0.0027
  110OSM   H11A11305   0.748   4.035  11.109 -0.5114  1.4207  0.1089
  110OSM   H11B11306   0.617   3.970  11.204 -2.6037 -1.3595 -1.1359
  110OSM      P11307   0.618   4.245  10.997 -0.0944 -0.1940 -0.0464
  110OSM    O1311308   0.512   4.299  10.913 -0.4732 -0.1212  0.4709
  110OSM    O1411309   0.680   4.336  11.102  0.6110  0.0965 -0.0284
  110OSM    O1111310   0.730   4.200  10.896 -0.3363  0.2832 -0.1054
  110OSM    O1211311   0.562   4.116  11.082  0.2502  0.2579 -0.3638
  110OSM    C1S11312   0.721   4.159  10.757 -0.2837  0.5329  0.0131
  110OSM    H1S11313   0.632   4.097  10.731 -0.0971  0.6876 -1.0349
  110OSM    H1T11314   0.796   4.080  10.737 -1.2725 -0.3625 -0.3017
  110OSM     NF11315   0.752   4.241  10.523  0.1471  0.9833  0.2305
  110OSM    HNF11316   0.829   4.274  10.469 -1.3602  1.7202 -1.5650
  110OSM    C2S11317   0.748   4.278  10.660  0.6919 -0.3822  0.2871
  110OSM    H2S11318   0.663   4.349  10.674  0.0995 -0.7793 -1.2056
  110OSM    C3S11319   0.876   4.351  10.699 -0.3285 -0.2325  0.2032
  110OSM    H3S11320   0.963   4.285  10.679  0.3416  0.6598  0.0911
  110OSM     O311321   0.895   4.389  10.835 -0.0818 -0.6728  0.4555
  110OSM    HO311322   0.819   4.342  10.871 -1.3345  1.5320  0.8444
  110OSM    C4S11323   0.900   4.487  10.618 -0.2149  0.4794  0.3141
  110OSM    H4S11324   0.818   4.560  10.614 -0.6241 -0.0178 -1.3411
  110OSM    C5S11325   1.008   4.513  10.543 -0.0587 -0.0815  0.3464
  110OSM    H5S11326   1.082   4.435  10.520  1.5070  1.2496  0.6745
  110OSM    C6S11327   1.037   4.646  10.470 -0.8728  0.0844 -0.0670
  110OSM    H6S11328   1.133   4.690  10.504 -1.2185 -0.1513  1.2768
  110OSM    H6T11329   0.972   4.733  10.496 -0.6958 -0.4471  2.3683
  110OSM    C7S11330   1.055   4.613  10.323  0.8541 -0.7887  0.3668
  110OSM    H7S11331   0.965   4.554  10.295 -0.3182  1.3596 -0.6262
  110OSM    H7T11332   1.154   4.566  10.304  1.2878  0.0118  0.5893
  110OSM    C8S11333   1.044   4.740  10.239  0.2329 -0.5689 -0.1979
  110OSM    H8S11334   1.128   4.808  10.263 -0.0550 -0.4421  0.4658
  110OSM    H8T11335   0.950   4.792  10.268  0.0107 -0.8536 -0.3999
  110OSM    C9S11336   1.041   4.718  10.085 -0.9490 -0.7601 -0.7642
  110OSM    H9S11337   0.959   4.647  10.059 -0.0276 -2.7690  1.4305
  110OSM    H9T11338   1.137   4.679  10.046 -0.4904  0.3058 -0.7395
  110OSM   C10S11339   1.016   4.855  10.009  0.4281 -0.0728 -0.4138
  110OSM   H10S11340   1.073   4.932  10.066  1.8339 -2.6908  1.9527
  110OSM   H10T11341   0.909   4.884  10.009  1.0901  2.8163 -2.4861
  110OSM   C11S11342   1.068   4.858   9.860 -0.7224 -0.2458  0.2086
  110OSM   H11S11343   1.173   4.822   9.863  0.2287  1.5434 -4.1676
  110OSM   H11T11344   1.071   4.964   9.827 -0.2302 -0.1485  0.5457
  110OSM   C12S11345   0.983   4.778   9.760  0.3001  0.8449 -0.2602
  110OSM   H12S11346   0.880   4.811   9.783 -0.2685 -0.0769 -1.3844
  110OSM   H12T11347   0.985   4.671   9.790  0.6796  1.4033  1.8190
  110OSM   C13S11348   1.020   4.803   9.618  0.1809 -0.1517  0.0260
  110OSM   H13S11349   1.128   4.786   9.598  0.7202 -0.8902  3.0781
  110OSM   H13T11350   1.011   4.909   9.584  2.3808 -0.5342 -2.0509
  110OSM   C14S11351   0.944   4.715   9.518  0.5591  0.1889  0.0138
  110OSM   H14S11352   0.834   4.720   9.537  0.4613  2.2163 -0.8518
  110OSM   H14T11353   0.963   4.606   9.532  3.4217  0.4077 -1.4604
  110OSM   C15S11354   0.984   4.750   9.376 -0.0153 -0.0899 -0.5218
  110OSM   H15S11355   1.093   4.769   9.383 -0.1900  0.4588  1.1499
  110OSM   H15T11356   0.935   4.845   9.346 -1.3708  0.2556  2.4137
  110OSM   C16S11357   0.957   4.634   9.276  0.0764 -0.0017  0.4228
  110OSM   H16S11358   0.848   4.616   9.288  0.3725 -2.5735 -0.2679
  110OSM   H16T11359   1.012   4.544   9.310 -2.0953 -1.1518  1.0873
  110OSM   C17S11360   0.992   4.664   9.136 -1.2113  0.6245  0.1107
  110OSM   H17S11361   0.932   4.748   9.095 -0.9385  0.8871  0.2474
  110OSM   H17T11362   0.967   4.573   9.075  2.0090  1.2094 -2.3289
  110OSM   C18S11363   1.138   4.689   9.109  0.2199 -0.3374 -0.0825
  110OSM   H18S11364   1.180   4.774   9.167 -0.8463  0.0950  0.0671
  110OSM   H18T11365   1.151   4.706   9.000 -1.2949  1.1400 -0.0775
  110OSM   H18U11366   1.184   4.594   9.146 -2.7547 -1.2979  1.5245
  110OSM    C1F11367   0.652   4.189  10.453  0.0723 -0.0780 -0.1421
  110OSM     OF11368   0.547   4.171  10.514  0.1726 -0.0123  0.8526
  110OSM    C2F11369   0.685   4.155  10.313  0.1380  0.3529 -0.1315
  110OSM    H2F11370   0.715   4.048  10.322  0.2513  0.5032  1.5006
  110OSM    H2G11371   0.765   4.219  10.269  0.6530 -0.8508 -1.0051
  110OSM    C3F11372   0.566   4.173  10.220 -0.1947  0.3063  0.4256
  110OSM    H3F11373   0.553   4.279  10.189 -3.9719  0.2169  1.2643
  110OSM    H3G11374   0.473   4.129  10.262  0.1134 -1.3342 -0.5162
  110OSM    C4F11375   0.574   4.099  10.081 -0.0406 -0.7750  0.7072
  110OSM    H4F11376   0.554   3.989  10.079 -0.3626 -0.7624  2.0789
  110OSM    H4G11377   0.679   4.115  10.048 -0.1179 -0.4657  0.6141
  110OSM    C5F11378   0.485   4.159   9.969 -0.4396 -0.4539  0.3345
  110OSM    H5F11379   0.498   4.269   9.958  2.8140 -0.6649  1.1153
  110OSM    H5G11380   0.378   4.139   9.993 -0.5486  0.2642  0.4726
  110OSM    C6F11381   0.518   4.091   9.835 -0.2994 -0.4795 -0.5314
  110OSM    H6F11382   0.497   3.982   9.839  0.9116 -0.7016  0.6360
  110OSM    H6G11383   0.625   4.098   9.805 -0.6975 -1.0655 -2.2183
  110OSM    C7F11384   0.429   4.152   9.718 -0.5630  0.2335 -0.0617
  110OSM    H7F11385   0.462   4.257   9.712 -1.7637  0.6267 -0.0183
  110OSM    H7G11386   0.322   4.158   9.748 -0.1186  1.1454  1.4217
  110OSM    C8F11387   0.446   4.083   9.587 -0.1024 -0.0460  0.2687
  110OSM    H8F11388   0.552   4.085   9.552 -0.2688 -0.7185 -0.3196
  110OSM    H8G11389   0.398   4.149   9.511  1.3716  0.3513 -0.3530
  110OSM    C9F11390   0.402   3.942   9.574 -0.4041  0.3558 -0.2243
  110OSM    H9F11391   0.379   3.894   9.670 -2.0752  2.7073  0.6516
  110OSM   C10F11392   0.369   3.887   9.458 -0.6155 -0.5393  0.1880
  110OSM   H10F11393   0.344   3.781   9.446  0.9144 -0.7493 -1.7028
  110OSM   C11F11394   0.382   3.954   9.326  0.7474  0.9240  0.2643
  110OSM   H11F11395   0.489   3.950   9.297  0.7870 -1.0879  0.5317
  110OSM   H11G11396   0.342   4.057   9.317 -1.1687  0.0804 -2.7876
  110OSM   C12F11397   0.300   3.874   9.219  0.1981  0.0918  0.3273
  110OSM   H12F11398   0.193   3.903   9.227  0.9706  3.7580 -0.6685
  110OSM   H12G11399   0.314   3.764   9.227  0.6065  0.0532 -0.7630
  110OSM   C13F11400   0.343   3.917   9.077 -0.4259 -0.1487  0.3599
  110OSM   H13F11401   0.454   3.917   9.081 -0.4534  0.3498  2.3561
  110OSM   H13G11402   0.313   4.022   9.053 -0.7530 -0.1948  0.5707
  110OSM   C14F11403   0.310   3.828   8.956  0.3945 -0.7377  0.2912
  110OSM   H14F11404   0.348   3.728   8.987 -2.0202 -1.6645  0.4332
  110OSM   H14G11405   0.367   3.870   8.869 -0.1129  0.7493  0.6468
  110OSM   C15F11406   0.162   3.824   8.918 -0.2589  0.2369  0.6760
  110OSM   H15F11407   0.124   3.926   8.899  2.5999  1.5192  1.4037
  110OSM   H15G11408   0.108   3.773   9.001 -0.2733  0.3808  0.7543
  110OSM   C16F11409   0.136   3.750   8.780 -0.3864 -0.1598  0.2703
  110OSM   H16F11410   0.177   3.648   8.799  0.3780  0.1632  0.3591
  110OSM   H16G11411   0.188   3.808   8.701 -3.6688 -2.6769 -4.2514
  110OSM   C17F11412  -0.014   3.740   8.736  0.0062  0.3641 -0.0540
  110OSM   H17F11413  -0.047   3.842   8.708  0.9750  1.1552  1.5586
  110OSM   H17G11414  -0.071   3.705   8.824  0.8745  0.6070  0.6217
  110OSM   C18F11415  -0.035   3.641   8.611 -0.1575 -0.2127 -0.2499
  110OSM   H18F11416  -0.136   3.653   8.566 -1.3624  0.0989  2.3621
  110OSM   H18G11417  -0.031   3.532   8.634 -0.6487 -0.0686  0.5577
  110OSM   H18H11418   0.039   3.678   8.537 -0.7804  3.2068  0.6467
  111OSM      N11419   1.738   1.858  10.590  0.9195 -0.9796 -0.0419
  111OSM    C1511420   1.681   1.881  10.727  0.5178 -0.5598  0.8856
  111OSM   H15A11421   1.716   1.807  10.798 -1.0176 -1.3615  0.8443
  111OSM   H15B11422   1.574   1.868  10.719  0.4750  0.3455 -0.3129
  111OSM   H15C11423   1.700   1.980  10.764 -0.5784 -0.4669  1.2484
  111OSM    C1411424   1.706   1.987  10.523  0.4230 -0.5845  0.5083
  111OSM   H14A11425   1.761   2.070  10.564  0.1190  0.7464 -1.6069
  111OSM   H14B11426   1.600   2.005  10.534  0.5345  1.0042 -0.6009
  111OSM   H14C11427   1.727   1.980  10.417 -0.8072  0.8668  0.1315
  111OSM    C1311428   1.886   1.847  10.605 -0.4446  0.1254  0.2035
  111OSM   H13A11429   1.934   1.839  10.508  0.2788 -0.7128  0.6211
  111OSM   H13B11430   1.914   1.767  10.671 -0.7522  0.4230  0.7069
  111OSM   H13C11431   1.932   1.935  10.647  3.0329 -1.0811 -0.7069
  111OSM    C1211432   1.665   1.742  10.526  0.0927  0.0850 -0.4968
  111OSM   H12A11433   1.684   1.742  10.419 -0.4924 -1.3968 -0.6381
  111OSM   H12B11434   1.559   1.757  10.528  0.0528  0.0741 -1.6984
  111OSM    C1111435   1.684   1.600  10.593 -0.0722 -0.0634 -0.8305
  111OSM   H11A11436   1.640   1.607  10.695 -0.4889  1.0073 -1.0657
  111OSM   H11B11437   1.792   1.584  10.615 -0.2422 -3.0665 -1.7583
  111OSM      P11438   1.649   1.348  10.566 -0.4598 -0.3280  0.3035
  111OSM    O1311439   1.766   1.319  10.656 -0.5098 -0.0988 -0.4297
  111OSM    O1411440   1.515   1.320  10.622 -0.1903 -0.2373 -1.0642
  111OSM    O1111441   1.674   1.260  10.436  0.1024  0.0515  0.7529
  111OSM    O1211442   1.646   1.493  10.506 -0.1541  0.0828  0.4026
  111OSM    C1S11443   1.669   1.312  10.304 -1.2209 -0.5669  1.2555
  111OSM    H1S11444   1.594   1.394  10.303  0.7420  1.3261  0.7639
  111OSM    H1T11445   1.642   1.240  10.224  0.0627  0.2775  0.0132
  111OSM     NF11446   1.804   1.452  10.141 -0.3924  0.2399  1.0284
  111OSM    HNF11447   1.856   1.415  10.065 -0.5161 -0.2212  1.1599
  111OSM    C2S11448   1.801   1.380  10.268 -1.0074 -0.5919  0.0604
  111OSM    H2S11449   1.821   1.456  10.346 -2.0195 -0.3523  0.1093
  111OSM    C3S11450   1.917   1.268  10.273  0.4136 -0.4255  0.6319
  111OSM    H3S11451   1.897   1.206  10.183 -0.5755  1.7248 -0.7152
  111OSM     O311452   1.913   1.178  10.379  0.2060 -0.0516  0.8779
  111OSM    HO311453   1.836   1.210  10.426  0.2284  0.5051  0.5371
  111OSM    C4S11454   2.048   1.335  10.260 -0.1408  0.5471 -0.7384
  111OSM    H4S11455   2.073   1.419  10.326 -0.8673 -1.1461  1.8464
  111OSM    C5S11456   2.144   1.296  10.178  0.3586  0.1051  0.4437
  111OSM    H5S11457   2.127   1.210  10.112  2.2199 -0.1330  0.2196
  111OSM    C6S11458   2.286   1.347  10.155  0.9207  0.1885 -0.5109
  111OSM    H6S11459   2.354   1.265  10.123 -1.0233 -2.7538  2.2545
  111OSM    H6T11460   2.325   1.403  10.243 -0.3319  1.2722 -0.6170
  111OSM    C7S11461   2.291   1.443  10.036 -0.3184 -0.0657 -0.1478
  111OSM    H7S11462   2.391   1.493  10.033 -0.4984  0.2546 -1.1465
  111OSM    H7T11463   2.229   1.529  10.067 -2.2492 -0.8580 -1.6425
  111OSM    C8S11464   2.244   1.384   9.901  0.1166  0.0520  0.0360
  111OSM    H8S11465   2.141   1.345   9.911  0.3032 -0.8995 -1.3451
  111OSM    H8T11466   2.303   1.292   9.878  0.6506  0.6268 -0.9718
  111OSM    C9S11467   2.252   1.489   9.791  0.3165 -0.2398 -0.2741
  111OSM    H9S11468   2.361   1.498   9.776  0.3102 -1.0858 -0.8811
  111OSM    H9T11469   2.210   1.585   9.829 -1.7591 -0.9374 -0.6600
  111OSM   C10S11470   2.184   1.451   9.662 -0.6004 -0.3279  0.4651
  111OSM   H10S11471   2.086   1.409   9.692 -1.4276  0.0793 -1.5605
  111OSM   H10T11472   2.238   1.379   9.597  0.0403 -0.3642  1.0249
  111OSM   C11S11473   2.167   1.574   9.574  0.3992  0.3463 -0.2567
  111OSM   H11S11474   2.262   1.629   9.553  0.7429  0.1963  0.8156
  111OSM   H11T11475   2.107   1.642   9.638  1.6116  0.3873  0.8932
  111OSM   C12S11476   2.094   1.539   9.441 -0.0764 -0.8402  0.2361
  111OSM   H12S11477   2.002   1.488   9.477 -1.1139  1.7175  1.4102
  111OSM   H12T11478   2.160   1.472   9.381 -0.2435 -0.0135 -0.9010
  111OSM   C13S11479   2.070   1.678   9.380  0.3391 -0.4707  0.5989
  111OSM   H13S11480   2.171   1.724   9.377  0.4804 -0.7589 -2.4692
  111OSM   H13T11481   2.007   1.730   9.455 -2.1514 -1.7828 -0.4695
  111OSM   C14S11482   2.020   1.684   9.236 -0.4062  0.0988  0.6244
  111OSM   H14S11483   1.982   1.785   9.208 -2.0806 -0.8890 -0.8852
  111OSM   H14T11484   1.933   1.615   9.232  1.6078 -2.6450  1.3512
  111OSM   C15S11485   2.122   1.630   9.135  0.1007  0.3026  0.6744
  111OSM   H15S11486   2.152   1.533   9.179  2.0049  0.7833  0.5367
  111OSM   H15T11487   2.213   1.694   9.129 -0.3744  0.8759 -0.8321
  111OSM   C16S11488   2.052   1.614   9.003 -0.4046  0.3409 -0.0360
  111OSM   H16S11489   2.050   1.710   8.946 -0.9383  0.6371  0.4662
  111OSM   H16T11490   1.948   1.585   9.030  0.1829 -1.0835  0.8076
  111OSM   C17S11491   2.112   1.505   8.917  0.1949 -0.2734 -0.2606
  111OSM   H17S11492   2.084   1.409   8.964  1.2570  0.7280  2.6541
  111OSM   H17T11493   2.223   1.511   8.921  0.4503 -3.3390 -0.2069
  111OSM   C18S11494   2.047   1.504   8.781 -0.6975 -0.1273 -0.2184
  111OSM   H18S11495   1.937   1.484   8.778 -0.5088 -1.4387  0.7180
  111OSM   H18T11496   2.086   1.409   8.738  1.4786 -0.2462  1.8737
  111OSM   H18U11497   2.082   1.594   8.728 -3.2010  0.0630 -1.7163
  111OSM    C1F11498   1.718   1.550  10.113 -0.3641  0.0304  0.0900
  111OSM     OF11499   1.662   1.609  10.206 -0.5970  0.0976 -0.6323
  111OSM    C2F11500   1.710   1.604   9.975 -0.8134  0.3901 -0.7912
  111OSM    H2F11501   1.729   1.713   9.973  0.6639  0.2231  0.9699
  111OSM    H2G11502   1.604   1.590   9.944 -1.2480 -0.4910  0.9590
  111OSM    C3F11503   1.804   1.542   9.872  0.1692 -0.4174 -1.3838
  111OSM    H3F11504   1.768   1.439   9.853  0.1549 -0.5554 -0.6330
  111OSM    H3G11505   1.908   1.536   9.911  0.0254  0.5852 -0.8046
  111OSM    C4F11506   1.810   1.615   9.738 -0.2556 -0.0092 -0.7316
  111OSM    H4F11507   1.904   1.588   9.686  0.1218 -0.4123  0.1574
  111OSM    H4G11508   1.802   1.724   9.761  1.2133 -0.0954  0.3154
  111OSM    C5F11509   1.691   1.583   9.639 -0.8080 -0.2191  0.3842
  111OSM    H5F11510   1.591   1.600   9.684 -0.1361  0.4709  1.6718
  111OSM    H5G11511   1.706   1.477   9.610 -0.2713  0.4998 -2.2522
  111OSM    C6F11512   1.701   1.657   9.505 -0.6621 -0.0601 -0.5308
  111OSM    H6F11513   1.794   1.623   9.457 -0.0171  1.5636 -0.4910
  111OSM    H6G11514   1.723   1.763   9.532  0.7599 -0.8256  1.5469
  111OSM    C7F11515   1.579   1.649   9.415  0.6013 -0.1572 -0.6573
  111OSM    H7F11516   1.501   1.720   9.448 -0.3014 -1.3363 -0.1623
  111OSM    H7G11517   1.538   1.546   9.418  3.7558 -1.5167  0.0025
  111OSM    C8F11518   1.596   1.684   9.263  0.0531 -0.3654  0.4745
  111OSM    H8F11519   1.495   1.671   9.219  0.2687 -0.6199  0.0553
  111OSM    H8G11520   1.671   1.612   9.224 -0.0976 -0.2196 -0.0799
  111OSM    C9F11521   1.654   1.819   9.240 -0.0378 -0.0157 -0.6378
  111OSM    H9F11522   1.676   1.879   9.330  0.0752 -1.6676  0.5016
  111OSM   C10F11523   1.669   1.888   9.128  0.5190 -0.1256 -0.0032
  111OSM   H10F11524   1.717   1.987   9.138 -0.2340  0.1473  1.1687
  111OSM   C11F11525   1.639   1.837   8.989 -0.3919  0.0864  0.0388
  111OSM   H11F11526   1.718   1.767   8.954 -0.4354 -1.3603  2.5910
  111OSM   H11G11527   1.635   1.925   8.921 -1.6033 -0.6486 -0.8976
  111OSM   C12F11528   1.502   1.774   8.960 -0.2707 -0.8534  0.1325
  111OSM   H12F11529   1.428   1.852   8.987  1.1010  0.6504 -0.3207
  111OSM   H12G11530   1.487   1.681   9.018 -1.4629 -0.5541  0.3211
  111OSM   C13F11531   1.465   1.739   8.816  0.4204 -0.0171  0.0408
  111OSM   H13F11532   1.476   1.824   8.745 -1.5269 -1.3007 -1.9230
  111OSM   H13G11533   1.355   1.722   8.817  0.1717  1.4026 -0.6798
  111OSM   C14F11534   1.537   1.611   8.768  0.5570  0.5233  0.4780
  111OSM   H14F11535   1.497   1.522   8.821  0.4128 -0.1922 -0.7951
  111OSM   H14G11536   1.647   1.611   8.785  0.5995  0.8347  0.1971
  111OSM   C15F11537   1.513   1.598   8.612 -0.1092  0.5052  0.7469
  111OSM   H15F11538   1.552   1.690   8.563  2.8917 -1.1291 -0.2015
  111OSM   H15G11539   1.408   1.575   8.582  0.1855  1.6101 -1.3682
  111OSM   C16F11540   1.605   1.490   8.553 -0.4029 -0.0089  0.2114
  111OSM   H16F11541   1.574   1.390   8.591  1.1751 -0.4209  0.4737
  111OSM   H16G11542   1.705   1.508   8.597  0.3562  2.1077 -2.1712
  111OSM   C17F11543   1.620   1.509   8.400 -0.1840 -0.0036  0.0879
  111OSM   H17F11544   1.678   1.419   8.372 -1.0167  0.4102 -3.3679
  111OSM   H17G11545   1.679   1.602   8.384 -0.0382 -0.1064  0.0277
  111OSM   C18F11546   1.494   1.518   8.313  0.2331  0.2090  0.1780
  111OSM   H18F11547   1.439   1.614   8.323 -2.9738 -1.4715  0.0677
  111OSM   H18G11548   1.418   1.440   8.336 -1.0292  0.7773 -1.7382
  111OSM   H18H11549   1.517   1.491   8.207  0.7995 -0.7935  0.5532
  112OSM      N11550   1.007   0.441  11.007 -0.3561  0.2573  0.5570
  112OSM    C1511551   1.117   0.460  11.107 -0.1960 -0.0052  0.5026
  112OSM   H15A11552   1.106   0.536  11.183  3.0253  0.3432  0.7824
  112OSM   H15B11553   1.208   0.493  11.059  0.4030  2.0059  2.8113
  112OSM   H15C11554   1.145   0.367  11.155 -0.0020 -0.0842  0.2393
  112OSM    C1411555   0.953   0.571  10.960 -0.5208 -0.2937  0.2947
  112OSM   H14A11556   1.024   0.640  10.916  0.6715 -0.5787  1.7106
  112OSM   H14B11557   0.890   0.611  11.038 -0.7139 -0.6362  0.3173
  112OSM   H14C11558   0.890   0.550  10.875  1.5691  1.6487 -1.8717
  112OSM    C1311559   1.060   0.368  10.881 -0.0446  0.0925  0.4229
  112OSM   H13A11560   1.124   0.290  10.918 -1.2410  0.0886  2.6769
  112OSM   H13B11561   1.120   0.438  10.825 -1.5598  1.2141  0.1185
  112OSM   H13C11562   0.981   0.327  10.819  1.2512 -0.9948 -0.5651
  112OSM    C1211563   0.900   0.357  11.079  0.0445 -0.2184  0.1291
  112OSM   H12A11564   0.873   0.413  11.167 -0.4337 -1.0151  0.4974
  112OSM   H12B11565   0.949   0.264  11.104  2.7279  0.3552 -2.4173
  112OSM    C1111566   0.765   0.333  11.005  0.5476  0.1321 -0.8062
  112OSM   H11A11567   0.698   0.420  11.017  0.1476 -0.2377 -0.3288
  112OSM   H11B11568   0.719   0.246  11.057 -0.4829  0.5952 -0.9239
  112OSM      P11569   0.690   0.350  10.759  0.2909  0.1273 -0.1081
  112OSM    O1311570   0.552   0.305  10.811  0.1234 -0.4150 -0.3777
  112OSM    O1411571   0.713   0.496  10.741 -0.0151  0.2041  0.5564
  112OSM    O1111572   0.738   0.272  10.631  0.4959  0.7381  1.0708
  112OSM    O1211573   0.788   0.297  10.867  0.5799  0.3038  0.5544
  112OSM    C1S11574   0.637   0.198  10.556  0.6597  0.0987  0.0010
  112OSM    H1S11575   0.605   0.272  10.479  1.1956  2.1879  1.6902
  112OSM    H1T11576   0.549   0.166  10.617  1.0863  1.0919  1.1792
  112OSM     NF11577   0.624   0.040  10.354  0.1055 -0.1443 -0.0439
  112OSM    HNF11578   0.604  -0.057  10.342 -0.5456  0.2111 -2.0902
  112OSM    C2S11579   0.699   0.082  10.478 -0.1643  0.0515 -0.4854
  112OSM    H2S11580   0.799   0.118  10.444 -0.5324  0.5563 -1.0807
  112OSM    C3S11581   0.730  -0.035  10.582 -0.7373 -0.7021 -0.5326
  112OSM    H3S11582   0.631  -0.074  10.613 -0.8311  0.9145  1.3906
  112OSM     O311583   0.792   0.008  10.705  0.3245  0.3239 -0.7359
  112OSM    HO311584   0.786   0.103  10.693  1.7948  0.4908 -0.3689
  112OSM    C4S11585   0.803  -0.141  10.509  0.5286  0.7700  0.0452
  112OSM    H4S11586   0.734  -0.215  10.466 -1.5637  2.2963  0.6512
  112OSM    C5S11587   0.938  -0.162  10.495  0.0636 -0.7223 -0.7396
  112OSM    H5S11588   1.003  -0.090  10.548  0.6312 -0.8967 -1.1893
  112OSM    C6S11589   0.999  -0.276  10.421 -0.4432  0.1591 -0.0750
  112OSM    H6S11590   0.996  -0.367  10.485  1.5514  1.7484  2.4756
  112OSM    H6T11591   1.102  -0.248  10.392  0.4344 -0.0995  2.4662
  112OSM    C7S11592   0.931  -0.321  10.295  0.4226 -0.9126  0.3159
  112OSM    H7S11593   0.905  -0.233  10.234  0.9518 -0.1417  1.1724
  112OSM    H7T11594   0.831  -0.361  10.322 -1.2925  2.2882 -0.7846
  112OSM    C8S11595   1.018  -0.419  10.217 -0.4867  0.0569  0.2433
  112OSM    H8S11596   1.033  -0.511  10.276 -0.7631 -0.1863 -0.0643
  112OSM    H8T11597   1.120  -0.378  10.202  0.8459 -3.1198 -0.1612
  112OSM    C9S11598   0.958  -0.448  10.075 -0.2769 -0.6623  0.0633
  112OSM    H9S11599   0.854  -0.484  10.088 -0.5737  0.8657  2.6594
  112OSM    H9T11600   1.020  -0.521  10.018  0.3453 -0.1385  0.0520
  112OSM   C10S11601   0.943  -0.333   9.975  0.3736  0.5567  0.4092
  112OSM   H10S11602   1.043  -0.293   9.949  0.9997 -1.0073  0.2928
  112OSM   H10T11603   0.888  -0.247  10.019  0.8554 -0.4309  3.1356
  112OSM   C11S11604   0.884  -0.373   9.836  0.4060 -0.4171 -0.0139
  112OSM   H11S11605   0.790  -0.433   9.834  0.8982 -1.1801 -0.9769
  112OSM   H11T11606   0.962  -0.447   9.808  1.3694 -0.3231  2.2055
  112OSM   C12S11607   0.871  -0.255   9.742 -0.5126 -0.0760 -0.4008
  112OSM   H12S11608   0.971  -0.205   9.744  0.6479 -2.2861  1.9824
  112OSM   H12T11609   0.792  -0.183   9.772  0.5142  0.8894  0.0846
  112OSM   C13S11610   0.839  -0.302   9.603 -0.2908 -0.5202 -0.6313
  112OSM   H13S11611   0.754  -0.373   9.600 -0.5458 -0.2226 -0.4225
  112OSM   H13T11612   0.927  -0.363   9.572  0.5574  0.8264 -0.9514
  112OSM   C14S11613   0.817  -0.190   9.504  0.0434  0.2538 -0.4527
  112OSM   H14S11614   0.871  -0.101   9.543 -1.1847  0.4682  0.8403
  112OSM   H14T11615   0.710  -0.158   9.508 -0.3193 -0.9400 -0.1931
  112OSM   C15S11616   0.859  -0.234   9.367 -0.5308 -0.8575 -0.1851
  112OSM   H15S11617   0.966  -0.264   9.364 -0.6143 -1.0913 -2.0815
  112OSM   H15T11618   0.834  -0.149   9.300 -1.7188 -1.5763 -0.6881
  112OSM   C16S11619   0.785  -0.356   9.311 -0.3915 -0.0588 -0.2244
  112OSM   H16S11620   0.679  -0.325   9.297 -0.3830 -0.3659 -1.0775
  112OSM   H16T11621   0.783  -0.435   9.390 -1.1858  0.7245  0.5606
  112OSM   C17S11622   0.831  -0.396   9.181 -0.3733 -0.0408 -0.0160
  112OSM   H17S11623   0.936  -0.433   9.186 -0.4215 -0.4444 -1.4387
  112OSM   H17T11624   0.830  -0.315   9.105  0.8312  1.1115  1.1570
  112OSM   C18S11625   0.743  -0.503   9.110 -0.3764 -0.0988  0.1291
  112OSM   H18S11626   0.803  -0.542   9.026 -1.0613 -0.0176 -0.4074
  112OSM   H18T11627   0.643  -0.461   9.084  0.2485  1.1752 -0.2678
  112OSM   H18U11628   0.718  -0.591   9.173 -3.1753  0.0445 -0.6548
  112OSM    C1F11629   0.627   0.122  10.246 -0.5939  0.0759 -0.8670
  112OSM     OF11630   0.693   0.230  10.264  0.1643  0.2362  0.4324
  112OSM    C2F11631   0.562   0.087  10.119 -0.1053 -0.0775 -0.2967
  112OSM    H2F11632   0.497  -0.004  10.124  0.7567 -0.6947 -0.0596
  112OSM    H2G11633   0.635   0.055  10.042 -0.4230 -2.4404  0.3065
  112OSM    C3F11634   0.480   0.209  10.075  0.0687 -0.6873 -0.5240
  112OSM    H3F11635   0.548   0.296  10.065 -1.3111  0.3187 -1.4250
  112OSM    H3G11636   0.404   0.227  10.155  0.2412 -1.2661 -0.2183
  112OSM    C4F11637   0.415   0.189   9.950 -0.8766 -0.2027 -0.1819
  112OSM    H4F11638   0.349   0.276   9.929 -1.0674 -0.0928  0.7955
  112OSM    H4G11639   0.355   0.096   9.951 -0.5921 -0.5086 -3.2474
  112OSM    C5F11640   0.518   0.194   9.835  0.1706 -0.2656 -0.2661
  112OSM    H5F11641   0.588   0.107   9.841  0.3116 -0.1457 -0.1668
  112OSM    H5G11642   0.572   0.290   9.847  0.2516 -0.3292 -0.1162
  112OSM    C6F11643   0.463   0.204   9.692  0.3088  0.0724  0.4850
  112OSM    H6F11644   0.404   0.298   9.682  1.5591  0.6698 -2.0734
  112OSM    H6G11645   0.391   0.123   9.664  1.4430 -0.5651 -0.7117
  112OSM    C7F11646   0.582   0.204   9.599 -0.0899  0.0502  0.4086
  112OSM    H7F11647   0.638   0.111   9.620  0.5363  0.3063 -0.1051
  112OSM    H7G11648   0.637   0.292   9.637  0.1206  0.7052 -1.3163
  112OSM    C8F11649   0.546   0.213   9.445 -0.6919  0.3641 -0.5520
  112OSM    H8F11650   0.502   0.312   9.424 -0.1596  0.3731 -1.7277
  112OSM    H8G11651   0.471   0.132   9.431 -2.1707  1.4947  0.6010
  112OSM    C9F11652   0.664   0.190   9.352  0.1866  0.4585  0.4905
  112OSM    H9F11653   0.741   0.268   9.358  1.9722 -1.1479 -0.7291
  112OSM   C10F11654   0.675   0.093   9.260 -0.5033 -0.8068 -0.1260
  112OSM   H10F11655   0.768   0.092   9.201  0.1682  0.7754  0.8372
  112OSM   C11F11656   0.574  -0.011   9.234 -0.0502 -0.2484  0.0939
  112OSM   H11F11657   0.478   0.030   9.198 -0.3078 -1.3785 -0.5657
  112OSM   H11G11658   0.556  -0.068   9.328 -0.2486  1.6086  1.2376
  112OSM   C12F11659   0.599  -0.115   9.121 -0.9590 -0.1525 -0.3074
  112OSM   H12F11660   0.517  -0.187   9.143 -1.1092  0.5724  1.8302
  112OSM   H12G11661   0.691  -0.170   9.151 -1.9455 -0.2280  3.0675
  112OSM   C13F11662   0.615  -0.054   8.985 -0.2068 -0.1074 -0.6756
  112OSM   H13F11663   0.716  -0.010   8.970 -0.4348  0.1321 -1.6192
  112OSM   H13G11664   0.549   0.035   8.978  0.8335  1.2717  3.8533
  112OSM   C14F11665   0.590  -0.161   8.877  0.2363  0.4375 -0.6384
  112OSM   H14F11666   0.492  -0.211   8.894  0.5490 -0.2934 -0.9397
  112OSM   H14G11667   0.659  -0.245   8.900 -1.5480 -0.8571  0.2840
  112OSM   C15F11668   0.600  -0.086   8.740  0.4983  0.1630  0.1108
  112OSM   H15F11669   0.706  -0.060   8.720 -0.2232  1.1049 -2.9089
  112OSM   H15G11670   0.534   0.003   8.741 -0.6410 -0.6584  1.2577
  112OSM   C16F11671   0.566  -0.160   8.604  0.9677 -0.0238  0.1102
  112OSM   H16F11672   0.461  -0.197   8.599  2.1996 -4.0744  0.4714
  112OSM   H16G11673   0.635  -0.246   8.600  0.5426 -0.4002  0.7178
  112OSM   C17F11674   0.583  -0.068   8.482  0.2481 -0.1816  1.4956
  112OSM   H17F11675   0.544   0.035   8.496 -0.7278 -0.6211  2.0380
  112OSM   H17G11676   0.535  -0.113   8.393  0.3505  0.4923  1.0892
  112OSM   C18F11677   0.729  -0.055   8.435 -0.4377  0.0263 -0.4847
  112OSM   H18F11678   0.738  -0.005   8.336 -2.5782 -0.1552 -0.8222
  112OSM   H18G11679   0.774  -0.156   8.426  0.0507  0.1074  0.8397
  112OSM   H18H11680   0.797   0.001   8.503  0.3784  1.0114 -2.0306
  113OSM      N11681   0.110   0.220  11.177  0.3213  0.1411 -0.6295
  113OSM    C1511682   0.233   0.307  11.165  0.4910  0.0784  0.6632
  113OSM   H15A11683   0.212   0.406  11.128  0.7614 -0.4955 -1.1089
  113OSM   H15B11684   0.292   0.276  11.080 -1.9145  0.7426 -1.3621
  113OSM   H15C11685   0.290   0.312  11.257 -0.8777  1.7960  1.4652
  113OSM    C1411686   0.168   0.091  11.230  0.1798 -0.3451 -0.6801
  113OSM   H14A11687   0.240   0.041  11.167  0.0935 -1.0476 -0.2216
  113OSM   H14B11688   0.081   0.027  11.234  0.9437 -1.3664 -0.2170
  113OSM   H14C11689   0.199   0.102  11.332 -1.1624 -0.6959 -0.2093
  113OSM    C1311690   0.022   0.273  11.286 -0.2989  0.1536  0.2830
  113OSM   H13A11691  -0.043   0.353  11.252  2.0630  1.3121 -1.8760
  113OSM   H13B11692   0.074   0.278  11.380 -0.1676 -0.9317  0.2831
  113OSM   H13C11693  -0.059   0.204  11.304 -0.7811  0.9391  1.1935
  113OSM    C1211694   0.035   0.205  11.043  0.2998 -0.9671  0.0223
  113OSM   H12A11695   0.105   0.150  10.981  0.9348 -1.3681  1.0680
  113OSM   H12B11696   0.019   0.303  10.999  3.9413  0.1576  0.7857
  113OSM    C1111697  -0.091   0.118  11.050 -0.7511 -0.2520 -0.3796
  113OSM   H11A11698  -0.164   0.164  11.120 -0.4054  1.7960 -1.2888
  113OSM   H11B11699  -0.052   0.020  11.086 -0.4017 -0.0727 -0.2686
  113OSM      P11700  -0.193   0.219  10.837 -0.0121 -0.0616  0.0088
  113OSM    O1311701  -0.253   0.183  10.712  0.3597 -0.5898  0.8828
  113OSM    O1411702  -0.286   0.270  10.935 -0.4051 -0.5711  0.6094
  113OSM    O1111703  -0.076   0.323  10.818 -0.3612  0.0093 -0.6141
  113OSM    O1211704  -0.129   0.096  10.914  0.5887 -0.0519 -0.4159
  113OSM    C1S11705   0.034   0.275  10.739 -0.2887 -0.5617  0.3112
  113OSM    H1S11706   0.065   0.170  10.758  1.0699  0.0291  1.5444
  113OSM    H1T11707   0.119   0.343  10.763 -2.0101  2.2717 -1.1659
  113OSM     NF11708   0.130   0.215  10.520  0.2326 -0.1197 -0.0250
  113OSM    HNF11709   0.197   0.267  10.468  0.5974 -0.8163 -0.2709
  113OSM    C2S11710   0.016   0.284  10.585 -0.2497  0.3942 -0.1035
  113OSM    H2S11711  -0.073   0.234  10.542 -0.7080  2.5062 -1.7986
  113OSM    C3S11712  -0.002   0.423  10.541  0.0021 -0.4297  0.2919
  113OSM    H3S11713   0.090   0.484  10.557 -0.9290  1.0248  0.2158
  113OSM     O311714  -0.101   0.499  10.612 -0.4027 -0.4188 -0.5235
  113OSM    HO311715  -0.091   0.455  10.696  0.7635 -3.8475 -2.2698
  113OSM    C4S11716  -0.039   0.424  10.401 -0.4332 -0.3052  0.3541
  113OSM    H4S11717   0.045   0.462  10.341  0.4536 -1.2798  0.9472
  113OSM    C5S11718  -0.155   0.393  10.340 -0.0817  0.5312 -0.6349
  113OSM    H5S11719  -0.243   0.363  10.398 -0.6156  1.2763 -1.0326
  113OSM    C6S11720  -0.171   0.400  10.189 -0.2577  0.7925 -0.1255
  113OSM    H6S11721  -0.161   0.499  10.141  0.4601  0.1969 -1.2309
  113OSM    H6T11722  -0.270   0.360  10.157  0.7034 -0.2652 -1.9135
  113OSM    C7S11723  -0.074   0.311  10.120  0.5153 -0.0958 -0.3032
  113OSM    H7S11724  -0.081   0.206  10.155  3.1563 -0.5926 -1.0614
  113OSM    H7T11725   0.026   0.355  10.139 -0.4265  1.8534  0.3984
  113OSM    C8S11726  -0.107   0.307   9.968  0.2014  0.3292  0.0355
  113OSM    H8S11727  -0.099   0.408   9.923 -0.2970  0.5287  0.3867
  113OSM    H8T11728  -0.209   0.270   9.945  0.3120  0.5639 -0.8841
  113OSM    C9S11729  -0.008   0.208   9.895  0.2684  0.0991  1.0935
  113OSM    H9S11730  -0.048   0.106   9.911  1.5287 -0.9590 -1.7611
  113OSM    H9T11731   0.089   0.209   9.949 -0.1385 -2.1971  1.9536
  113OSM   C10S11732  -0.007   0.236   9.749  0.2068 -0.8381  0.2604
  113OSM   H10S11733   0.023   0.342   9.740 -2.0078 -0.2483 -0.8369
  113OSM   H10T11734  -0.108   0.228   9.703  1.0344 -1.5045 -1.5244
  113OSM   C11S11735   0.090   0.157   9.666 -0.1583 -0.1152 -0.6802
  113OSM   H11S11736   0.079   0.047   9.673  0.9687 -0.3040 -1.6114
  113OSM   H11T11737   0.186   0.190   9.711  0.2580 -0.0401 -1.6098
  113OSM   C12S11738   0.082   0.202   9.520  0.2966  0.0612  0.0875
  113OSM   H12S11739   0.170   0.156   9.472  1.7720  2.0169  0.7493
  113OSM   H12T11740   0.071   0.311   9.502  0.4032 -0.2928 -2.3488
  113OSM   C13S11741  -0.045   0.144   9.450  0.4635  0.3304  0.1835
  113OSM   H13S11742  -0.129   0.211   9.480  0.6630  0.7606 -0.2083
  113OSM   H13T11743  -0.074   0.039   9.473  0.4760  0.2175 -0.3002
  113OSM   C14S11744  -0.025   0.146   9.299 -0.4741  0.6013 -0.4534
  113OSM   H14S11745   0.058   0.075   9.278 -3.1552 -2.4005 -1.7920
  113OSM   H14T11746  -0.002   0.250   9.267 -0.0028  0.4406 -0.6438
  113OSM   C15S11747  -0.143   0.097   9.220 -1.0718  0.3191 -0.0495
  113OSM   H15S11748  -0.141   0.148   9.121 -0.7755 -2.7870 -1.7671
  113OSM   H15T11749  -0.243   0.124   9.260 -1.0899  0.7456 -0.3759
  113OSM   C16S11750  -0.125  -0.052   9.189 -0.1567 -0.1006 -0.6353
  113OSM   H16S11751  -0.125  -0.093   9.292 -3.1656  2.2899  0.5153
  113OSM   H16T11752  -0.027  -0.076   9.142  0.2703 -1.5516  0.9293
  113OSM   C17S11753  -0.237  -0.119   9.104  0.2095 -0.1627 -0.0241
  113OSM   H17S11754  -0.215  -0.227   9.110 -1.2250 -0.4371  0.6927
  113OSM   H17T11755  -0.220  -0.077   9.002  0.8847 -0.5829 -0.0936
  113OSM   C18S11756  -0.378  -0.087   9.159 -0.1474  0.4085  0.3660
  113OSM   H18S11757  -0.403   0.010   9.112 -1.2127  0.4122  0.9215
  113OSM   H18T11758  -0.373  -0.094   9.270 -1.0425  1.2870  0.4705
  113OSM   H18U11759  -0.438  -0.171   9.119  0.7535 -0.1560  0.1532
  113OSM    C1F11760   0.156   0.087  10.527 -0.5622 -0.0289  0.3969
  113OSM     OF11761   0.080   0.013  10.581 -0.3467  0.2592  0.3623
  113OSM    C2F11762   0.283   0.048  10.462 -0.1461 -0.4930  0.0594
  113OSM    H2F11763   0.350  -0.004  10.535  1.6503 -0.8911 -1.7637
  113OSM    H2G11764   0.342   0.135  10.425  1.3058 -0.9691  1.1449
  113OSM    C3F11765   0.254  -0.043  10.336 -0.9643  0.9711 -0.3831
  113OSM    H3F11766   0.197  -0.136  10.359  0.3747  0.4259  0.9882
  113OSM    H3G11767   0.350  -0.074  10.290 -0.0715  0.1022  1.8891
  113OSM    C4F11768   0.162   0.020  10.233 -0.7220  0.4501  0.3131
  113OSM    H4F11769   0.187   0.121  10.194  0.9288  0.2682  0.8096
  113OSM    H4G11770   0.061   0.022  10.280 -1.5434 -2.7522 -1.0198
  113OSM    C5F11771   0.151  -0.059  10.101 -0.1761  0.0943 -0.1666
  113OSM    H5F11772   0.256  -0.059  10.065 -0.1044 -1.8093 -0.0699
  113OSM    H5G11773   0.083   0.010  10.046  0.8042 -0.5914 -2.3333
  113OSM    C6F11774   0.091  -0.203  10.114  0.4124 -0.6443  0.0395
  113OSM    H6F11775  -0.000  -0.187  10.175  0.9383  1.1304  0.4402
  113OSM    H6G11776   0.154  -0.265  10.181  0.0053  0.2215  1.2664
  113OSM    C7F11777   0.084  -0.280   9.979 -0.1318  0.9532 -0.8610
  113OSM    H7F11778   0.180  -0.332   9.958 -0.7883 -0.6872  0.0425
  113OSM    H7G11779   0.050  -0.223   9.890 -0.8199 -1.6288 -2.3463
  113OSM    C8F11780  -0.021  -0.392   9.988 -0.3696  0.5017  0.7781
  113OSM    H8F11781  -0.026  -0.439  10.088 -1.6712 -1.8150 -0.3051
  113OSM    H8G11782   0.004  -0.479   9.923  4.0488  0.3677  2.3149
  113OSM    C9F11783  -0.165  -0.356   9.949  0.0226 -0.2532 -0.2144
  113OSM    H9F11784  -0.233  -0.371  10.034 -1.4529  2.2248 -0.8353
  113OSM   C10F11785  -0.208  -0.333   9.826  0.3381  1.0842  0.4692
  113OSM   H10F11786  -0.311  -0.295   9.819  0.2673  0.7185 -0.8971
  113OSM   C11F11787  -0.126  -0.354   9.699 -0.7117  0.2034 -0.0185
  113OSM   H11F11788  -0.031  -0.411   9.702 -0.7747  0.1440  0.8747
  113OSM   H11G11789  -0.101  -0.253   9.660  0.3136  0.1986  0.5773
  113OSM   C12F11790  -0.212  -0.426   9.599 -0.7450 -0.0313 -0.2302
  113OSM   H12F11791  -0.314  -0.384   9.587 -0.1737  1.3238 -0.4254
  113OSM   H12G11792  -0.230  -0.530   9.635  0.3339 -0.3477 -0.5631
  113OSM   C13F11793  -0.140  -0.414   9.460 -0.3610 -0.2945 -0.1654
  113OSM   H13F11794  -0.039  -0.462   9.457  0.6486  1.5368  1.8258
  113OSM   H13G11795  -0.136  -0.308   9.430  1.4651 -0.5591 -0.9870
  113OSM   C14F11796  -0.230  -0.482   9.350 -0.0061  0.4006  0.0097
  113OSM   H14F11797  -0.317  -0.416   9.330  0.3844  1.4553  1.5618
  113OSM   H14G11798  -0.265  -0.579   9.389  0.6655  0.4720  0.8207
  113OSM   C15F11799  -0.153  -0.502   9.224  0.0312 -0.1227  0.4874
  113OSM   H15F11800  -0.056  -0.546   9.258 -0.3607  0.1369  2.0431
  113OSM   H15G11801  -0.127  -0.409   9.169  1.7029  0.1384  1.6246
  113OSM   C16F11802  -0.228  -0.593   9.129  0.4730  0.4734 -0.3197
  113OSM   H16F11803  -0.296  -0.667   9.176  1.2653 -1.0999 -1.5186
  113OSM   H16G11804  -0.158  -0.648   9.062  2.5475  2.0758  0.4219
  113OSM   C17F11805  -0.318  -0.508   9.033 -0.3546  0.3474 -0.3841
  113OSM   H17F11806  -0.269  -0.419   8.989 -1.9648  2.4139  1.7365
  113OSM   H17G11807  -0.394  -0.456   9.096  0.8653  2.6128 -0.6634
  113OSM   C18F11808  -0.387  -0.592   8.934 -0.0469  0.4847 -0.5817
  113OSM   H18F11809  -0.434  -0.673   8.994 -1.3236  0.9513 -0.9150
  113OSM   H18G11810  -0.316  -0.632   8.857 -0.5441  0.8831 -1.2574
  113OSM   H18H11811  -0.464  -0.537   8.875 -1.1563 -0.4140 -0.0047
  114OSM      N11812   2.034   3.357  11.312 -0.4013  0.0156 -0.1084
  114OSM    C1511813   1.955   3.321  11.188  0.1494 -0.7187  0.4997
  114OSM   H15A11814   1.938   3.413  11.133  0.5309  0.6643  2.5673
  114OSM   H15B11815   1.863   3.268  11.206 -0.5235  0.2682  0.0763
  114OSM   H15C11816   2.007   3.256  11.120  2.1327  0.9710  0.2869
  114OSM    C1411817   2.049   3.240  11.405 -0.3767 -1.0846  0.2333
  114OSM   H14A11818   2.099   3.156  11.358  1.8965  0.5268 -0.3838
  114OSM   H14B11819   1.955   3.206  11.445 -1.5001 -0.5496 -1.7975
  114OSM   H14C11820   2.110   3.275  11.487  0.4501 -2.6526  0.3288
  114OSM    C1311821   2.177   3.400  11.269  0.8290 -0.1852 -0.0454
  114OSM   H13A11822   2.160   3.473  11.191 -0.6145 -0.8460 -0.3710
  114OSM   H13B11823   2.235   3.324  11.217 -1.7506 -1.0029 -1.9177
  114OSM   H13C11824   2.230   3.447  11.351  0.1018  1.0073 -0.2395
  114OSM    C1211825   1.968   3.473  11.383 -0.1532 -0.5291  0.8758
  114OSM   H12A11826   1.866   3.446  11.408 -0.3256 -1.1802 -0.4669
  114OSM   H12B11827   1.965   3.554  11.312  0.3746 -0.4584  0.9362
  114OSM    C1111828   2.046   3.536  11.498  0.5480 -1.4878 -0.4245
  114OSM   H11A11829   2.070   3.454  11.569  0.5735  0.9105  2.4784
  114OSM   H11B11830   1.983   3.610  11.551  0.7227 -1.3174 -0.4532
  114OSM      P11831   2.148   3.754  11.389  0.0801  0.0550  0.1967
  114OSM    O1311832   2.024   3.825  11.428 -0.4577  0.0884 -0.1765
  114OSM    O1411833   2.278   3.824  11.411  0.0321  0.1487  0.1211
  114OSM    O1111834   2.130   3.719  11.232 -0.0288 -0.0761  0.0890
  114OSM    O1211835   2.164   3.607  11.454  0.0846 -0.1163 -0.2186
  114OSM    C1S11836   2.242   3.751  11.153 -0.0103 -0.1370 -0.1889
  114OSM    H1S11837   2.331   3.690  11.179 -0.5520  0.0847  2.5881
  114OSM    H1T11838   2.266   3.859  11.157  2.3271 -0.5692 -1.3392
  114OSM     NF11839   2.319   3.724  10.920  0.3008  0.0518 -0.0969
  114OSM    HNF11840   2.335   3.810  10.871  1.2752  0.6248  1.1301
  114OSM    C2S11841   2.201   3.734  11.006 -0.4575  0.3235  0.5616
  114OSM    H2S11842   2.152   3.635  10.999 -2.5606  1.3399  0.0484
  114OSM    C3S11843   2.106   3.857  10.972  0.5012  0.0242  0.6120
  114OSM    H3S11844   2.164   3.950  10.992 -0.0156  0.4213  0.2926
  114OSM     O311845   1.992   3.872  11.058 -0.2745  0.3681  0.0999
  114OSM    HO311846   2.019   3.820  11.134  1.1142 -0.0675 -0.6675
  114OSM    C4S11847   2.054   3.848  10.838 -0.2658  0.3387  0.3354
  114OSM    H4S11848   1.963   3.788  10.821  0.0039  0.5908 -2.5039
  114OSM    C5S11849   2.102   3.910  10.726  0.0750 -0.1924 -0.6566
  114OSM    H5S11850   2.183   3.984  10.736  0.9750 -0.9602 -2.0227
  114OSM    C6S11851   2.043   3.901  10.583 -0.3862 -0.7280  0.1825
  114OSM    H6S11852   2.121   3.877  10.508 -0.7381  2.7656 -1.5043
  114OSM    H6T11853   1.997   3.999  10.558  1.5065 -0.2124 -1.6142
  114OSM    C7S11854   1.934   3.804  10.567 -0.0889  0.2579  0.3355
  114OSM    H7S11855   1.849   3.842  10.627  1.9638  3.2456  1.6595
  114OSM    H7T11856   1.980   3.707  10.596  2.7401  1.2893 -0.3470
  114OSM    C8S11857   1.880   3.792  10.431 -0.2575 -0.2575  0.1323
  114OSM    H8S11858   1.813   3.880  10.413 -1.2136 -1.0891 -0.5186
  114OSM    H8T11859   1.809   3.707  10.422 -0.2970 -0.1056 -1.1997
  114OSM    C9S11860   1.979   3.788  10.314  0.4605  0.1918 -0.3511
  114OSM    H9S11861   2.053   3.708  10.335  0.6778  0.4748 -0.0128
  114OSM    H9T11862   2.024   3.889  10.303 -0.6087  1.1345  2.7591
  114OSM   C10S11863   1.912   3.763  10.176  0.6493 -0.0921 -0.9419
  114OSM   H10S11864   1.839   3.845  10.156  0.6852  0.6704  1.6898
  114OSM   H10T11865   1.866   3.663  10.191  2.2118 -0.7607 -0.3465
  114OSM   C11S11866   2.014   3.753  10.064 -0.8000  1.2988  0.1499
  114OSM   H11S11867   2.093   3.679  10.089  0.9392  1.9324 -2.9527
  114OSM   H11T11868   2.068   3.850  10.062  1.4671  0.0901  0.1630
  114OSM   C12S11869   1.957   3.733   9.924  0.0185 -0.3225 -0.4881
  114OSM   H12S11870   1.905   3.830   9.906  2.1759  0.6578 -1.7667
  114OSM   H12T11871   1.882   3.652   9.933  0.8779 -1.1905 -0.9840
  114OSM   C13S11872   2.045   3.700   9.805 -0.7278  0.4755 -0.4123
  114OSM   H13S11873   2.080   3.594   9.804  0.2017  0.7794 -1.7878
  114OSM   H13T11874   2.141   3.754   9.820 -0.4925  0.3676 -1.5008
  114OSM   C14S11875   1.978   3.738   9.670 -1.1405 -0.2872  1.0618
  114OSM   H14S11876   2.055   3.760   9.593  0.7571  1.7271  3.3614
  114OSM   H14T11877   1.921   3.833   9.672 -1.5716 -0.5303  0.6694
  114OSM   C15S11878   1.873   3.625   9.626 -0.8552  0.1750 -0.1204
  114OSM   H15S11879   1.806   3.603   9.711 -1.7545  1.1347 -0.5449
  114OSM   H15T11880   1.926   3.529   9.610  0.4368  0.9415 -0.6083
  114OSM   C16S11881   1.770   3.661   9.504 -0.2110 -0.3718  0.1819
  114OSM   H16S11882   1.708   3.571   9.485 -0.8661 -0.2107  1.4860
  114OSM   H16T11883   1.834   3.679   9.415 -0.4224  0.4297  0.1893
  114OSM   C17S11884   1.692   3.795   9.524 -0.6143  0.3613 -0.1551
  114OSM   H17S11885   1.760   3.881   9.540 -1.4187  1.2191 -1.2396
  114OSM   H17T11886   1.620   3.787   9.609 -0.7468  1.6524 -0.1175
  114OSM   C18S11887   1.616   3.838   9.398 -0.2973  0.8420 -0.5699
  114OSM   H18S11888   1.689   3.884   9.328  1.8324 -0.6113  0.5623
  114OSM   H18T11889   1.533   3.907   9.421 -2.1164 -1.7420  1.1390
  114OSM   H18U11890   1.576   3.742   9.359  1.0529  0.3122 -0.7024
  114OSM    C1F11891   2.404   3.618  10.906  0.3496 -0.1779 -0.4430
  114OSM     OF11892   2.386   3.520  10.977  0.3704  0.6321  0.4947
  114OSM    C2F11893   2.518   3.628  10.810 -0.7583  0.1959 -0.3412
  114OSM    H2F11894   2.604   3.585  10.866 -3.3141 -1.6602  2.5043
  114OSM    H2G11895   2.525   3.733  10.773  0.8646 -0.0358 -0.7368
  114OSM    C3F11896   2.496   3.539  10.696 -0.1533  0.7891  0.3871
  114OSM    H3F11897   2.398   3.562  10.648 -0.8589  0.5968  1.6856
  114OSM    H3G11898   2.497   3.433  10.729  0.2399  1.1646  1.6187
  114OSM    C4F11899   2.603   3.548  10.593  0.5515 -0.3490 -0.6410
  114OSM    H4F11900   2.702   3.524  10.638 -0.3826 -1.2130  1.0518
  114OSM    H4G11901   2.607   3.647  10.542 -1.5004  0.8352  1.2979
  114OSM    C5F11902   2.575   3.438  10.494 -0.6821  0.0955 -1.0604
  114OSM    H5F11903   2.475   3.461  10.452  0.2776  2.4973 -2.2020
  114OSM    H5G11904   2.571   3.340  10.546 -0.8759  0.3574 -0.5779
  114OSM    C6F11905   2.675   3.437  10.380 -0.3520 -0.4499  0.7628
  114OSM    H6F11906   2.690   3.540  10.342  1.0752 -1.1431 -0.6378
  114OSM    H6G11907   2.627   3.381  10.296  0.3333 -0.6111  0.4771
  114OSM    C7F11908   2.809   3.371  10.411 -0.0448  0.3532 -1.0495
  114OSM    H7F11909   2.786   3.282  10.474 -1.1263  1.7986  0.7022
  114OSM    H7G11910   2.871   3.435  10.478  0.4316 -2.3959  1.3551
  114OSM    C8F11911   2.883   3.324  10.283 -0.4441  0.1277 -0.7359
  114OSM    H8F11912   2.811   3.247  10.248  0.6855 -1.3638  0.1395
  114OSM    H8G11913   2.981   3.275  10.299 -0.6149  0.0050 -0.0203
  114OSM    C9F11914   2.930   3.417  10.171  0.5110 -0.4584 -0.6855
  114OSM    H9F11915   2.979   3.506  10.213 -1.3438 -0.6916  2.2835
  114OSM   C10F11916   2.913   3.398  10.043 -0.1785  0.3506  0.9513
  114OSM   H10F11917   2.973   3.458   9.972  0.7780 -1.8468 -0.2019
  114OSM   C11F11918   2.842   3.282   9.971  0.7076 -0.1745  0.1111
  114OSM   H11F11919   2.772   3.319   9.893 -0.9843 -1.1836  1.0858
  114OSM   H11G11920   2.779   3.235  10.049 -1.5891  1.3964 -0.6615
  114OSM   C12F11921   2.940   3.176   9.908  0.2266 -0.3073  0.0622
  114OSM   H12F11922   2.885   3.083   9.880 -2.0719 -0.1767  3.5288
  114OSM   H12G11923   3.011   3.149   9.990  0.1856  2.5545  1.1737
  114OSM   C13F11924   3.014   3.236   9.791 -0.4210  0.0687  0.9044
  114OSM   H13F11925   3.106   3.291   9.819 -0.0340  0.1182 -0.4141
  114OSM   H13G11926   2.934   3.289   9.734  0.5379  0.1639 -0.3990
  114OSM   C14F11927   3.060   3.128   9.693  0.5427  0.1967 -0.2072
  114OSM   H14F11928   2.973   3.066   9.666  0.3372  0.6446 -0.5858
  114OSM   H14G11929   3.140   3.062   9.734  1.6539  1.0871 -0.8779
  114OSM   C15F11930   3.121   3.197   9.571  0.1715 -0.0580  0.2895
  114OSM   H15F11931   3.190   3.269   9.619 -2.1275  2.1130  0.5315
  114OSM   H15G11932   3.046   3.252   9.511  0.5056 -0.5248 -0.5709
  114OSM   C16F11933   3.205   3.105   9.472  0.1544  0.0907  0.3343
  114OSM   H16F11934   3.238   3.022   9.538  1.9233  1.3520  1.1154
  114OSM   H16G11935   3.301   3.146   9.433  1.3163 -1.1092  1.7992
  114OSM   C17F11936   3.108   3.063   9.357 -0.0381  0.2102 -0.8231
  114OSM   H17F11937   3.103   3.152   9.290  2.5768 -0.8288 -2.5565
  114OSM   H17G11938   3.006   3.035   9.390 -0.5083 -0.1148 -2.4446
  114OSM   C18F11939   3.155   2.941   9.267  0.0551 -0.0024 -0.1794
  114OSM   H18F11940   3.236   2.965   9.194  0.3308  2.8235  0.9312
  114OSM   H18G11941   3.071   2.883   9.224  1.8693 -4.6927  1.9224
  114OSM   H18H11942   3.197   2.864   9.335  0.4363 -0.8053 -1.2895
  115OSM      N11943   4.614   1.213   6.193  0.4251  0.1713 -0.3059
  115OSM    C1511944   4.739   1.173   6.269 -0.1168 -0.0663 -0.4534
  115OSM   H15A11945   4.824   1.197   6.206 -0.1217  1.0979 -0.0508
  115OSM   H15B11946   4.748   1.066   6.282 -1.3111  0.0267  1.4616
  115OSM   H15C11947   4.763   1.220   6.363  1.7153 -0.3425 -0.7500
  115OSM    C1411948   4.635   1.353   6.144  0.3404 -0.0409  0.1053
  115OSM   H14A11949   4.731   1.349   6.095  0.7372 -4.8123  0.8354
  115OSM   H14B11950   4.637   1.417   6.231 -0.4254 -1.5635  1.2874
  115OSM   H14C11951   4.564   1.391   6.072  1.3130 -0.7805 -1.2989
  115OSM    C1311952   4.605   1.124   6.064 -0.9280 -0.4335 -0.5270
  115OSM   H13A11953   4.525   1.148   5.996 -0.7400 -1.4241 -1.1147
  115OSM   H13B11954   4.576   1.023   6.089 -1.8831 -0.7039 -2.5328
  115OSM   H13C11955   4.701   1.121   6.014 -0.3341  1.3724  0.3963
  115OSM    C1211956   4.489   1.209   6.277  0.8293  0.2651 -0.1222
  115OSM   H12A11957   4.407   1.235   6.211  0.2645 -0.6216  0.2136
  115OSM   H12B11958   4.508   1.289   6.347  0.7236  0.5867 -0.4540
  115OSM    C1111959   4.451   1.087   6.355 -0.1411  0.6623 -0.1795
  115OSM   H11A11960   4.353   1.095   6.407 -0.4747  0.8057 -0.8203
  115OSM   H11B11961   4.523   1.085   6.439 -0.3380  1.1863  0.0054
  115OSM      P11962   4.345   0.908   6.194  0.0866 -0.2657  0.2594
  115OSM    O1311963   4.236   1.006   6.187  0.6124  0.5016 -0.2365
  115OSM    O1411964   4.387   0.854   6.066  0.2076 -0.7414 -0.3165
  115OSM    O1111965   4.299   0.794   6.294  0.1012  0.2187  0.5047
  115OSM    O1211966   4.462   0.963   6.281 -0.0039 -0.1172  0.4573
  115OSM    C1S11967   4.372   0.670   6.314 -0.7274  0.0865 -0.3125
  115OSM    H1S11968   4.452   0.659   6.237  0.5289 -0.7416  1.0519
  115OSM    H1T11969   4.305   0.584   6.296 -1.3379  0.6103 -0.5520
  115OSM     NF11970   4.496   0.527   6.468  0.7727  0.3807  0.6474
  115OSM    HNF11971   4.427   0.470   6.512 -1.6645  2.1957 -0.5336
  115OSM    C2S11972   4.439   0.664   6.457 -0.4920 -0.0028  0.9425
  115OSM    H2S11973   4.524   0.735   6.450  1.0601 -1.9212 -1.4636
  115OSM    C3S11974   4.342   0.702   6.569  0.5964  0.3231  0.4063
  115OSM    H3S11975   4.257   0.630   6.567  0.7289  0.1265  1.3823
  115OSM     O311976   4.272   0.824   6.566  0.1438 -0.5481  0.2820
  115OSM    HO311977   4.279   0.853   6.474 -0.9216  1.4752  0.7793
  115OSM    C4S11978   4.410   0.699   6.700 -1.0950  0.0259 -0.7578
  115OSM    H4S11979   4.489   0.776   6.706 -0.5668 -0.5880  0.9975
  115OSM    C5S11980   4.368   0.644   6.807  0.6815  0.1845 -0.8859
  115OSM    H5S11981   4.269   0.595   6.804 -0.3990  2.2809 -3.5058
  115OSM    C6S11982   4.442   0.656   6.938 -0.1596 -0.1378 -0.6615
  115OSM    H6S11983   4.516   0.739   6.926 -1.9032  1.8392  1.2912
  115OSM    H6T11984   4.495   0.562   6.963  1.9629  1.3187  0.6850
  115OSM    C7S11985   4.354   0.708   7.058  0.0689  0.3317  1.1118
  115OSM    H7S11986   4.262   0.646   7.066  1.4192 -1.9331  0.0130
  115OSM    H7T11987   4.318   0.811   7.037  2.4184  0.7895 -1.1823
  115OSM    C8S11988   4.442   0.718   7.184  0.0796 -0.5585  0.0901
  115OSM    H8S11989   4.514   0.802   7.192 -1.5440  0.8263  0.8069
  115OSM    H8T11990   4.507   0.630   7.203 -0.3362 -0.9208 -0.1562
  115OSM    C9S11991   4.347   0.733   7.300  0.4283  0.6959 -0.8605
  115OSM    H9S11992   4.270   0.656   7.319 -1.4687  1.8772 -3.1161
  115OSM    H9T11993   4.278   0.820   7.289 -1.3711 -0.4799  0.5372
  115OSM   C10S11994   4.410   0.741   7.438  0.4289  1.4450 -0.6225
  115OSM   H10S11995   4.480   0.826   7.452 -1.1051  2.8893 -1.3784
  115OSM   H10T11996   4.471   0.648   7.449 -0.7487  0.8822  1.5910
  115OSM   C11S11997   4.307   0.728   7.549 -0.0776 -0.4623  0.6994
  115OSM   H11S11998   4.240   0.640   7.536  0.4130 -1.2083  2.7635
  115OSM   H11T11999   4.237   0.814   7.544  1.1757  0.6577  1.5457
  115OSM   C12S12000   4.376   0.726   7.681  0.6333  0.3144 -0.2585
  115OSM   H12S12001   4.433   0.821   7.683 -0.0266  0.7134 -0.0713
  115OSM   H12T12002   4.447   0.641   7.679  0.2227 -0.0375 -0.1167
  115OSM   C13S12003   4.284   0.726   7.802 -0.3517  0.1286  0.4521
  115OSM   H13S12004   4.220   0.635   7.811 -1.2755  0.6483 -0.5309
  115OSM   H13T12005   4.217   0.814   7.811  1.6972  1.5395  3.6444
  115OSM   C14S12006   4.372   0.735   7.929  0.5133  0.6692  0.4362
  115OSM   H14S12007   4.422   0.832   7.949  2.6477 -0.6216  1.8722
  115OSM   H14T12008   4.460   0.666   7.925  0.6509  0.7980  1.1466
  115OSM   C15S12009   4.287   0.692   8.048  0.9702  0.6495  0.1526
  115OSM   H15S12010   4.259   0.584   8.046 -0.0557  0.8491  1.7962
  115OSM   H15T12011   4.191   0.748   8.049  1.4005  1.4325 -0.8498
  115OSM   C16S12012   4.351   0.719   8.182 -1.1515  1.2147  0.0277
  115OSM   H16S12013   4.411   0.812   8.178  0.1922  0.4294  0.8447
  115OSM   H16T12014   4.433   0.644   8.187  0.6899  2.8493 -2.9471
  115OSM   C17S12015   4.261   0.691   8.296  0.2039  0.2157  0.6192
  115OSM   H17S12016   4.234   0.584   8.283  0.9683  0.2617 -2.0534
  115OSM   H17T12017   4.166   0.748   8.283  1.1658  1.4210 -1.7255
  115OSM   C18S12018   4.329   0.701   8.430  0.1509 -0.2281 -0.3106
  115OSM   H18S12019   4.435   0.666   8.434  0.0030 -0.7276 -0.6940
  115OSM   H18T12020   4.278   0.644   8.511  3.7690 -2.7686  0.4405
  115OSM   H18U12021   4.334   0.807   8.465 -0.8649 -0.5969  1.0670
  115OSM    C1F12022   4.614   0.493   6.416  0.4344  0.9352 -0.0879
  115OSM     OF12023   4.681   0.581   6.361 -0.5153  0.0460 -0.4125
  115OSM    C2F12024   4.648   0.345   6.429  0.6717 -0.0205  0.4852
  115OSM    H2F12025   4.734   0.320   6.364 -0.9505 -2.3696 -0.9071
  115OSM    H2G12026   4.570   0.277   6.388  0.3325  1.0796 -0.7596
  115OSM    C3F12027   4.668   0.303   6.574 -0.0684  0.1439  0.1555
  115OSM    H3F12028   4.678   0.193   6.583  0.8202  0.3263  1.9088
  115OSM    H3G12029   4.579   0.322   6.639  0.2787  1.6157  0.2487
  115OSM    C4F12030   4.795   0.363   6.641  0.0627  0.6965  0.2231
  115OSM    H4F12031   4.782   0.473   6.649 -0.4780  0.6103  0.5875
  115OSM    H4G12032   4.880   0.348   6.571 -0.4803  0.2215 -0.3566
  115OSM    C5F12033   4.820   0.303   6.777  0.4879  0.9392  0.1350
  115OSM    H5F12034   4.882   0.211   6.776 -2.4745 -1.2215  0.7760
  115OSM    H5G12035   4.723   0.261   6.812 -0.1225  1.5472 -0.7979
  115OSM    C6F12036   4.856   0.409   6.886 -0.0216 -0.2452 -0.2122
  115OSM    H6F12037   4.875   0.366   6.987  0.8929 -0.0414 -0.2842
  115OSM    H6G12038   4.773   0.482   6.896  2.3127  2.7578 -1.1700
  115OSM    C7F12039   4.981   0.493   6.851 -1.0451 -0.1672 -0.3400
  115OSM    H7F12040   4.968   0.556   6.761  2.0554  1.8629  0.4487
  115OSM    H7G12041   5.071   0.428   6.841 -2.1144 -1.6337 -0.8536
  115OSM    C8F12042   5.025   0.588   6.967 -0.2423  0.8629 -0.0337
  115OSM    H8F12043   5.123   0.638   6.953  0.4415 -0.7839 -1.4914
  115OSM    H8G12044   5.016   0.537   7.065 -1.4967  0.1685 -0.4782
  115OSM    C9F12045   4.914   0.686   6.980 -0.1704 -0.5799  0.3559
  115OSM    H9F12046   4.858   0.703   6.887  1.3057 -0.2252 -0.5070
  115OSM   C10F12047   4.875   0.743   7.094  0.1059  0.2917 -0.3502
  115OSM   H10F12048   4.787   0.809   7.088 -0.2424 -0.1877 -0.6024
  115OSM   C11F12049   4.924   0.729   7.241  0.5939 -0.8795  0.1218
  115OSM   H11F12050   5.017   0.787   7.263  1.2398 -0.8054 -2.5177
  115OSM   H11G12051   4.941   0.622   7.267  0.6086 -1.0512 -0.5733
  115OSM   C12F12052   4.816   0.778   7.342 -0.3061  0.6500  0.2804
  115OSM   H12F12053   4.717   0.729   7.330  1.0563 -1.9891 -1.2530
  115OSM   H12G12054   4.799   0.888   7.343 -0.3407  0.6438  1.1803
  115OSM   C13F12055   4.864   0.740   7.489 -0.7992 -0.3385  0.4217
  115OSM   H13F12056   4.968   0.771   7.515 -1.1963  0.1859  1.4203
  115OSM   H13G12057   4.853   0.630   7.502 -2.2356  0.0131  2.8263
  115OSM   C14F12058   4.770   0.789   7.596 -0.1503  0.1232 -0.4375
  115OSM   H14F12059   4.673   0.736   7.586  0.4953 -1.2229  0.1216
  115OSM   H14G12060   4.772   0.899   7.580  2.8277 -0.1105 -2.5551
  115OSM   C15F12061   4.829   0.745   7.734  0.2161  0.1129  0.3953
  115OSM   H15F12062   4.940   0.754   7.732  0.2745 -0.6984 -0.1595
  115OSM   H15G12063   4.812   0.638   7.756  2.1173 -0.5706 -1.1526
  115OSM   C16F12064   4.761   0.825   7.846  0.2194  0.7040  0.3166
  115OSM   H16F12065   4.652   0.825   7.825  0.1591 -1.4218  0.4128
  115OSM   H16G12066   4.788   0.932   7.830 -0.1742  0.8652  0.7128
  115OSM   C17F12067   4.802   0.783   7.985  0.0895  0.5854 -0.0803
  115OSM   H17F12068   4.792   0.674   8.001  0.6180  0.5502  0.0456
  115OSM   H17G12069   4.734   0.839   8.053  0.5284  0.4570  0.4724
  115OSM   C18F12070   4.945   0.825   8.022 -0.7082 -0.0685  0.9325
  115OSM   H18F12071   4.986   0.802   8.123  4.2818 -0.5195 -0.8764
  115OSM   H18G12072   4.950   0.936   8.021  0.6162 -0.1123  0.6040
  115OSM   H18H12073   5.011   0.793   7.938 -0.4955  2.2373  0.1461
  116OSM      N12074   3.440   4.620   6.152 -0.5103 -0.1898 -0.8499
  116OSM    C1512075   3.419   4.472   6.131 -0.1617 -0.0142 -0.8145
  116OSM   H15A12076   3.315   4.456   6.152 -0.3715  1.3145 -0.7819
  116OSM   H15B12077   3.489   4.419   6.193  2.0177  2.9907 -0.4941
  116OSM   H15C12078   3.432   4.451   6.025 -0.5945  2.1658 -1.3623
  116OSM    C1412079   3.471   4.652   6.293  0.1944  0.4645 -0.6086
  116OSM   H14A12080   3.450   4.756   6.315  0.8482  0.9132 -1.9613
  116OSM   H14B12081   3.573   4.632   6.322 -0.6548 -1.5788  1.2323
  116OSM   H14C12082   3.416   4.590   6.361  0.5498 -0.5644 -1.2380
  116OSM    C1312083   3.554   4.647   6.061 -0.3278  0.0379 -0.0449
  116OSM   H13A12084   3.637   4.578   6.069 -1.3029 -1.4867 -2.0446
  116OSM   H13B12085   3.599   4.745   6.059 -0.1463 -0.0384 -2.7422
  116OSM   H13C12086   3.523   4.628   5.959  0.4152 -0.4736 -0.1775
  116OSM    C1212087   3.323   4.697   6.110 -0.0996  0.1184  0.2649
  116OSM   H12A12088   3.299   4.664   6.010  1.8588 -0.6641  0.0266
  116OSM   H12B12089   3.344   4.803   6.108  1.4140 -0.1836 -1.1421
  116OSM    C1112090   3.193   4.670   6.204 -0.3267 -0.2886  0.2968
  116OSM   H11A12091   3.113   4.733   6.158  0.0375  0.3025  0.4609
  116OSM   H11B12092   3.212   4.707   6.307 -0.7714 -1.7693  0.9242
  116OSM      P12093   3.062   4.479   6.298 -0.2277  0.2463 -0.0345
  116OSM    O1312094   2.972   4.584   6.346 -0.0589  0.3535 -0.3389
  116OSM    O1412095   2.977   4.371   6.249  0.0139 -0.0755 -0.5357
  116OSM    O1112096   3.156   4.433   6.416  0.0592 -0.0679  0.1650
  116OSM    O1212097   3.157   4.529   6.183 -0.1228 -0.1323 -0.2287
  116OSM    C1S12098   3.240   4.313   6.411  0.5721 -0.5866  0.4322
  116OSM    H1S12099   3.313   4.308   6.327 -0.3497 -3.2254 -0.3144
  116OSM    H1T12100   3.176   4.224   6.399  0.2394 -0.2881 -0.0577
  116OSM     NF12101   3.433   4.205   6.523  0.1300  0.1649 -0.0761
  116OSM    HNF12102   3.428   4.119   6.572  0.1646 -0.8815 -1.8071
  116OSM    C2S12103   3.318   4.301   6.541 -0.8236  0.2385  0.1832
  116OSM    H2S12104   3.345   4.398   6.589 -0.2178 -0.1716  0.6841
  116OSM    C3S12105   3.217   4.243   6.649  0.8495  0.1497 -0.1211
  116OSM    H3S12106   3.176   4.146   6.614 -1.4162  0.5995  1.0698
  116OSM     O312107   3.091   4.314   6.667 -0.5133 -0.1052  0.6967
  116OSM    HO312108   3.096   4.383   6.601  1.2184  0.6568  1.5644
  116OSM    C4S12109   3.283   4.230   6.785 -0.4943  0.4181 -0.2573
  116OSM    H4S12110   3.342   4.138   6.800  2.6144  2.4322  0.9179
  116OSM    C5S12111   3.273   4.308   6.893  0.6626  0.6698 -0.4650
  116OSM    H5S12112   3.210   4.398   6.898  0.8005  1.0994 -3.8379
  116OSM    C6S12113   3.344   4.280   7.024  0.8189 -0.3187 -0.4150
  116OSM    H6S12114   3.413   4.365   7.041  0.1846 -0.1049  1.1799
  116OSM    H6T12115   3.401   4.184   7.029 -0.0553 -0.9115 -1.4373
  116OSM    C7S12116   3.242   4.282   7.142  0.1077 -0.1042 -0.8681
  116OSM    H7S12117   3.148   4.223   7.132 -1.3858  1.8703  0.6968
  116OSM    H7T12118   3.216   4.388   7.162 -2.8191 -0.7885 -0.5532
  116OSM    C8S12119   3.305   4.243   7.278 -0.5440 -0.6865 -0.0182
  116OSM    H8S12120   3.402   4.294   7.298 -0.9675  0.8647 -1.6956
  116OSM    H8T12121   3.330   4.135   7.284  1.2821 -0.5199 -2.8465
  116OSM    C9S12122   3.205   4.266   7.390  0.8085  0.2967 -0.5069
  116OSM    H9S12123   3.138   4.179   7.372 -2.6737  2.4869  0.7019
  116OSM    H9T12124   3.150   4.363   7.392 -0.3341 -0.3373  0.2176
  116OSM   C10S12125   3.274   4.254   7.527 -0.0646  0.1497  0.2717
  116OSM   H10S12126   3.337   4.344   7.541 -0.3853  0.6389 -1.2499
  116OSM   H10T12127   3.331   4.159   7.539 -1.1534 -0.5791 -0.2014
  116OSM   C11S12128   3.182   4.253   7.644 -0.1641 -0.3828  0.1909
  116OSM   H11S12129   3.121   4.160   7.643 -0.0583 -0.4606 -0.8805
  116OSM   H11T12130   3.109   4.336   7.631 -1.1036 -1.4366 -1.6484
  116OSM   C12S12131   3.258   4.253   7.779 -0.3385  0.4172  0.3634
  116OSM   H12S12132   3.316   4.347   7.790  0.9404 -0.3104  0.0755
  116OSM   H12T12133   3.331   4.170   7.768  2.1498  2.7478 -2.7133
  116OSM   C13S12134   3.165   4.240   7.892  0.5041 -0.2012 -0.3420
  116OSM   H13S12135   3.095   4.158   7.862  1.2674 -1.1451  0.3997
  116OSM   H13T12136   3.097   4.325   7.911  0.7679  0.2999 -1.5758
  116OSM   C14S12137   3.238   4.199   8.022  0.3952  0.1732  0.4313
  116OSM   H14S12138   3.321   4.272   8.033  1.1775 -0.7875  0.9895
  116OSM   H14T12139   3.283   4.098   8.017 -0.4219 -0.3456  2.4828
  116OSM   C15S12140   3.147   4.208   8.145 -0.6351  0.1601  0.5558
  116OSM   H15S12141   3.192   4.139   8.220  0.6595  2.0874  1.6383
  116OSM   H15T12142   3.049   4.160   8.123 -0.4489  1.1350 -2.8983
  116OSM   C16S12143   3.130   4.347   8.214  0.8753  0.1373  0.2867
  116OSM   H16S12144   3.094   4.418   8.136  0.7500 -0.3073 -0.0636
  116OSM   H16T12145   3.234   4.384   8.226  0.4327  1.6127 -0.1965
  116OSM   C17S12146   3.048   4.365   8.343 -0.0804  0.4110  0.0221
  116OSM   H17S12147   2.944   4.396   8.320 -0.7990 -1.0023  1.2143
  116OSM   H17T12148   3.095   4.448   8.400  2.8728 -1.4049  0.4310
  116OSM   C18S12149   3.036   4.246   8.434 -0.4956  0.0978 -0.2071
  116OSM   H18S12150   2.950   4.255   8.503 -0.2790 -0.2335  0.1127
  116OSM   H18T12151   3.132   4.237   8.489 -0.8277  4.5948  1.5195
  116OSM   H18U12152   3.029   4.145   8.387 -0.7651  0.0577 -0.0838
  116OSM    C1F12153   3.549   4.241   6.470  0.4708  0.4210  0.2449
  116OSM     OF12154   3.558   4.348   6.405  0.1573 -0.1209  0.1433
  116OSM    C2F12155   3.669   4.159   6.489 -0.3014  0.3428 -0.9245
  116OSM    H2F12156   3.711   4.138   6.388 -0.0143 -0.6117 -0.6064
  116OSM    H2G12157   3.656   4.061   6.538 -1.1520  0.8443 -0.1102
  116OSM    C3F12158   3.776   4.229   6.572 -0.8037  0.4104  0.3627
  116OSM    H3F12159   3.803   4.319   6.514  0.3512 -0.3523 -0.3158
  116OSM    H3G12160   3.853   4.149   6.571 -1.2854 -0.0724  0.7332
  116OSM    C4F12161   3.723   4.259   6.716 -0.1902 -0.5845 -0.2565
  116OSM    H4F12162   3.675   4.174   6.769  0.9091  0.6225  2.8774
  116OSM    H4G12163   3.638   4.331   6.709 -0.3475 -0.7948 -0.5529
  116OSM    C5F12164   3.825   4.321   6.814 -0.5035 -0.6044 -0.2789
  116OSM    H5F12165   3.869   4.417   6.778  0.3229 -0.7414  0.3203
  116OSM    H5G12166   3.906   4.246   6.827  0.5147  0.2875 -1.1589
  116OSM    C6F12167   3.764   4.349   6.948  0.0665  0.3723  0.6688
  116OSM    H6F12168   3.723   4.252   6.985 -1.4380 -0.5588 -2.9980
  116OSM    H6G12169   3.679   4.420   6.935 -1.7110 -1.6583  0.6551
  116OSM    C7F12170   3.871   4.397   7.040 -0.0574  0.2018  0.0321
  116OSM    H7F12171   3.924   4.478   6.986 -1.6250  2.3877  1.5994
  116OSM    H7G12172   3.937   4.315   7.076  1.2036  0.7919 -0.8675
  116OSM    C8F12173   3.821   4.462   7.170 -0.6107 -0.2248  0.6854
  116OSM    H8F12174   3.748   4.539   7.140 -1.3330 -1.1288  0.0670
  116OSM    H8G12175   3.911   4.517   7.205 -0.2981  0.0303 -0.4609
  116OSM    C9F12176   3.766   4.357   7.259  0.0993  0.0907 -0.0280
  116OSM    H9F12177   3.772   4.254   7.220 -0.3620 -0.6337  1.7162
  116OSM   C10F12178   3.729   4.380   7.390  0.5420  0.3777 -0.4867
  116OSM   H10F12179   3.692   4.297   7.453 -1.6912  1.3834 -0.4027
  116OSM   C11F12180   3.743   4.513   7.454  0.5816  0.3879 -0.2574
  116OSM   H11F12181   3.690   4.593   7.397 -0.5681  0.2800  0.6089
  116OSM   H11G12182   3.851   4.539   7.456  1.0760 -1.5258  2.1080
  116OSM   C12F12183   3.669   4.520   7.590 -0.0651  0.3052 -0.2592
  116OSM   H12F12184   3.720   4.436   7.643 -2.5478 -1.3147 -0.2771
  116OSM   H12G12185   3.569   4.479   7.564 -0.9076  1.5946  0.8325
  116OSM   C13F12186   3.660   4.655   7.650  0.9567 -0.4014 -0.9495
  116OSM   H13F12187   3.610   4.727   7.582 -3.1625 -0.9523  1.1199
  116OSM   H13G12188   3.764   4.690   7.667  1.8058 -2.2457 -2.0237
  116OSM   C14F12189   3.580   4.662   7.783  0.7661  0.0617 -0.6097
  116OSM   H14F12190   3.477   4.624   7.766  0.5643  1.2310 -2.2946
  116OSM   H14G12191   3.572   4.766   7.823  0.9972 -0.0474 -0.2716
  116OSM   C15F12192   3.650   4.579   7.894  0.0660  0.0310  0.9992
  116OSM   H15F12193   3.748   4.630   7.907 -0.7456  1.9685  0.0689
  116OSM   H15G12194   3.663   4.474   7.860 -1.2344  0.5497 -1.3594
  116OSM   C16F12195   3.568   4.576   8.015  0.3326 -0.6389 -0.3899
  116OSM   H16F12196   3.465   4.542   7.989 -0.0979  1.4028 -1.6241
  116OSM   H16G12197   3.562   4.674   8.067  1.9258 -1.3241  1.1760
  116OSM   C17F12198   3.629   4.498   8.123 -0.6985  0.2760 -0.2603
  116OSM   H17F12199   3.716   4.560   8.153  0.6395 -1.2717 -0.8016
  116OSM   H17G12200   3.670   4.411   8.068  2.5115  1.1977  0.4881
  116OSM   C18F12201   3.539   4.461   8.236  0.2149 -0.4109  0.5279
  116OSM   H18F12202   3.524   4.542   8.310 -0.2784 -0.7093  0.7614
  116OSM   H18G12203   3.571   4.367   8.288  0.0131 -2.2033 -2.3617
  116OSM   H18H12204   3.443   4.427   8.193  0.7885 -0.1891 -0.9989
  117OSM      N12205   2.456   0.439   5.963  0.6921  0.3158  1.2287
  117OSM    C1512206   2.307   0.474   5.943  0.0384 -0.2225 -0.5965
  117OSM   H15A12207   2.245   0.390   5.971  0.4802 -0.5749 -0.6664
  117OSM   H15B12208   2.285   0.496   5.840  0.1683  1.7283 -0.2358
  117OSM   H15C12209   2.271   0.557   6.002  0.2521  0.0815 -0.8932
  117OSM    C1412210   2.475   0.305   5.894  0.6124 -0.0489  0.6140
  117OSM   H14A12211   2.414   0.227   5.939  0.3266 -0.9758 -1.2921
  117OSM   H14B12212   2.577   0.277   5.875 -0.0282 -1.0646 -1.7042
  117OSM   H14C12213   2.442   0.321   5.793 -0.1997  0.1826  0.9056
  117OSM    C1312214   2.547   0.541   5.906  0.6928 -0.1585 -0.4755
  117OSM   H13A12215   2.515   0.636   5.948 -0.2976 -1.4011  1.7617
  117OSM   H13B12216   2.528   0.552   5.801  0.7558  1.5619 -0.3379
  117OSM   H13C12217   2.653   0.531   5.924  0.6810  1.9462  1.2438
  117OSM    C1212218   2.479   0.421   6.111  0.5085  0.2426  0.4197
  117OSM   H12A12219   2.578   0.382   6.125  0.1377 -0.0780  2.5019
  117OSM   H12B12220   2.411   0.342   6.140 -0.1553  0.4490 -0.5499
  117OSM    C1112221   2.459   0.548   6.198  0.0425 -0.0770 -0.2483
  117OSM   H11A12222   2.488   0.521   6.302 -2.0084 -0.1941  0.3481
  117OSM   H11B12223   2.351   0.572   6.205  0.3873  2.1337 -1.4548
  117OSM      P12224   2.653   0.722   6.198  0.0838 -0.0819 -0.5571
  117OSM    O1312225   2.746   0.615   6.167 -0.0800 -0.0767 -0.3980
  117OSM    O1412226   2.668   0.848   6.122  0.6363  0.0943 -0.6902
  117OSM    O1112227   2.641   0.739   6.356 -0.3462  0.1977 -0.5383
  117OSM    O1212228   2.515   0.666   6.153  0.6877  0.0050 -0.2302
  117OSM    C1S12229   2.762   0.765   6.434 -1.0694 -0.7123  0.4580
  117OSM    H1S12230   2.792   0.871   6.419 -0.6060 -0.6450  1.7333
  117OSM    H1T12231   2.851   0.710   6.397 -0.7954 -0.3468  0.5615
  117OSM     NF12232   2.861   0.759   6.663 -0.0240  0.4830  0.5367
  117OSM    HNF12233   2.939   0.697   6.671  1.8042  2.7558  1.1890
  117OSM    C2S12234   2.752   0.717   6.583 -0.5815 -0.2843  0.5169
  117OSM    H2S12235   2.658   0.757   6.625 -0.4673  3.5013 -2.3143
  117OSM    C3S12236   2.734   0.562   6.575  0.5016  0.4746 -0.4405
  117OSM    H3S12237   2.808   0.522   6.502  0.4781 -0.1010 -0.1554
  117OSM     O312238   2.605   0.512   6.530 -0.1385 -0.0446 -0.5213
  117OSM    HO312239   2.567   0.595   6.500  0.1432  0.1723 -0.2845
  117OSM    C4S12240   2.759   0.501   6.714 -0.4326 -0.1825  0.4205
  117OSM    H4S12241   2.710   0.539   6.805 -1.2024 -2.0966  0.8578
  117OSM    C5S12242   2.851   0.401   6.737  0.4946  0.0503  0.0880
  117OSM    H5S12243   2.891   0.350   6.648 -0.2638 -0.0101 -0.2266
  117OSM    C6S12244   2.893   0.342   6.866  0.1966  0.7751 -0.6332
  117OSM    H6S12245   3.004   0.341   6.862  0.2682 -2.5275 -0.4859
  117OSM    H6T12246   2.866   0.234   6.869 -1.7412  1.2446  0.4627
  117OSM    C7S12247   2.858   0.423   6.998 -0.3271  0.4746  0.2103
  117OSM    H7S12248   2.748   0.405   7.003 -0.1577 -1.5857 -1.7660
  117OSM    H7T12249   2.890   0.527   6.977  0.9375 -0.4242 -2.9876
  117OSM    C8S12250   2.929   0.374   7.116 -1.3840  0.0283  0.0950
  117OSM    H8S12251   3.032   0.340   7.091 -2.3292 -2.1447 -1.1720
  117OSM    H8T12252   2.890   0.275   7.149  1.1860 -0.3545  2.3458
  117OSM    C9S12253   2.918   0.459   7.240 -0.1805  0.5623 -0.4367
  117OSM    H9S12254   2.812   0.490   7.248  0.2267  2.0647 -0.4045
  117OSM    H9T12255   2.978   0.553   7.237 -0.1735  0.6840  1.8878
  117OSM   C10S12256   2.951   0.389   7.378 -0.0996  0.1063 -0.3746
  117OSM   H10S12257   3.061   0.385   7.388  0.0823  1.5777 -1.3853
  117OSM   H10T12258   2.907   0.288   7.365 -0.0910  0.0797 -0.1910
  117OSM   C11S12259   2.905   0.472   7.498 -0.1024  0.3296  0.2643
  117OSM   H11S12260   2.811   0.526   7.475  0.3589  1.6273  1.2920
  117OSM   H11T12261   2.972   0.560   7.511  0.7706  0.0755 -2.0075
  117OSM   C12S12262   2.897   0.400   7.625 -0.1906 -0.4599  0.1272
  117OSM   H12S12263   2.981   0.406   7.697 -0.7220 -0.1298  0.7252
  117OSM   H12T12264   2.887   0.291   7.605  1.1781 -0.1422 -2.7496
  117OSM   C13S12265   2.771   0.449   7.704 -0.3614  0.2106  0.1115
  117OSM   H13S12266   2.689   0.413   7.637 -0.9104  0.8139  0.4473
  117OSM   H13T12267   2.747   0.557   7.710 -0.6208  0.2170 -0.8420
  117OSM   C14S12268   2.757   0.377   7.842 -1.2951  0.7875 -0.8792
  117OSM   H14S12269   2.853   0.370   7.898 -1.5882 -0.2859 -0.4825
  117OSM   H14T12270   2.726   0.271   7.840 -0.8633  0.6358  0.0025
  117OSM   C15S12271   2.651   0.436   7.933  0.2338  0.0696  0.4791
  117OSM   H15S12272   2.554   0.447   7.880  0.9457 -1.2734 -1.2084
  117OSM   H15T12273   2.693   0.536   7.958  5.0538 -1.0913 -1.6168
  117OSM   C16S12274   2.623   0.369   8.065 -0.3941 -0.0317  0.0302
  117OSM   H16S12275   2.712   0.362   8.130  0.0515 -0.0332 -0.5675
  117OSM   H16T12276   2.580   0.268   8.050  2.4069 -1.2185 -0.5740
  117OSM   C17S12277   2.511   0.445   8.146  0.0663  0.6786 -0.4264
  117OSM   H17S12278   2.413   0.452   8.095  0.3138 -1.5680 -1.3474
  117OSM   H17T12279   2.564   0.542   8.153 -0.6036  0.9259  3.1120
  117OSM   C18S12280   2.498   0.396   8.288  0.1518 -0.0250 -0.8234
  117OSM   H18S12281   2.412   0.456   8.325 -0.7455 -1.1579 -1.0409
  117OSM   H18T12282   2.590   0.411   8.348 -1.3027 -2.3804  2.2583
  117OSM   H18U12283   2.466   0.290   8.291 -1.6830  0.5137 -0.0570
  117OSM    C1F12284   2.875   0.891   6.686  0.8353 -0.0824  0.5084
  117OSM     OF12285   2.777   0.968   6.675 -0.3150 -0.1858  0.8603
  117OSM    C2F12286   3.013   0.940   6.719 -0.0337  0.8588 -0.3038
  117OSM    H2F12287   3.006   1.050   6.713  2.1536  1.0117 -0.8511
  117OSM    H2G12288   3.084   0.908   6.640  0.1832  0.2034  0.1471
  117OSM    C3F12289   3.048   0.907   6.868  0.2378  1.1564  0.1030
  117OSM    H3F12290   3.155   0.936   6.871  0.7015 -0.4452  0.3503
  117OSM    H3G12291   3.045   0.796   6.882 -0.2149  1.0649 -0.6320
  117OSM    C4F12292   2.964   0.977   6.980 -0.3708 -0.6327  0.4823
  117OSM    H4F12293   2.864   1.004   6.939  1.1317  2.5753 -1.3860
  117OSM    H4G12294   3.011   1.075   7.005  0.4670 -1.2399  1.3469
  117OSM    C5F12295   2.953   0.888   7.098  0.1253  0.4912 -0.7244
  117OSM    H5F12296   3.053   0.863   7.139 -0.9947 -2.1874  0.5667
  117OSM    H5G12297   2.893   0.801   7.064 -0.2692  0.5656 -0.2300
  117OSM    C6F12298   2.889   0.950   7.225 -0.1576 -0.4015 -0.4580
  117OSM    H6F12299   2.793   1.000   7.201 -0.7485 -0.2086  2.0036
  117OSM    H6G12300   2.957   1.033   7.256  0.8421 -1.3980  0.1004
  117OSM    C7F12301   2.870   0.853   7.347  0.5098  0.5404  0.0761
  117OSM    H7F12302   2.972   0.824   7.378  0.1094 -1.0166 -0.0209
  117OSM    H7G12303   2.824   0.764   7.300  1.5713 -0.4505  0.8742
  117OSM    C8F12304   2.786   0.911   7.459 -0.8341  0.2360  0.2397
  117OSM    H8F12305   2.677   0.919   7.435 -1.0838 -1.4207  0.7316
  117OSM    H8G12306   2.839   1.008   7.473 -0.4439  0.0248  0.2072
  117OSM    C9F12307   2.787   0.825   7.581 -0.2618 -0.0089 -0.0584
  117OSM    H9F12308   2.846   0.732   7.574 -0.9689 -0.4801  0.2097
  117OSM   C10F12309   2.739   0.858   7.700  0.0340  0.3400 -0.6916
  117OSM   H10F12310   2.754   0.785   7.781  0.3220 -1.7641 -2.5736
  117OSM   C11F12311   2.666   0.987   7.740  0.6752 -0.2723  0.3406
  117OSM   H11F12312   2.696   1.072   7.675 -0.8713  0.7639  0.9385
  117OSM   H11G12313   2.689   1.004   7.847  2.4924 -2.7286  0.4324
  117OSM   C12F12314   2.521   0.973   7.735  0.5840  0.8677 -0.1848
  117OSM   H12F12315   2.483   0.936   7.637  1.4604 -2.6174  0.6557
  117OSM   H12G12316   2.473   1.071   7.755  0.0844  1.7686 -4.7874
  117OSM   C13F12317   2.466   0.867   7.830  0.3273 -0.4648  0.1889
  117OSM   H13F12318   2.500   0.766   7.799 -0.3318 -1.1311  1.5354
  117OSM   H13G12319   2.358   0.879   7.805  1.0294 -1.2882 -3.9679
  117OSM   C14F12320   2.486   0.909   7.973 -0.6174 -0.3316  0.2397
  117OSM   H14F12321   2.450   1.013   7.992  2.7082  0.8152  0.9871
  117OSM   H14G12322   2.595   0.924   7.989 -1.1650  2.2676  2.2872
  117OSM   C15F12323   2.419   0.815   8.074  0.1543  1.0318 -0.5130
  117OSM   H15F12324   2.461   0.713   8.072 -1.1813  0.4604 -0.8532
  117OSM   H15G12325   2.313   0.790   8.051  0.0352  0.4175  0.6232
  117OSM   C16F12326   2.437   0.871   8.217  0.9310 -0.2585 -0.9700
  117OSM   H16F12327   2.408   0.977   8.235 -0.4582 -0.4967 -1.6603
  117OSM   H16G12328   2.543   0.853   8.246  1.0624  0.2625 -1.1144
  117OSM   C17F12329   2.353   0.801   8.325  0.1395  0.0506 -0.2924
  117OSM   H17F12330   2.246   0.816   8.297 -0.2391  1.7638  1.7705
  117OSM   H17G12331   2.362   0.691   8.326  1.4847  0.1440 -0.2989
  117OSM   C18F12332   2.362   0.867   8.463 -0.4397  0.2396 -0.1073
  117OSM   H18F12333   2.458   0.848   8.516 -0.5754 -2.9022 -0.7744
  117OSM   H18G12334   2.285   0.834   8.536 -0.4688  2.0713  0.7339
  117OSM   H18H12335   2.352   0.977   8.451  2.3385  0.5806  0.0026
  118OSM      N12336   3.367   1.211   6.264 -0.0838  0.3611 -0.6668
  118OSM    C1512337   3.394   1.308   6.377 -0.2274  0.4121  0.0424
  118OSM   H15A12338   3.335   1.398   6.388 -0.5552  0.2305 -0.2397
  118OSM   H15B12339   3.499   1.330   6.391 -0.0597  0.0230 -0.5974
  118OSM   H15C12340   3.388   1.247   6.466  0.1432  2.8561  1.8625
  118OSM    C1412341   3.218   1.183   6.252  0.5031 -0.3139 -0.6371
  118OSM   H14A12342   3.200   1.105   6.179 -1.0103  1.3975 -2.1894
  118OSM   H14B12343   3.174   1.279   6.229  0.7333  0.4144  1.7462
  118OSM   H14C12344   3.183   1.156   6.350  2.2094 -1.9750 -0.4183
  118OSM    C1312345   3.416   1.262   6.135  0.2056 -0.2422  0.7236
  118OSM   H13A12346   3.362   1.353   6.112  0.3829 -0.5547 -1.0279
  118OSM   H13B12347   3.388   1.187   6.062  0.1529 -0.5117  1.0169
  118OSM   H13C12348   3.522   1.282   6.138  0.9760 -3.7011  0.2989
  118OSM    C1212349   3.440   1.081   6.293 -0.2309  0.0375 -0.2374
  118OSM   H12A12350   3.438   1.012   6.211 -0.1730  1.4977 -1.5240
  118OSM   H12B12351   3.383   1.029   6.368  0.2557  2.8767  2.3306
  118OSM    C1112352   3.592   1.097   6.334 -0.5908  0.5379  0.1191
  118OSM   H11A12353   3.616   1.006   6.393 -1.1907  0.7023  0.6262
  118OSM   H11B12354   3.614   1.184   6.399  0.7325  0.9626 -0.8447
  118OSM      P12355   3.703   0.989   6.120  0.0418  0.4395  0.3546
  118OSM    O1312356   3.572   0.932   6.078 -0.1167  0.3316  0.0381
  118OSM    O1412357   3.795   1.039   6.017 -0.1614 -0.2841 -0.3090
  118OSM    O1112358   3.780   0.885   6.217 -0.6289  0.6145 -0.3221
  118OSM    O1212359   3.672   1.111   6.217  0.5029  0.5313 -0.3459
  118OSM    C1S12360   3.895   0.940   6.286 -0.0157  0.1490  0.5994
  118OSM    H1S12361   3.894   1.051   6.284  1.5077  0.1925 -1.7711
  118OSM    H1T12362   3.984   0.906   6.229 -0.2078  1.2105 -0.3764
  118OSM     NF12363   3.983   0.981   6.527 -0.6565 -0.3522  0.3044
  118OSM    HNF12364   4.072   0.943   6.552 -0.7706  0.1027  1.4640
  118OSM    C2S12365   3.886   0.900   6.440 -0.3411  0.2426  0.2293
  118OSM    H2S12366   3.786   0.929   6.476 -0.4524 -1.9715  1.9558
  118OSM    C3S12367   3.908   0.743   6.453  0.0715 -0.1005  0.3419
  118OSM    H3S12368   4.015   0.722   6.433  0.2444  1.1353 -0.0883
  118OSM     O312369   3.832   0.677   6.355 -0.4327 -0.0880  0.2600
  118OSM    HO312370   3.790   0.749   6.308  0.3275  0.9401  1.1272
  118OSM    C4S12371   3.869   0.700   6.589  0.1735  1.3180 -0.5897
  118OSM    H4S12372   3.763   0.711   6.615  0.2019 -2.0389  1.5792
  118OSM    C5S12373   3.954   0.645   6.678 -0.3218 -0.7307  0.1777
  118OSM    H5S12374   4.063   0.644   6.659  0.0127  0.0498  1.7774
  118OSM    C6S12375   3.919   0.582   6.807 -0.3074 -0.3788 -0.5964
  118OSM    H6S12376   3.962   0.480   6.812  0.6513  0.0498  0.2686
  118OSM    H6T12377   3.808   0.583   6.817 -0.3322 -0.0917 -0.8700
  118OSM    C7S12378   3.982   0.665   6.924 -0.0647 -0.7538  1.0477
  118OSM    H7S12379   3.951   0.771   6.913  0.5817 -0.6683 -0.0332
  118OSM    H7T12380   4.092   0.659   6.909 -0.3327  1.0396 -2.5144
  118OSM    C8S12381   3.955   0.592   7.052 -0.2223  0.4446  0.4626
  118OSM    H8S12382   4.019   0.504   7.076 -0.9824  0.1016  1.2983
  118OSM    H8T12383   3.853   0.548   7.050  0.2857 -0.8452 -1.8426
  118OSM    C9S12384   3.967   0.689   7.171 -0.0419  0.1825 -0.8181
  118OSM    H9S12385   3.920   0.786   7.145 -0.0376 -0.2344 -2.5339
  118OSM    H9T12386   4.077   0.700   7.182 -0.2282  0.1375  1.7038
  118OSM   C10S12387   3.899   0.644   7.296  0.6167  0.3221 -0.3539
  118OSM   H10S12388   3.955   0.555   7.332 -2.4879 -0.8297  2.0008
  118OSM   H10T12389   3.792   0.618   7.283  1.1486 -2.2018 -0.1689
  118OSM   C11S12390   3.907   0.747   7.411  0.3319 -0.2643 -0.5782
  118OSM   H11S12391   3.841   0.829   7.376 -2.1294 -1.9926 -0.2220
  118OSM   H11T12392   4.010   0.776   7.442  1.1470 -2.3238 -1.2123
  118OSM   C12S12393   3.844   0.693   7.540 -0.2317 -0.2670  0.5789
  118OSM   H12S12394   3.769   0.612   7.525 -2.3862  1.5164  1.2995
  118OSM   H12T12395   3.813   0.787   7.590  2.2550 -0.0310  1.8575
  118OSM   C13S12396   3.946   0.642   7.642 -0.6246 -0.2127  0.3093
  118OSM   H13S12397   4.038   0.703   7.637 -0.1269 -1.0695 -2.5886
  118OSM   H13T12398   3.985   0.543   7.609  2.0212  0.1965  1.8972
  118OSM   C14S12399   3.895   0.608   7.782 -0.9862  0.0041  0.6859
  118OSM   H14S12400   3.988   0.567   7.824 -1.2711 -1.5567 -0.1293
  118OSM   H14T12401   3.814   0.533   7.767  0.0747 -1.0545  0.1453
  118OSM   C15S12402   3.859   0.732   7.867  0.2804  0.6565  0.5262
  118OSM   H15S12403   3.778   0.784   7.812  0.1098  1.5060  1.5467
  118OSM   H15T12404   3.945   0.802   7.878  0.0198  0.8980  1.0499
  118OSM   C16S12405   3.816   0.698   8.014  0.0883 -0.3454  0.5777
  118OSM   H16S12406   3.895   0.641   8.067 -1.3767 -2.3596  0.7530
  118OSM   H16T12407   3.735   0.622   8.018  0.5571 -0.7924  1.9004
  118OSM   C17S12408   3.784   0.822   8.099  0.5636  0.4549  0.1582
  118OSM   H17S12409   3.696   0.865   8.046 -1.6577 -1.5372  1.9803
  118OSM   H17T12410   3.870   0.891   8.089  0.2259  1.3711  2.8472
  118OSM   C18S12411   3.757   0.793   8.241 -0.2588 -0.1870 -0.2263
  118OSM   H18S12412   3.845   0.772   8.305  0.0647  0.3799 -0.4823
  118OSM   H18T12413   3.689   0.705   8.255  2.2025 -2.2525 -0.5250
  118OSM   H18U12414   3.714   0.879   8.297  1.0060 -1.3931  2.8491
  118OSM    C1F12415   3.961   1.115   6.543  0.3433 -0.9912  0.1038
  118OSM     OF12416   3.847   1.163   6.522 -0.3180  0.3147 -1.0981
  118OSM    C2F12417   4.075   1.197   6.590  0.1103  0.2016  0.4071
  118OSM    H2F12418   4.022   1.290   6.619  1.8895  1.4165 -0.1087
  118OSM    H2G12419   4.149   1.215   6.509  0.2035 -0.2610  0.3856
  118OSM    C3F12420   4.134   1.138   6.717  0.1694 -0.0377 -0.5490
  118OSM    H3F12421   4.198   1.222   6.752  0.4728 -0.7869  0.7803
  118OSM    H3G12422   4.195   1.051   6.684  0.3185 -0.8840  1.7504
  118OSM    C4F12423   4.044   1.095   6.839  0.2715 -0.1117 -0.3812
  118OSM    H4F12424   3.963   1.032   6.796  0.3921  0.8817 -2.1695
  118OSM    H4G12425   4.010   1.193   6.879 -1.6905 -1.2063  0.7896
  118OSM    C5F12426   4.132   1.025   6.939 -0.5373  0.2846  0.3115
  118OSM    H5F12427   4.231   1.074   6.929 -2.3878  4.0972 -1.3120
  118OSM    H5G12428   4.141   0.919   6.908  0.0112  0.5004 -0.3052
  118OSM    C6F12429   4.084   1.027   7.087  0.5173  0.3515  0.2332
  118OSM    H6F12430   4.151   0.950   7.132  1.1822  0.7173 -0.1030
  118OSM    H6G12431   3.981   0.987   7.087  0.9104 -0.7967 -1.6067
  118OSM    C7F12432   4.110   1.151   7.158 -0.5119  0.2746  0.4267
  118OSM    H7F12433   4.083   1.143   7.266 -1.0090  0.5371  0.3226
  118OSM    H7G12434   4.051   1.237   7.120 -1.2789 -1.0814 -1.6417
  118OSM    C8F12435   4.255   1.197   7.165  0.1768 -0.4642 -0.0282
  118OSM    H8F12436   4.247   1.289   7.226 -1.0836  1.2774 -2.6238
  118OSM    H8G12437   4.271   1.231   7.060 -0.1466 -0.4600 -0.0773
  118OSM    C9F12438   4.364   1.101   7.210  0.2136  0.6960  1.1230
  118OSM    H9F12439   4.413   1.038   7.134  1.2308  1.5422  1.0501
  118OSM   C10F12440   4.423   1.097   7.326 -0.2569  0.2255 -0.2398
  118OSM   H10F12441   4.488   1.010   7.340  1.6147  1.7869  1.3272
  118OSM   C11F12442   4.384   1.185   7.448 -0.0859  0.3591  0.4493
  118OSM   H11F12443   4.344   1.286   7.428  0.0537  0.3353  0.0578
  118OSM   H11G12444   4.468   1.183   7.521 -0.0838  2.2405  0.5276
  118OSM   C12F12445   4.270   1.113   7.527 -0.1056 -0.0010  0.1327
  118OSM   H12F12446   4.297   1.019   7.580 -0.5304 -0.8951 -1.1697
  118OSM   H12G12447   4.186   1.099   7.455  0.3569  3.8509 -1.3974
  118OSM   C13F12448   4.199   1.205   7.635  0.2937 -0.2043  0.4567
  118OSM   H13F12449   4.113   1.145   7.673 -0.6315  0.5005 -0.4702
  118OSM   H13G12450   4.159   1.294   7.582  2.2650  1.1401  1.1026
  118OSM   C14F12451   4.282   1.259   7.755  0.8770 -0.2512  0.0894
  118OSM   H14F12452   4.222   1.326   7.820  1.9822  1.0681 -0.1963
  118OSM   H14G12453   4.369   1.316   7.715  0.1384  1.6513  1.0640
  118OSM   C15F12454   4.346   1.150   7.847  0.0074 -1.2389 -0.7727
  118OSM   H15F12455   4.382   1.072   7.776  1.2763  0.1682 -1.7120
  118OSM   H15G12456   4.255   1.126   7.906 -0.5966 -0.8393 -1.5347
  118OSM   C16F12457   4.454   1.208   7.942  1.0339 -0.0119 -0.2628
  118OSM   H16F12458   4.402   1.284   8.004  0.2098 -0.3067 -0.5794
  118OSM   H16G12459   4.531   1.267   7.888 -1.1013  4.1687  0.8413
  118OSM   C17F12460   4.524   1.100   8.025  0.7021  0.2996  0.2061
  118OSM   H17F12461   4.563   1.017   7.962  0.2546 -0.0893  0.4284
  118OSM   H17G12462   4.461   1.044   8.097  2.0366 -1.5875 -0.0147
  118OSM   C18F12463   4.638   1.161   8.108  0.0755 -0.4312 -0.4302
  118OSM   H18F12464   4.613   1.227   8.194  3.0692 -1.0226  1.0490
  118OSM   H18G12465   4.704   1.212   8.034  1.0676 -0.1220  0.6377
  118OSM   H18H12466   4.708   1.090   8.158 -0.1135 -0.5406 -0.3213
  119OSM      N12467   0.245   1.781   5.688  0.3421 -0.8361 -0.1996
  119OSM    C1512468   0.131   1.869   5.657 -0.0126 -0.7746  0.4501
  119OSM   H15A12469   0.114   1.938   5.739  0.4322  0.4762 -0.4710
  119OSM   H15B12470   0.046   1.807   5.630 -1.1519  1.1354 -0.6050
  119OSM   H15C12471   0.151   1.917   5.562 -2.3357 -1.0553 -0.2515
  119OSM    C1412472   0.282   1.700   5.571  0.2210 -0.1069  0.3455
  119OSM   H14A12473   0.208   1.627   5.540  1.6999 -1.7267  0.5000
  119OSM   H14B12474   0.368   1.638   5.591 -0.3669 -1.3613 -0.8235
  119OSM   H14C12475   0.311   1.767   5.492  2.1186  0.8130  1.7431
  119OSM    C1312476   0.366   1.862   5.731 -0.0519 -0.8948  0.3072
  119OSM   H13A12477   0.439   1.806   5.788 -1.5504 -0.5647  2.6474
  119OSM   H13B12478   0.325   1.946   5.785 -0.8448 -1.2853  0.3150
  119OSM   H13C12479   0.411   1.916   5.649 -0.6631 -1.9862 -0.7704
  119OSM    C1212480   0.209   1.689   5.804  0.4433 -0.7806  0.7206
  119OSM   H12A12481   0.144   1.614   5.763  0.7056 -0.0882 -1.0571
  119OSM   H12B12482   0.147   1.748   5.870 -0.7604 -2.0948  0.7993
  119OSM    C1112483   0.310   1.609   5.882  0.6462 -0.6325 -0.2113
  119OSM   H11A12484   0.266   1.558   5.970 -0.9871  0.4476 -0.3453
  119OSM   H11B12485   0.375   1.679   5.937 -0.2453 -1.1245  1.5296
  119OSM      P12486   0.325   1.377   5.777  0.3386  0.2642  0.2958
  119OSM    O1312487   0.193   1.404   5.710 -0.2088 -0.5096  0.0886
  119OSM    O1412488   0.417   1.296   5.695  0.1650 -0.2921  0.0344
  119OSM    O1112489   0.287   1.317   5.918 -0.4986 -0.0811  0.2428
  119OSM    O1212490   0.389   1.522   5.807  0.0291 -0.1552 -0.0968
  119OSM    C1S12491   0.385   1.328   6.027 -0.1134 -0.6901  0.1118
  119OSM    H1S12492   0.450   1.419   6.022 -1.3118  0.3601  2.1393
  119OSM    H1T12493   0.450   1.238   6.027  1.6425  0.5268 -0.0369
  119OSM     NF12494   0.435   1.320   6.271 -0.5459 -0.4673 -0.1691
  119OSM    HNF12495   0.467   1.229   6.293 -1.0675 -0.3066  1.3190
  119OSM    C2S12496   0.332   1.323   6.174 -0.8485  0.4844 -0.4831
  119OSM    H2S12497   0.281   1.418   6.199 -1.9687 -0.5468  1.4270
  119OSM    C3S12498   0.236   1.207   6.199  0.6408 -0.0613 -0.5374
  119OSM    H3S12499   0.279   1.105   6.198 -1.8760 -1.2262  1.1364
  119OSM     O312500   0.152   1.178   6.083 -0.2037 -0.0130 -0.3633
  119OSM    HO312501   0.191   1.223   6.008 -0.1284  0.1028 -0.2558
  119OSM    C4S12502   0.160   1.231   6.326  0.4587  0.5027 -0.4372
  119OSM    H4S12503   0.219   1.223   6.419 -1.2582 -1.1015  0.5826
  119OSM    C5S12504   0.030   1.276   6.346 -0.1540  0.3013 -0.3447
  119OSM    H5S12505  -0.021   1.273   6.249  0.3654 -1.3279 -0.5941
  119OSM    C6S12506  -0.053   1.314   6.467  0.0175  0.2432  0.2681
  119OSM    H6S12507  -0.129   1.232   6.465  1.3987 -1.1307  1.3871
  119OSM    H6T12508  -0.102   1.413   6.454  0.4547  0.5445  0.8744
  119OSM    C7S12509   0.024   1.312   6.606 -0.2056 -0.4300  0.6501
  119OSM    H7S12510   0.096   1.396   6.613  1.3233 -1.4382 -1.5765
  119OSM    H7T12511   0.073   1.213   6.615 -1.2948 -1.0437  0.0671
  119OSM    C8S12512  -0.080   1.284   6.718  0.5831 -0.1539  0.2225
  119OSM    H8S12513  -0.100   1.175   6.711  1.9371 -0.3282 -2.4509
  119OSM    H8T12514  -0.169   1.346   6.694 -0.1500 -1.5951 -0.9957
  119OSM    C9S12515  -0.046   1.313   6.866  0.4938 -0.0396 -0.2936
  119OSM    H9S12516  -0.042   1.424   6.872  2.9282 -0.1467  2.8551
  119OSM    H9T12517   0.058   1.276   6.880  0.8485  0.7307 -0.8544
  119OSM   C10S12518  -0.147   1.248   6.970 -0.1315 -0.4950  0.1591
  119OSM   H10S12519  -0.098   1.150   6.989  1.3642 -0.1194 -1.5252
  119OSM   H10T12520  -0.239   1.223   6.912  0.9082  0.8039 -2.2072
  119OSM   C11S12521  -0.182   1.321   7.098  0.3647  0.2860 -0.2809
  119OSM   H11S12522  -0.234   1.416   7.075 -1.2602 -0.4443  0.2064
  119OSM   H11T12523  -0.090   1.336   7.158  0.9939  0.8989 -1.3776
  119OSM   C12S12524  -0.270   1.237   7.189 -0.6511  0.5006 -0.3073
  119OSM   H12S12525  -0.200   1.158   7.221  0.0365  0.5801 -1.5775
  119OSM   H12T12526  -0.347   1.178   7.134 -1.9058  1.6361  0.1702
  119OSM   C13S12527  -0.319   1.321   7.303 -0.1652  0.0183  0.0536
  119OSM   H13S12528  -0.405   1.383   7.269 -1.0919 -0.8260  0.7841
  119OSM   H13T12529  -0.236   1.385   7.339  1.9797 -3.4995  2.0382
  119OSM   C14S12530  -0.368   1.245   7.430 -0.1714 -0.1164  0.2174
  119OSM   H14S12531  -0.308   1.159   7.466 -1.9176 -0.7506  1.8050
  119OSM   H14T12532  -0.469   1.199   7.415 -0.0757 -0.6406  1.1108
  119OSM   C15S12533  -0.371   1.345   7.551  0.2235  0.0857 -0.2724
  119OSM   H15S12534  -0.405   1.449   7.529 -0.3439 -0.2012 -0.8031
  119OSM   H15T12535  -0.266   1.340   7.585  0.2180 -0.2385 -0.2975
  119OSM   C16S12536  -0.457   1.288   7.663 -0.5865  0.6287 -0.3567
  119OSM   H16S12537  -0.444   1.184   7.701 -2.2374  1.0642  1.6398
  119OSM   H16T12538  -0.562   1.292   7.627 -0.7320 -0.6482 -0.1397
  119OSM   C17S12539  -0.431   1.374   7.786  0.1974  0.0547 -0.7939
  119OSM   H17S12540  -0.479   1.474   7.772 -1.4109 -0.7155 -0.9761
  119OSM   H17T12541  -0.322   1.373   7.806  0.6153 -1.1329 -2.9308
  119OSM   C18S12542  -0.490   1.315   7.915 -0.3345  0.7357  0.5782
  119OSM   H18S12543  -0.444   1.364   8.004  1.0776 -2.3151  1.6450
  119OSM   H18T12544  -0.467   1.207   7.915 -0.8165  0.6017 -1.1083
  119OSM   H18U12545  -0.600   1.333   7.917 -0.0581  2.9220 -0.7661
  119OSM    C1F12546   0.504   1.433   6.297  0.3647  0.3047  0.5243
  119OSM     OF12547   0.465   1.532   6.242  0.6912  0.1885  0.3726
  119OSM    C2F12548   0.634   1.423   6.378  0.0461 -0.8891 -0.1412
  119OSM    H2F12549   0.690   1.516   6.357  1.3354 -1.4790  0.5775
  119OSM    H2G12550   0.699   1.338   6.347  2.3277  0.2430  1.2900
  119OSM    C3F12551   0.620   1.421   6.532  0.0950  0.0738 -0.0821
  119OSM    H3F12552   0.722   1.391   6.565  0.5273  0.3443 -1.1343
  119OSM    H3G12553   0.553   1.338   6.564  2.1256 -1.7857 -0.4561
  119OSM    C4F12554   0.581   1.566   6.585  1.0464 -0.5805  0.2743
  119OSM    H4F12555   0.486   1.548   6.640  0.1888  2.3036 -0.1174
  119OSM    H4G12556   0.545   1.630   6.502  2.1055  0.9819  0.9799
  119OSM    C5F12557   0.678   1.633   6.679  0.1618 -0.2487 -0.0513
  119OSM    H5F12558   0.771   1.652   6.621  1.0168  0.8338  1.6044
  119OSM    H5G12559   0.713   1.564   6.759  1.7878 -0.5951 -1.0171
  119OSM    C6F12560   0.615   1.766   6.725 -0.2018 -0.8090 -0.7441
  119OSM    H6F12561   0.525   1.756   6.789 -0.7013 -1.1991 -1.4928
  119OSM    H6G12562   0.583   1.826   6.637  1.4287 -1.1676 -1.6372
  119OSM    C7F12563   0.719   1.866   6.791 -0.3491 -0.2341 -0.2389
  119OSM    H7F12564   0.687   1.968   6.820  1.0653  0.4014 -0.8175
  119OSM    H7G12565   0.795   1.890   6.714  0.3816  0.5551  0.6994
  119OSM    C8F12566   0.796   1.796   6.908 -0.4604 -0.0549  0.1915
  119OSM    H8F12567   0.886   1.848   6.946 -0.6060 -0.9552  1.8437
  119OSM    H8G12568   0.830   1.696   6.872  0.4966 -0.0381  1.0179
  119OSM    C9F12569   0.712   1.757   7.021 -0.2963 -0.2543 -1.2557
  119OSM    H9F12570   0.607   1.730   7.000 -1.3611 -0.9834  3.6467
  119OSM   C10F12571   0.746   1.739   7.153  0.2262 -0.1348  0.5138
  119OSM   H10F12572   0.671   1.728   7.234 -1.6112 -0.1377 -1.1068
  119OSM   C11F12573   0.886   1.764   7.211 -0.5010  0.1656  0.3407
  119OSM   H11F12574   0.922   1.864   7.179 -2.6692  0.8774 -0.0859
  119OSM   H11G12575   0.961   1.694   7.170 -0.1019  0.0377  1.2544
  119OSM   C12F12576   0.904   1.768   7.367 -1.5711 -0.0181  0.1253
  119OSM   H12F12577   0.847   1.678   7.399  0.2559 -1.1216  0.4863
  119OSM   H12G12578   0.862   1.856   7.419  0.6810 -0.4323  2.9170
  119OSM   C13F12579   1.059   1.760   7.410 -0.4005  0.1495 -0.2854
  119OSM   H13F12580   1.103   1.854   7.370 -1.9099 -0.2436 -3.1591
  119OSM   H13G12581   1.095   1.680   7.342  2.6291  1.7871 -0.7874
  119OSM   C14F12582   1.076   1.728   7.563 -0.5516 -0.9017 -0.1442
  119OSM   H14F12583   1.010   1.651   7.607  1.7382 -2.9178 -0.0799
  119OSM   H14G12584   1.033   1.817   7.615 -3.6464 -1.9073 -0.7403
  119OSM   C15F12585   1.219   1.718   7.620  1.5447  0.1005 -0.2418
  119OSM   H15F12586   1.266   1.817   7.600  3.0650 -0.3087  1.0440
  119OSM   H15G12587   1.276   1.636   7.571 -1.0956 -1.6845 -0.5370
  119OSM   C16F12588   1.231   1.691   7.770 -0.8130 -0.1811  0.1684
  119OSM   H16F12589   1.177   1.598   7.797 -1.5764  0.1051 -0.3396
  119OSM   H16G12590   1.176   1.769   7.827  3.8728  0.1117  5.0325
  119OSM   C17F12591   1.376   1.690   7.825  0.0402  0.0216 -0.0915
  119OSM   H17F12592   1.376   1.695   7.936  2.1339  0.7414 -0.0657
  119OSM   H17G12593   1.420   1.784   7.784 -0.3664  0.9041  1.4412
  119OSM   C18F12594   1.459   1.575   7.778 -0.3384 -0.2136  0.2733
  119OSM   H18F12595   1.559   1.563   7.824 -0.1961 -1.2312 -0.2582
  119OSM   H18G12596   1.461   1.565   7.667 -0.6717 -2.4766  0.4276
  119OSM   H18H12597   1.414   1.478   7.811 -0.2971 -0.7030 -1.0380
  120OSM      N12598   3.610   5.583   6.464 -0.3382 -0.6848  0.2702
  120OSM    C1512599   3.665   5.467   6.395 -0.4019 -0.1944 -0.2264
  120OSM   H15A12600   3.769   5.478   6.369 -0.9072 -0.2975 -2.5075
  120OSM   H15B12601   3.615   5.458   6.299 -1.3335  2.2548 -0.0271
  120OSM   H15C12602   3.651   5.377   6.454  1.8817  0.3474  1.2583
  120OSM    C1412603   3.673   5.591   6.603  0.9301 -0.3017 -0.2295
  120OSM   H14A12604   3.631   5.515   6.668 -1.3573 -0.0421 -1.3125
  120OSM   H14B12605   3.666   5.689   6.648  0.7504  0.2158 -1.3490
  120OSM   H14C12606   3.779   5.571   6.605  0.8121 -0.9824 -0.6491
  120OSM    C1312607   3.659   5.702   6.388 -0.0638 -0.6489  0.2164
  120OSM   H13A12608   3.649   5.798   6.437  0.1104 -0.2977 -0.4201
  120OSM   H13B12609   3.606   5.713   6.295  2.6463 -1.6441 -1.5478
  120OSM   H13C12610   3.765   5.700   6.365 -0.6530  0.6828 -3.1729
  120OSM    C1212611   3.458   5.595   6.470 -0.0960  0.7276 -0.1816
  120OSM   H12A12612   3.429   5.597   6.366 -2.0990 -1.7218  0.2220
  120OSM   H12B12613   3.425   5.685   6.519  0.7725  1.1689 -0.3927
  120OSM    C1112614   3.389   5.470   6.539 -0.5164 -0.1257 -0.0232
  120OSM   H11A12615   3.278   5.482   6.539 -0.6839 -1.2904 -2.3766
  120OSM   H11B12616   3.422   5.476   6.646 -1.1065  1.4286  0.1092
  120OSM      P12617   3.358   5.276   6.351  0.2636  0.3178  0.2219
  120OSM    O1312618   3.342   5.383   6.259  0.1217  0.0704 -0.2474
  120OSM    O1412619   3.437   5.154   6.312  0.0576 -0.0105 -0.8423
  120OSM    O1112620   3.214   5.239   6.394 -0.3264 -0.5549 -0.0756
  120OSM    O1212621   3.424   5.344   6.479 -0.1028 -0.1440  0.3942
  120OSM    C1S12622   3.173   5.103   6.432 -0.0164 -0.2972 -0.5979
  120OSM    H1S12623   3.209   5.026   6.361 -1.3535 -2.3067  0.7970
  120OSM    H1T12624   3.063   5.094   6.422 -0.3033  1.8648  0.0190
  120OSM     NF12625   3.179   4.919   6.603 -0.2468  0.6688  0.2900
  120OSM    HNF12626   3.112   4.898   6.674 -0.9887  1.0817 -0.2845
  120OSM    C2S12627   3.204   5.064   6.577 -0.8087  0.6125 -0.3123
  120OSM    H2S12628   3.311   5.093   6.582 -0.4723 -0.7103  1.3722
  120OSM    C3S12629   3.126   5.157   6.669 -1.0311 -0.0234 -0.0910
  120OSM    H3S12630   3.017   5.147   6.651 -1.0656  1.0446 -0.5395
  120OSM     O312631   3.159   5.298   6.652 -0.5384  0.0551 -0.2166
  120OSM    HO312632   3.214   5.297   6.574 -0.8055 -1.3415 -0.4272
  120OSM    C4S12633   3.151   5.130   6.816  0.2654  0.1333  0.5451
  120OSM    H4S12634   3.060   5.100   6.870  0.5000 -2.8257 -0.5733
  120OSM    C5S12635   3.268   5.147   6.879  0.5661 -0.1343 -0.6479
  120OSM    H5S12636   3.351   5.178   6.814  1.5040 -0.4455  0.3628
  120OSM    C6S12637   3.283   5.115   7.025  0.1118 -0.4059 -0.5370
  120OSM    H6S12638   3.286   5.207   7.088  1.4813 -1.1886  0.6054
  120OSM    H6T12639   3.377   5.058   7.036  1.4268  1.6779 -0.2778
  120OSM    C7S12640   3.174   5.031   7.095  0.2072 -1.0603  0.1964
  120OSM    H7S12641   3.153   4.942   7.032 -1.9924  2.9744 -5.6832
  120OSM    H7T12642   3.081   5.090   7.083  1.1338  0.1410 -1.5685
  120OSM    C8S12643   3.201   5.005   7.244  0.0889  0.3534 -0.1571
  120OSM    H8S12644   3.214   5.101   7.298  1.0350  0.8177 -1.1725
  120OSM    H8T12645   3.301   4.956   7.242  0.2978  0.7845 -0.7773
  120OSM    C9S12646   3.089   4.913   7.313 -0.5977  0.6551 -0.1568
  120OSM    H9S12647   3.082   4.824   7.247 -0.8089  2.5431 -2.8444
  120OSM    H9T12648   2.993   4.968   7.318 -1.7527 -1.1474 -1.1338
  120OSM   C10S12649   3.132   4.868   7.458 -0.1832 -0.1985 -0.7155
  120OSM   H10S12650   3.134   4.968   7.505  1.3179 -1.6767  2.7474
  120OSM   H10T12651   3.232   4.822   7.473 -0.5856 -1.0349 -0.5015
  120OSM   C11S12652   3.023   4.787   7.531  0.0936  0.0936  0.6487
  120OSM   H11S12653   3.047   4.679   7.518 -0.5003 -0.2770  2.3376
  120OSM   H11T12654   2.926   4.798   7.478  0.2321 -0.6169  0.2330
  120OSM   C12S12655   3.007   4.815   7.683 -0.2071 -0.0172  0.3469
  120OSM   H12S12656   2.946   4.740   7.738  0.8278  1.0743  3.1319
  120OSM   H12T12657   2.964   4.916   7.694 -3.5204 -1.1450 -0.8110
  120OSM   C13S12658   3.146   4.807   7.752 -0.1486  0.5471  0.3922
  120OSM   H13S12659   3.215   4.878   7.701  1.2199 -1.8179 -1.2575
  120OSM   H13T12660   3.184   4.702   7.748 -4.2920 -1.2236  1.8893
  120OSM   C14S12661   3.132   4.858   7.892  0.1714  0.5977 -0.8627
  120OSM   H14S12662   3.035   4.827   7.937  0.1739  1.0703 -0.5295
  120OSM   H14T12663   3.140   4.969   7.891 -1.1437  0.7286  0.3029
  120OSM   C15S12664   3.249   4.813   7.986 -0.4497 -0.4809 -0.4079
  120OSM   H15S12665   3.345   4.868   7.970 -1.1682  0.8966 -0.1956
  120OSM   H15T12666   3.259   4.707   7.955 -1.2139 -0.7552  0.2716
  120OSM   C16S12667   3.206   4.810   8.134 -0.8528  0.0922  0.1338
  120OSM   H16S12668   3.107   4.761   8.124  0.4122 -2.1141 -3.0887
  120OSM   H16T12669   3.195   4.909   8.183 -1.0487 -1.2655  3.0728
  120OSM   C17S12670   3.302   4.738   8.227 -0.1016 -0.7430  0.2723
  120OSM   H17S12671   3.398   4.794   8.233 -0.8852  0.4862  3.5657
  120OSM   H17T12672   3.323   4.633   8.197  0.2869 -1.1844  2.0100
  120OSM   C18S12673   3.240   4.735   8.373 -0.1939  1.2903  0.7670
  120OSM   H18S12674   3.307   4.671   8.434 -1.3453 -1.9014 -1.0907
  120OSM   H18T12675   3.144   4.680   8.373  1.2870 -1.5635 -1.9274
  120OSM   H18U12676   3.242   4.839   8.414  0.9563  1.4625  0.3019
  120OSM    C1F12677   3.258   4.814   6.559  0.1058  0.0480  0.3021
  120OSM     OF12678   3.348   4.834   6.475  0.3501  0.1205 -0.1203
  120OSM    C2F12679   3.233   4.679   6.616 -0.0621 -0.0810  0.4111
  120OSM    H2F12680   3.317   4.614   6.585 -0.4904  0.4287 -1.9850
  120OSM    H2G12681   3.136   4.640   6.578 -0.4409 -1.3592  2.4914
  120OSM    C3F12682   3.222   4.667   6.769  0.1704 -0.6165  0.4930
  120OSM    H3F12683   3.189   4.561   6.774 -1.6092 -0.1715 -0.7312
  120OSM    H3G12684   3.141   4.733   6.808 -1.3692 -1.0451 -1.7831
  120OSM    C4F12685   3.358   4.697   6.834 -0.7488  0.1641  0.2150
  120OSM    H4F12686   3.372   4.806   6.814 -0.1724 -0.1066 -0.9881
  120OSM    H4G12687   3.436   4.644   6.775  1.3833  2.2896  0.9458
  120OSM    C5F12688   3.367   4.658   6.979  0.3110 -0.4494 -0.7151
  120OSM    H5F12689   3.325   4.558   7.005  1.3153 -0.5462  0.6497
  120OSM    H5G12690   3.301   4.735   7.023  0.4804 -0.0075 -1.2202
  120OSM    C6F12691   3.499   4.673   7.052  0.2533  0.2560  0.7027
  120OSM    H6F12692   3.572   4.622   6.987 -0.3284 -1.4311  1.3157
  120OSM    H6G12693   3.495   4.618   7.149  0.1420 -0.8688  0.0763
  120OSM    C7F12694   3.540   4.823   7.061 -0.1769  0.4835  0.5371
  120OSM    H7F12695   3.463   4.875   7.122 -1.3099 -0.8644  0.3061
  120OSM    H7G12696   3.547   4.869   6.961  2.0517 -2.6734 -0.9364
  120OSM    C8F12697   3.684   4.836   7.121  0.2790 -0.4430 -0.7864
  120OSM    H8F12698   3.741   4.760   7.064 -0.4628 -1.7056  0.1142
  120OSM    H8G12699   3.680   4.801   7.226  3.6323 -0.5069 -0.5896
  120OSM    C9F12700   3.743   4.974   7.114 -0.1856  0.2783  0.7485
  120OSM    H9F12701   3.715   5.039   7.030  3.6233  0.5844 -0.4418
  120OSM   C10F12702   3.826   5.032   7.205  0.2284 -0.5034 -0.1051
  120OSM   H10F12703   3.862   5.134   7.184 -0.7791  0.1913  1.4047
  120OSM   C11F12704   3.886   4.970   7.326 -0.0808  0.2246  0.6947
  120OSM   H11F12705   3.997   4.980   7.320 -0.2312  4.3964  1.3941
  120OSM   H11G12706   3.854   4.864   7.336 -0.6016  0.1666 -1.1965
  120OSM   C12F12707   3.845   5.035   7.461 -0.3811 -0.1928 -1.0487
  120OSM   H12F12708   3.736   5.047   7.473 -0.3169  1.5720 -1.9197
  120OSM   H12G12709   3.888   5.137   7.474  0.3681 -0.7277  1.1371
  120OSM   C13F12710   3.902   4.963   7.586  0.0591 -0.2000 -0.3199
  120OSM   H13F12711   4.013   4.959   7.585  0.0293 -1.2873 -0.1588
  120OSM   H13G12712   3.874   4.856   7.578  0.3502 -0.3528  0.6098
  120OSM   C14F12713   3.843   5.024   7.717  0.0964 -0.4866  0.4644
  120OSM   H14F12714   3.732   5.030   7.709 -0.1894 -0.3979  3.2654
  120OSM   H14G12715   3.879   5.128   7.729  0.2935 -0.4068 -0.7239
  120OSM   C15F12716   3.873   4.933   7.837 -0.4034  0.9159  0.2261
  120OSM   H15F12717   3.983   4.936   7.847 -0.2302  0.9860 -1.4092
  120OSM   H15G12718   3.854   4.826   7.815  2.8877  0.8160 -3.0632
  120OSM   C16F12719   3.803   4.970   7.973 -0.4006  0.5411 -0.1478
  120OSM   H16F12720   3.696   4.938   7.978  0.0053 -1.2016 -1.4206
  120OSM   H16G12721   3.812   5.079   7.988 -0.3184  0.4874  0.1938
  120OSM   C17F12722   3.872   4.899   8.091 -0.7254  0.0502 -0.2589
  120OSM   H17F12723   3.978   4.932   8.082 -0.2113 -1.8654 -2.1780
  120OSM   H17G12724   3.875   4.790   8.073 -1.6880 -0.0546  0.1936
  120OSM   C18F12725   3.811   4.921   8.228  0.4686  0.2936  0.0057
  120OSM   H18F12726   3.703   4.895   8.222  0.1257  1.2872  1.4329
  120OSM   H18G12727   3.822   5.028   8.256  1.4743  0.8450 -2.3061
  120OSM   H18H12728   3.864   4.856   8.301  0.4051 -0.3096 -0.4748
  121OSM      N12729   5.923   0.621   5.683 -1.0231  0.2823  0.0015
  121OSM    C1512730   5.908   0.741   5.597  0.1991  0.0091  0.1393
  121OSM   H15A12731   5.966   0.819   5.645  0.1890  0.4392 -0.5373
  121OSM   H15B12732   5.802   0.761   5.592 -0.2876 -2.5535 -1.6673
  121OSM   H15C12733   5.956   0.721   5.503 -0.9979 -1.9047 -0.1029
  121OSM    C1412734   5.855   0.508   5.622 -0.7080 -0.3628 -0.1369
  121OSM   H14A12735   5.747   0.516   5.618 -1.0108 -2.8813  0.8717
  121OSM   H14B12736   5.873   0.420   5.683 -1.0781  0.3716  1.0654
  121OSM   H14C12737   5.883   0.489   5.520 -2.2269 -0.7719 -0.4986
  121OSM    C1312738   6.072   0.581   5.683 -0.1569 -0.1309 -0.1472
  121OSM   H13A12739   6.107   0.552   5.585  0.7028  0.6014 -0.0720
  121OSM   H13B12740   6.089   0.501   5.754  2.8462  1.4880  1.1274
  121OSM   H13C12741   6.129   0.660   5.730 -1.5344  0.6242  0.3323
  121OSM    C1212742   5.887   0.640   5.838 -0.0219  0.2262  0.5044
  121OSM   H12A12743   5.965   0.701   5.881  1.4606 -1.8297  0.8983
  121OSM   H12B12744   5.908   0.544   5.882 -0.7478 -0.3932 -0.4396
  121OSM    C1112745   5.747   0.690   5.880 -0.5613 -0.6052 -0.0429
  121OSM   H11A12746   5.672   0.644   5.812  0.2319 -0.6923 -0.8759
  121OSM   H11B12747   5.754   0.799   5.860 -3.0767 -0.5163 -0.8457
  121OSM      P12748   5.722   0.510   6.067 -0.3802 -0.1018 -0.1749
  121OSM    O1312749   5.603   0.452   6.001  0.1593 -0.5688  0.4246
  121OSM    O1412750   5.856   0.446   6.048 -0.3677  0.0933  0.0459
  121OSM    O1112751   5.695   0.531   6.222 -0.1264  0.5516  0.6192
  121OSM    O1212752   5.735   0.657   6.015  0.2888 -0.6776 -0.6023
  121OSM    C1S12753   5.562   0.529   6.271  0.1920  0.4445  0.0718
  121OSM    H1S12754   5.508   0.444   6.224  1.9634  0.3757 -1.9742
  121OSM    H1T12755   5.514   0.622   6.235  0.2727 -0.0483 -1.3922
  121OSM     NF12756   5.411   0.489   6.465  0.0890 -0.4057 -0.2036
  121OSM    HNF12757   5.359   0.564   6.506 -0.4413 -0.1117 -1.3489
  121OSM    C2S12758   5.554   0.511   6.425 -0.3709  0.3254 -0.4036
  121OSM    H2S12759   5.609   0.420   6.457  0.9075  1.5593  1.0312
  121OSM    C3S12760   5.617   0.631   6.494 -0.8041 -0.4887  0.1908
  121OSM    H3S12761   5.567   0.714   6.441 -0.9715 -1.6888 -1.6086
  121OSM     O312762   5.763   0.642   6.470  0.7386 -0.3022 -0.4790
  121OSM    HO312763   5.761   0.564   6.414  0.4098 -0.6465 -0.0053
  121OSM    C4S12764   5.590   0.630   6.642 -0.2760 -0.0860 -0.4742
  121OSM    H4S12765   5.617   0.538   6.695  0.1781  0.2242 -0.1571
  121OSM    C5S12766   5.551   0.741   6.712  0.2690  0.5464 -0.1532
  121OSM    H5S12767   5.555   0.835   6.656  0.8110  1.3427  1.1656
  121OSM    C6S12768   5.518   0.732   6.860  0.5974 -0.2725 -1.3024
  121OSM    H6S12769   5.427   0.794   6.875  1.9535  1.2682  1.2109
  121OSM    H6T12770   5.599   0.783   6.918  1.0317 -0.8306 -1.4118
  121OSM    C7S12771   5.496   0.591   6.911  0.4537  0.8169 -0.1914
  121OSM    H7S12772   5.577   0.517   6.897 -0.1489  0.4190 -1.8969
  121OSM    H7T12773   5.420   0.545   6.844  0.9046  1.6471 -1.3037
  121OSM    C8S12774   5.430   0.591   7.049  0.1691  0.3743 -1.0654
  121OSM    H8S12775   5.394   0.487   7.064 -0.7974  0.3549 -3.1539
  121OSM    H8T12776   5.339   0.653   7.054  0.9196  1.5064 -1.0291
  121OSM    C9S12777   5.529   0.624   7.166 -0.3279 -0.9986 -0.6370
  121OSM    H9S12778   5.569   0.727   7.161  0.7130 -1.2556  1.2450
  121OSM    H9T12779   5.623   0.565   7.172 -1.3438 -2.5402  2.3410
  121OSM   C10S12780   5.463   0.609   7.308 -0.4137 -0.5393 -0.1595
  121OSM   H10S12781   5.358   0.646   7.306  0.5929  2.7225  1.1407
  121OSM   H10T12782   5.515   0.680   7.376 -0.1183 -1.4398  0.5837
  121OSM   C11S12783   5.459   0.460   7.362 -0.2421 -0.3415  0.6483
  121OSM   H11S12784   5.554   0.417   7.324 -0.1473 -1.2071  1.8086
  121OSM   H11T12785   5.375   0.409   7.310 -0.2278  1.1854 -0.9874
  121OSM   C12S12786   5.430   0.432   7.510 -1.4058  0.2194 -0.3701
  121OSM   H12S12787   5.320   0.437   7.525 -1.3761  0.1767 -0.1214
  121OSM   H12T12788   5.477   0.506   7.579 -0.2677 -0.0596 -0.8220
  121OSM   C13S12789   5.478   0.293   7.553 -0.1575  0.0253  0.3622
  121OSM   H13S12790   5.571   0.269   7.498  0.2455  0.1161  0.9855
  121OSM   H13T12791   5.403   0.211   7.549 -0.7846  0.2621  3.9486
  121OSM   C14S12792   5.532   0.288   7.694 -0.0765  0.7673 -0.7901
  121OSM   H14S12793   5.547   0.389   7.737  3.1895 -0.0687  0.3090
  121OSM   H14T12794   5.627   0.234   7.675 -0.2886  0.5847 -1.3359
  121OSM   C15S12795   5.446   0.214   7.799 -0.3649  0.6446 -0.1110
  121OSM   H15S12796   5.442   0.105   7.777  2.3202  0.8369 -1.9905
  121OSM   H15T12797   5.344   0.256   7.793 -0.2324  0.7629 -2.6459
  121OSM   C16S12798   5.490   0.228   7.943  0.1526  0.8548  0.2546
  121OSM   H16S12799   5.592   0.184   7.948 -0.0132  0.1949 -1.6279
  121OSM   H16T12800   5.415   0.177   8.008 -0.2758  1.9233  0.6160
  121OSM   C17S12801   5.492   0.378   7.985 -0.0788  0.7512  0.3782
  121OSM   H17S12802   5.391   0.406   7.947 -0.6153 -1.3802  0.0540
  121OSM   H17T12803   5.575   0.431   7.935 -1.3345  2.3323 -0.1030
  121OSM   C18S12804   5.478   0.387   8.144 -0.2514 -0.0967  0.4527
  121OSM   H18S12805   5.467   0.495   8.166 -1.5022  0.1400 -1.1260
  121OSM   H18T12806   5.571   0.345   8.189  0.2186  2.2876  1.8490
  121OSM   H18U12807   5.384   0.336   8.173 -0.3020 -0.5300 -0.4372
  121OSM    C1F12808   5.354   0.374   6.447 -0.0393 -0.4637  0.4006
  121OSM     OF12809   5.403   0.285   6.378  0.1566  0.7870  0.5328
  121OSM    C2F12810   5.217   0.350   6.518 -1.2090  0.3114 -0.1045
  121OSM    H2F12811   5.174   0.267   6.457  3.2403 -1.4688 -1.2138
  121OSM    H2G12812   5.157   0.443   6.508 -2.0761 -0.2317 -0.0555
  121OSM    C3F12813   5.234   0.312   6.666  0.3122 -0.7791  0.4061
  121OSM    H3F12814   5.137   0.305   6.720  0.5423 -1.0199  0.7857
  121OSM    H3G12815   5.279   0.399   6.717  1.2299 -0.7628 -0.3985
  121OSM    C4F12816   5.309   0.175   6.688 -0.3443  0.3705  0.3110
  121OSM    H4F12817   5.322   0.170   6.798  0.7523  0.4398  0.1957
  121OSM    H4G12818   5.406   0.183   6.635 -0.4926 -0.4924 -0.1079
  121OSM    C5F12819   5.240   0.048   6.634 -0.4804 -0.7065 -0.0535
  121OSM    H5F12820   5.294  -0.041   6.674  0.9042 -0.0585 -0.4075
  121OSM    H5G12821   5.245   0.036   6.524 -2.2443  1.2082 -0.3956
  121OSM    C6F12822   5.091   0.043   6.682  0.3178  0.3021  0.4116
  121OSM    H6F12823   5.037   0.125   6.631 -2.4922 -1.5739  0.1517
  121OSM    H6G12824   5.091   0.047   6.793  0.5361  0.7911  0.3954
  121OSM    C7F12825   4.997  -0.075   6.646  0.4898  0.1576 -0.0518
  121OSM    H7F12826   5.037  -0.170   6.690 -0.3487 -0.5817 -0.8473
  121OSM    H7G12827   4.986  -0.079   6.535 -0.4955  0.1786  0.0379
  121OSM    C8F12828   4.859  -0.047   6.713 -0.1191  0.3386  0.3137
  121OSM    H8F12829   4.825   0.051   6.673 -1.4430 -0.7055 -1.2946
  121OSM    H8G12830   4.876  -0.035   6.822 -1.6176  0.7199  0.5350
  121OSM    C9F12831   4.755  -0.149   6.672 -0.1467  0.1159 -0.2630
  121OSM    H9F12832   4.708  -0.148   6.572 -1.6808 -0.6190  0.4206
  121OSM   C10F12833   4.733  -0.259   6.748  0.0801 -0.3396 -0.5179
  121OSM   H10F12834   4.643  -0.318   6.724 -0.9088  1.5277 -1.6354
  121OSM   C11F12835   4.795  -0.287   6.883 -0.4434  0.2363 -0.4839
  121OSM   H11F12836   4.828  -0.196   6.936  1.0977  0.4138 -1.6384
  121OSM   H11G12837   4.894  -0.336   6.866  0.8656  1.9735  1.6587
  121OSM   C12F12838   4.717  -0.371   6.983 -0.0231 -0.3264 -0.4908
  121OSM   H12F12839   4.678  -0.472   6.955 -1.5418 -0.1259  0.7854
  121OSM   H12G12840   4.631  -0.305   7.005  1.3436  1.5479 -0.5929
  121OSM   C13F12841   4.809  -0.379   7.105  0.8064  0.0527 -0.1202
  121OSM   H13F12842   4.843  -0.277   7.133  1.0439 -0.2339  0.6742
  121OSM   H13G12843   4.898  -0.439   7.079  0.9916  0.8606 -1.4511
  121OSM   C14F12844   4.738  -0.429   7.238  0.0240 -0.0113 -0.0736
  121OSM   H14F12845   4.651  -0.366   7.264 -0.1005 -0.5206  0.7677
  121OSM   H14G12846   4.814  -0.412   7.317 -0.6016  1.9237  0.1556
  121OSM   C15F12847   4.697  -0.575   7.235 -0.8482  0.0017  0.3152
  121OSM   H15F12848   4.633  -0.611   7.152  1.4312 -1.5196 -0.8744
  121OSM   H15G12849   4.654  -0.601   7.334 -0.7183 -0.1839  0.3234
  121OSM   C16F12850   4.824  -0.664   7.222  0.1006 -0.2302  0.6167
  121OSM   H16F12851   4.902  -0.606   7.277 -1.7671  1.4574  1.5860
  121OSM   H16G12852   4.849  -0.665   7.114  0.1902 -3.1682  0.6002
  121OSM   C17F12853   4.789  -0.803   7.277 -0.2381 -0.0412  0.7066
  121OSM   H17F12854   4.722  -0.843   7.198  1.1195  0.3986 -0.7084
  121OSM   H17G12855   4.735  -0.798   7.374 -0.4547  0.3946  0.5687
  121OSM   C18F12856   4.904  -0.902   7.306 -0.0676 -0.2171 -0.4558
  121OSM   H18F12857   4.851  -0.987   7.354 -0.0355 -2.2619 -3.7352
  121OSM   H18G12858   4.962  -0.864   7.393 -0.3721 -2.0154  0.5703
  121OSM   H18H12859   4.968  -0.928   7.220  0.2177 -1.7063  0.1891
  122OSM      N12860   5.868   1.881   5.936 -0.1718 -0.0113  0.3061
  122OSM    C1512861   5.982   1.909   5.847  0.3843 -0.6604 -0.2554
  122OSM   H15A12862   5.948   1.968   5.763  1.2582  0.0521 -0.1283
  122OSM   H15B12863   6.025   1.817   5.811 -1.5351 -2.3859  1.6251
  122OSM   H15C12864   6.060   1.962   5.899 -1.4425  2.3169 -0.3384
  122OSM    C1412865   5.917   1.803   6.055 -0.5201  0.1713 -0.4833
  122OSM   H14A12866   5.995   1.860   6.104 -0.7841 -1.3377  1.8714
  122OSM   H14B12867   5.958   1.707   6.027 -0.2412 -0.3860  1.6500
  122OSM   H14C12868   5.838   1.796   6.129  0.3690 -2.0835  0.3555
  122OSM    C1312869   5.817   2.010   5.981 -0.4512  0.1354 -0.1029
  122OSM   H13A12870   5.892   2.061   6.041 -2.3989  1.5186  1.2556
  122OSM   H13B12871   5.727   1.997   6.037  1.1211 -2.6314  2.0156
  122OSM   H13C12872   5.794   2.063   5.889 -0.0976 -1.1683 -0.9662
  122OSM    C1212873   5.760   1.798   5.875 -0.3406  0.2615  0.3564
  122OSM   H12A12874   5.805   1.704   5.846  0.8802  1.3027 -1.4064
  122OSM   H12B12875   5.720   1.836   5.782 -1.1240 -1.6779 -0.1468
  122OSM    C1112876   5.644   1.768   5.972  0.1942  0.3854  0.9489
  122OSM   H11A12877   5.576   1.855   5.979 -0.6516 -0.1674 -0.0447
  122OSM   H11B12878   5.677   1.747   6.076  3.5150  2.8821  0.5650
  122OSM      P12879   5.614   1.510   5.937 -0.0613 -0.1439  0.4184
  122OSM    O1312880   5.521   1.421   5.872  0.4798  0.1108 -0.7091
  122OSM    O1412881   5.757   1.487   5.893 -0.3260 -0.2237  0.3412
  122OSM    O1112882   5.591   1.499   6.092  0.8057 -0.0207 -0.8042
  122OSM    O1212883   5.567   1.657   5.913 -0.1491  0.2159  0.0821
  122OSM    C1S12884   5.454   1.528   6.141 -0.5968  0.5296 -0.3952
  122OSM    H1S12885   5.396   1.433   6.133  1.0573 -0.5888  0.1523
  122OSM    H1T12886   5.403   1.606   6.081 -2.9253 -1.7700 -1.6304
  122OSM     NF12887   5.324   1.611   6.330 -0.7669 -1.4393  0.5816
  122OSM    HNF12888   5.310   1.710   6.334  2.1950 -0.8840 -0.1905
  122OSM    C2S12889   5.460   1.582   6.289 -0.3029  0.2657 -0.0444
  122OSM    H2S12890   5.502   1.504   6.356  0.8593  1.2796  0.4447
  122OSM    C3S12891   5.558   1.697   6.307 -0.2968 -0.4454  0.9614
  122OSM    H3S12892   5.549   1.779   6.233  0.0384 -2.5535 -1.5559
  122OSM     O312893   5.686   1.649   6.274 -0.5925 -0.0036 -0.1618
  122OSM    HO312894   5.666   1.586   6.204 -1.1934  0.6113 -0.5568
  122OSM    C4S12895   5.571   1.748   6.449  0.2222 -0.0967 -0.4031
  122OSM    H4S12896   5.642   1.691   6.511  1.1282  0.7108 -0.6792
  122OSM    C5S12897   5.499   1.848   6.499  0.0731 -0.3780 -0.1169
  122OSM    H5S12898   5.419   1.899   6.444  0.2937  1.3885  1.1127
  122OSM    C6S12899   5.491   1.894   6.642 -0.2426  0.4025  0.2347
  122OSM    H6S12900   5.491   2.003   6.662 -5.9155  0.7008  0.2502
  122OSM    H6T12901   5.583   1.847   6.684  0.2626 -2.4449 -3.4424
  122OSM    C7S12902   5.372   1.822   6.704 -0.0951 -0.0749  0.0377
  122OSM    H7S12903   5.377   1.712   6.690 -2.1095 -0.4971  2.0162
  122OSM    H7T12904   5.278   1.851   6.652  1.4713 -1.1075 -3.7194
  122OSM    C8S12905   5.357   1.855   6.850  0.6954 -0.9607  0.0336
  122OSM    H8S12906   5.449   1.811   6.894  1.1453  1.5185  1.7794
  122OSM    H8T12907   5.280   1.796   6.904  0.0439  0.6962  0.9977
  122OSM    C9S12908   5.350   1.997   6.896 -0.8274 -0.2338 -0.2431
  122OSM    H9S12909   5.284   2.066   6.839  0.9146  1.1118 -0.7036
  122OSM    H9T12910   5.453   2.039   6.889 -1.0043  0.9500  2.9047
  122OSM   C10S12911   5.321   2.012   7.042 -0.3099  0.2892 -0.0611
  122OSM   H10S12912   5.389   1.955   7.109  0.1218 -0.7288 -1.3169
  122OSM   H10T12913   5.221   1.969   7.066  0.8177 -4.1942 -2.2221
  122OSM   C11S12914   5.325   2.153   7.109  0.0107 -0.1562 -0.0030
  122OSM   H11S12915   5.247   2.216   7.061  0.8302 -0.8705 -2.4395
  122OSM   H11T12916   5.413   2.208   7.069 -0.5989 -0.7445 -2.2981
  122OSM   C12S12917   5.319   2.143   7.265 -0.3571 -0.2679  0.5757
  122OSM   H12S12918   5.357   2.240   7.303 -1.5270  0.0780  0.8977
  122OSM   H12T12919   5.384   2.056   7.291  0.3282 -0.1358 -0.5924
  122OSM   C13S12920   5.176   2.105   7.315  0.6232 -0.5763  0.7576
  122OSM   H13S12921   5.159   2.004   7.358  1.1907 -1.7424 -1.5745
  122OSM   H13T12922   5.108   2.134   7.232  0.6193 -2.4102  0.0747
  122OSM   C14S12923   5.145   2.203   7.432  0.3323  0.0610 -0.5893
  122OSM   H14S12924   5.038   2.189   7.459  0.9274  1.0721  2.7336
  122OSM   H14T12925   5.147   2.310   7.400  2.3783  0.3601  0.3416
  122OSM   C15S12926   5.242   2.188   7.549  0.0456  0.8527 -0.0920
  122OSM   H15S12927   5.341   2.227   7.517  0.5361  0.9516  1.4549
  122OSM   H15T12928   5.244   2.083   7.586 -1.9818  0.6052 -0.5561
  122OSM   C16S12929   5.213   2.276   7.672  0.2640 -0.2618 -0.8412
  122OSM   H16S12930   5.201   2.379   7.630 -2.0185  0.0509  0.4479
  122OSM   H16T12931   5.299   2.267   7.742 -1.3653 -1.7811  1.0388
  122OSM   C17S12932   5.095   2.234   7.758  0.0818  0.4090  0.3076
  122OSM   H17S12933   5.116   2.133   7.799  1.8280  0.8025  0.4690
  122OSM   H17T12934   5.006   2.222   7.692  0.7782 -1.1090 -0.3950
  122OSM   C18S12935   5.067   2.324   7.878  0.3423 -0.9247 -0.7199
  122OSM   H18S12936   5.055   2.427   7.838  0.7160 -1.2796 -1.7753
  122OSM   H18T12937   5.156   2.332   7.943 -1.3595  0.0514  1.6175
  122OSM   H18U12938   4.972   2.303   7.933  0.0608  2.5267  0.3218
  122OSM    C1F12939   5.229   1.525   6.335 -0.0166  0.7423 -0.4152
  122OSM     OF12940   5.252   1.408   6.365  0.2009 -0.5800 -0.4717
  122OSM    C2F12941   5.088   1.568   6.297 -0.7441 -0.4644 -0.7487
  122OSM    H2F12942   5.058   1.499   6.216  2.1439 -0.5760 -1.8552
  122OSM    H2G12943   5.086   1.673   6.261  0.6623  0.3088  1.2700
  122OSM    C3F12944   4.994   1.551   6.420 -0.2158 -0.4508 -0.0850
  122OSM    H3F12945   4.993   1.446   6.455  0.3524 -1.1018 -1.9311
  122OSM    H3G12946   4.894   1.583   6.385 -0.0263 -1.3310 -1.5001
  122OSM    C4F12947   5.029   1.641   6.543 -0.2835  0.3768 -0.8992
  122OSM    H4F12948   5.019   1.750   6.523  1.2630  0.8673  0.7417
  122OSM    H4G12949   5.137   1.622   6.556 -0.4387  0.2238  0.2832
  122OSM    C5F12950   4.953   1.594   6.666 -0.2733  0.6659 -0.5528
  122OSM    H5F12951   4.981   1.489   6.688 -0.5902  0.6278 -0.3252
  122OSM    H5G12952   4.842   1.596   6.661 -0.2341  1.8799 -1.5656
  122OSM    C6F12953   4.986   1.684   6.786 -0.0754 -0.2869 -0.2737
  122OSM    H6F12954   4.927   1.778   6.780 -0.2668 -0.3797  0.1247
  122OSM    H6G12955   5.095   1.705   6.786  0.2240 -1.7737 -0.3537
  122OSM    C7F12956   4.944   1.615   6.915  0.6111 -0.1623  0.1106
  122OSM    H7F12957   4.991   1.515   6.920 -0.5778 -0.7870 -0.5711
  122OSM    H7G12958   4.833   1.616   6.922  0.6040  0.9635  0.1570
  122OSM    C8F12959   4.996   1.701   7.028  0.4518  0.1863  0.2804
  122OSM    H8F12960   5.106   1.716   7.037  0.8937 -2.0782 -0.7808
  122OSM    H8G12961   4.963   1.650   7.121  0.6005 -0.5905 -0.0887
  122OSM    C9F12962   4.935   1.836   7.031  0.0489  0.1922  0.1432
  122OSM    H9F12963   4.951   1.900   6.943  0.8539  1.2148  1.0165
  122OSM   C10F12964   4.859   1.885   7.127  0.3566  0.8353 -0.0614
  122OSM   H10F12965   4.821   1.987   7.107 -0.5678  0.2751 -1.2833
  122OSM   C11F12966   4.809   1.815   7.256  0.2725  0.7086  0.4512
  122OSM   H11F12967   4.788   1.707   7.241 -1.7706  0.8029  2.2110
  122OSM   H11G12968   4.714   1.862   7.291 -0.4275  0.8988 -1.5771
  122OSM   C12F12969   4.908   1.823   7.376 -1.1244  0.5702 -0.2567
  122OSM   H12F12970   4.922   1.927   7.412 -0.9945  0.7857 -0.9161
  122OSM   H12G12971   5.011   1.794   7.345 -2.0846 -0.7604 -2.3946
  122OSM   C13F12972   4.851   1.744   7.492  0.5130  1.2920 -0.1833
  122OSM   H13F12973   4.836   1.639   7.458  1.8440  1.6628 -2.1294
  122OSM   H13G12974   4.756   1.786   7.530 -0.3711 -1.0841  0.4574
  122OSM   C14F12975   4.938   1.747   7.622  0.2308 -0.0849  1.5745
  122OSM   H14F12976   4.946   1.857   7.634  0.3571 -0.1328  1.9680
  122OSM   H14G12977   5.035   1.693   7.611 -0.2196 -0.4834 -0.9259
  122OSM   C15F12978   4.856   1.697   7.744 -0.0789  0.2365  0.0300
  122OSM   H15F12979   4.811   1.598   7.728  1.1633 -0.3236 -0.1201
  122OSM   H15G12980   4.764   1.757   7.759  0.3579  0.6486  1.2008
  122OSM   C16F12981   4.932   1.697   7.874 -0.2575 -0.3594  0.1314
  122OSM   H16F12982   4.990   1.789   7.893  1.2788 -0.7736 -2.2255
  122OSM   H16G12983   5.001   1.610   7.865  1.5946  1.1714 -1.2573
  122OSM   C17F12984   4.837   1.660   7.993  0.2393 -0.3535  0.3929
  122OSM   H17F12985   4.736   1.694   7.963  0.4468 -0.0403  0.0506
  122OSM   H17G12986   4.866   1.729   8.076  1.6360  1.2665 -1.3595
  122OSM   C18F12987   4.832   1.508   8.034  0.0576  0.3939 -0.1521
  122OSM   H18F12988   4.763   1.483   8.117  0.7070 -0.0319  0.2639
  122OSM   H18G12989   4.931   1.479   8.075  1.2229  0.0367 -3.0168
  122OSM   H18H12990   4.817   1.438   7.949  1.5412 -1.6912  1.2109
  123OSM      N12991   2.848   5.324   6.279 -0.0871  0.1232 -0.3910
  123OSM    C1512992   2.753   5.419   6.216 -0.5149  0.2834 -0.2355
  123OSM   H15A12993   2.796   5.510   6.178 -0.1224 -0.6494 -2.1423
  123OSM   H15B12994   2.678   5.444   6.290 -0.1353 -0.4994  0.4373
  123OSM   H15C12995   2.710   5.374   6.128  0.9957  0.2975 -1.0222
  123OSM    C1412996   2.762   5.201   6.302  0.7526  0.4706 -0.1136
  123OSM   H14A12997   2.721   5.157   6.212  1.9734 -2.4101  0.5992
  123OSM   H14B12998   2.689   5.222   6.379  0.5887  0.0730 -0.1572
  123OSM   H14C12999   2.824   5.121   6.339  0.1039 -0.0707 -0.1642
  123OSM    C1313000   2.963   5.300   6.178 -0.7618  0.3767 -0.0141
  123OSM   H13A13001   3.040   5.240   6.225 -1.8750 -0.3004  0.9934
  123OSM   H13B13002   2.998   5.399   6.152 -1.1246  0.1721 -1.3618
  123OSM   H13C13003   2.930   5.259   6.084 -2.0862  0.5594  0.3571
  123OSM    C1213004   2.914   5.375   6.409 -0.8681 -0.4510  0.2116
  123OSM   H12A13005   2.960   5.471   6.395 -0.1025 -0.9581 -1.0426
  123OSM   H12B13006   2.999   5.312   6.431 -1.9562 -1.9830  0.2267
  123OSM    C1113007   2.830   5.377   6.535 -0.2802  0.5162 -0.5234
  123OSM   H11A13008   2.889   5.432   6.611 -0.6713  1.8156 -1.1319
  123OSM   H11B13009   2.808   5.272   6.562  0.1668  0.1874 -1.3929
  123OSM      P13010   2.563   5.420   6.558  0.0907  0.2651 -0.2240
  123OSM    O1313011   2.503   5.556   6.564  0.0361  0.2546 -0.3000
  123OSM    O1413012   2.514   5.318   6.460  0.9116 -0.3436  0.2819
  123OSM    O1113013   2.585   5.350   6.696  0.5456 -0.3876 -0.1323
  123OSM    O1213014   2.711   5.452   6.513  0.2970 -0.1878  0.0408
  123OSM    C1S13015   2.641   5.422   6.808  0.1994  0.3870 -0.4383
  123OSM    H1S13016   2.576   5.509   6.828 -0.9605 -0.2523 -1.2981
  123OSM    H1T13017   2.745   5.460   6.797  0.4339 -0.2124 -0.3294
  123OSM     NF13018   2.720   5.403   7.050  0.3254 -0.0706 -0.0277
  123OSM    HNF13019   2.807   5.365   7.082  0.0402 -1.2162 -0.5344
  123OSM    C2S13020   2.651   5.334   6.936  0.4399  0.2795 -0.1059
  123OSM    H2S13021   2.544   5.318   6.960  0.3596 -0.3351 -0.8168
  123OSM    C3S13022   2.717   5.196   6.899  0.2230  0.2282 -0.3717
  123OSM    H3S13023   2.828   5.206   6.894  0.3463 -0.6060  0.4193
  123OSM     O313024   2.685   5.126   6.782 -0.7372 -0.9106  0.1751
  123OSM    HO313025   2.639   5.195   6.735 -0.2954 -0.1839  0.7973
  123OSM    C4S13026   2.696   5.098   7.009  0.7104  0.2713 -0.0007
  123OSM    H4S13027   2.760   5.116   7.096 -1.1102  1.5520  1.1448
  123OSM    C5S13028   2.588   5.014   7.028 -0.4324 -0.0178 -0.2448
  123OSM    H5S13029   2.501   5.013   6.961 -1.3467  0.6323  0.9190
  123OSM    C6S13030   2.563   4.930   7.149  0.8436  0.6529  0.5276
  123OSM    H6S13031   2.576   4.822   7.125  0.3060  0.6863  0.0705
  123OSM    H6T13032   2.457   4.943   7.179  1.0774 -0.2252  1.8718
  123OSM    C7S13033   2.655   4.964   7.272  0.0543  0.4033 -0.0973
  123OSM    H7S13034   2.628   5.071   7.287 -1.2210  0.1869 -0.6908
  123OSM    H7T13035   2.759   4.965   7.234 -0.0943  0.9894 -0.5045
  123OSM    C8S13036   2.649   4.874   7.396  0.2511  0.1720 -0.3100
  123OSM    H8S13037   2.743   4.872   7.456  0.9951 -2.2793 -1.4047
  123OSM    H8T13038   2.634   4.774   7.350 -1.1131 -1.8372  3.9554
  123OSM    C9S13039   2.524   4.902   7.487 -0.1574 -0.0380 -0.2255
  123OSM    H9S13040   2.435   4.898   7.420  0.3693 -2.7818 -0.9147
  123OSM    H9T13041   2.526   5.006   7.524 -1.9189  0.2748 -0.9170
  123OSM   C10S13042   2.518   4.808   7.607  0.0263  0.0796 -0.4477
  123OSM   H10S13043   2.551   4.703   7.593 -2.4641 -1.0821  1.5217
  123OSM   H10T13044   2.415   4.798   7.648  0.3381  0.3785  0.4363
  123OSM   C11S13045   2.592   4.856   7.730 -0.1135  0.7435  0.1656
  123OSM   H11S13046   2.554   4.954   7.765  0.3901  1.4939 -1.2891
  123OSM   H11T13047   2.698   4.874   7.700 -0.1188 -1.2831 -1.3456
  123OSM   C12S13048   2.596   4.761   7.856 -0.5091  0.2873  0.3193
  123OSM   H12S13049   2.658   4.674   7.824  0.5200  1.2287 -0.3390
  123OSM   H12T13050   2.488   4.743   7.874 -0.8969  0.9617 -1.1744
  123OSM   C13S13051   2.643   4.823   7.982  0.4045 -0.2541  0.1596
  123OSM   H13S13052   2.589   4.919   7.990  0.8387  0.1001 -0.8966
  123OSM   H13T13053   2.750   4.854   7.971  0.2241  1.3608  2.4343
  123OSM   C14S13054   2.619   4.732   8.112  0.1539  0.8801  0.0229
  123OSM   H14S13055   2.655   4.634   8.074  1.2818  0.7168  1.4266
  123OSM   H14T13056   2.508   4.727   8.125 -0.2355 -0.5459 -3.0782
  123OSM   C15S13057   2.700   4.772   8.236 -0.0214  0.3727 -0.6132
  123OSM   H15S13058   2.673   4.877   8.263  0.2396  0.3598 -0.3027
  123OSM   H15T13059   2.806   4.778   8.202  0.1865  2.6368  0.2182
  123OSM   C16S13060   2.683   4.663   8.345 -0.2071  0.2714  0.8941
  123OSM   H16S13061   2.690   4.562   8.298  2.4846 -1.6388  4.8775
  123OSM   H16T13062   2.579   4.669   8.384 -0.7663 -3.0895  0.2670
  123OSM   C17S13063   2.773   4.680   8.463  0.5767  0.4785 -0.4452
  123OSM   H17S13064   2.762   4.787   8.489 -0.0742  0.1058  0.9671
  123OSM   H17T13065   2.880   4.667   8.437  0.4973 -1.2223 -0.0686
  123OSM   C18S13066   2.773   4.588   8.581  0.1728  0.5091  0.2193
  123OSM   H18S13067   2.677   4.558   8.628  0.8516 -0.1930  1.1936
  123OSM   H18T13068   2.841   4.617   8.663 -1.1299  0.9126  1.1815
  123OSM   H18U13069   2.825   4.493   8.556 -0.1339 -0.1247  1.8902
  123OSM    C1F13070   2.670   5.509   7.113  0.9017  0.0036  0.0192
  123OSM     OF13071   2.547   5.536   7.107 -0.3524  0.3167  0.3800
  123OSM    C2F13072   2.764   5.587   7.205 -0.1204 -0.5995 -0.2457
  123OSM    H2F13073   2.842   5.627   7.137  0.1934  0.3327  0.6311
  123OSM    H2G13074   2.808   5.523   7.285  1.5671  2.0050  1.0744
  123OSM    C3F13075   2.699   5.706   7.283  0.4846  0.1519 -0.3303
  123OSM    H3F13076   2.625   5.668   7.356 -1.4029  0.5258 -1.9566
  123OSM    H3G13077   2.649   5.768   7.205 -0.4831  0.5487  0.5738
  123OSM    C4F13078   2.802   5.787   7.362  0.0585  0.2369  0.0505
  123OSM    H4F13079   2.740   5.870   7.401 -3.2101 -1.5222 -0.9921
  123OSM    H4G13080   2.874   5.824   7.285 -1.2892  0.3112 -1.2204
  123OSM    C5F13081   2.868   5.701   7.474  0.3840  0.0643 -0.0282
  123OSM    H5F13082   2.923   5.617   7.427 -1.9808 -1.3299 -0.4476
  123OSM    H5G13083   2.788   5.649   7.531 -0.8052  0.6795 -1.0742
  123OSM    C6F13084   2.956   5.785   7.572 -0.8636 -0.2504  0.2592
  123OSM    H6F13085   2.898   5.862   7.628  1.9180  1.0630  1.5885
  123OSM    H6G13086   3.036   5.844   7.522 -0.2967 -1.3523 -0.1651
  123OSM    C7F13087   3.012   5.677   7.666 -0.3254 -0.2727 -0.5394
  123OSM    H7F13088   3.088   5.619   7.609  1.2728  1.4485 -0.2777
  123OSM    H7G13089   2.933   5.603   7.687 -2.7520  1.3602 -3.1338
  123OSM    C8F13090   3.084   5.735   7.791  1.0475 -0.3269 -0.4380
  123OSM    H8F13091   3.168   5.793   7.747  0.4006 -1.1735 -2.9786
  123OSM    H8G13092   3.133   5.658   7.855  0.4831  1.3365  2.1412
  123OSM    C9F13093   2.999   5.821   7.869  0.0465 -0.5524 -0.2600
  123OSM    H9F13094   3.013   5.927   7.844 -1.0416 -0.2939  0.1919
  123OSM   C10F13095   2.916   5.786   7.959  0.6742  0.5808 -0.1974
  123OSM   H10F13096   2.857   5.859   8.016  0.4718  2.2030 -2.3635
  123OSM   C11F13097   2.894   5.638   8.000  0.1888  0.0630 -0.8807
  123OSM   H11F13098   2.948   5.581   7.921 -1.1347  1.1279 -2.6227
  123OSM   H11G13099   2.786   5.622   7.980 -0.1519 -1.2830  1.6053
  123OSM   C12F13100   2.940   5.600   8.142 -0.5160  0.4972  0.4357
  123OSM   H12F13101   2.885   5.507   8.168 -0.1882  0.2087  0.0882
  123OSM   H12G13102   2.897   5.673   8.214  1.2182 -0.1846  2.2629
  123OSM   C13F13103   3.093   5.574   8.152 -0.6341 -0.2540  0.5590
  123OSM   H13F13104   3.145   5.671   8.135 -1.6156  0.7590  2.8505
  123OSM   H13G13105   3.120   5.490   8.085  0.4084  1.0446 -0.7216
  123OSM   C14F13106   3.137   5.534   8.300  0.5820 -0.4905  0.4882
  123OSM   H14F13107   3.246   5.513   8.297  0.6075 -0.4291  0.8736
  123OSM   H14G13108   3.076   5.445   8.326 -0.9562  0.2139 -0.5847
  123OSM   C15F13109   3.104   5.639   8.409  0.2289 -0.0539 -0.1557
  123OSM   H15F13110   2.995   5.657   8.419  0.3055  0.6956 -0.5572
  123OSM   H15G13111   3.147   5.735   8.371 -2.1691  0.8567 -0.7151
  123OSM   C16F13112   3.177   5.605   8.544  0.0525 -0.2289  0.2033
  123OSM   H16F13113   3.287   5.598   8.532  0.3655 -1.6436  2.9817
  123OSM   H16G13114   3.149   5.500   8.566 -1.2961  0.2712  0.9659
  123OSM   C17F13115   3.150   5.708   8.662  0.2079 -0.3003  0.3658
  123OSM   H17F13116   3.185   5.668   8.760  2.9611  0.3547 -0.2656
  123OSM   H17G13117   3.040   5.720   8.671  0.2898  0.0996  0.8494
  123OSM   C18F13118   3.218   5.844   8.630 -0.7007 -0.4703  0.0565
  123OSM   H18F13119   3.328   5.829   8.631 -0.4950  0.4455 -2.0937
  123OSM   H18G13120   3.184   5.907   8.714  1.2383 -0.7463  1.1228
  123OSM   H18H13121   3.184   5.873   8.528 -1.0402 -0.8140  0.0698
  124OSM      N13122   2.353   1.434   5.836 -0.0864  0.5493 -0.5396
  124OSM    C1513123   2.418   1.303   5.816 -0.7545  0.4665 -0.2256
  124OSM   H15A13124   2.353   1.233   5.766 -0.9930 -1.5262  2.6000
  124OSM   H15B13125   2.442   1.265   5.915 -0.0046 -0.1170 -0.6195
  124OSM   H15C13126   2.511   1.299   5.760 -0.9674 -2.0143 -0.4944
  124OSM    C1413127   2.333   1.501   5.702  0.2272  0.2805  0.1569
  124OSM   H14A13128   2.273   1.591   5.709  0.1482  0.2505 -0.1294
  124OSM   H14B13129   2.289   1.436   5.629  0.1773  0.2101  0.2491
  124OSM   H14C13130   2.433   1.522   5.667  0.7084 -0.6919  0.8723
  124OSM    C1313131   2.216   1.419   5.889 -0.0996  0.1296 -0.1418
  124OSM   H13A13132   2.231   1.363   5.980  0.3278 -2.4115 -1.6770
  124OSM   H13B13133   2.146   1.359   5.833  0.9463 -1.8506  0.5886
  124OSM   H13C13134   2.168   1.512   5.916 -0.2630  0.0214 -0.0547
  124OSM    C1213135   2.441   1.525   5.920  0.4186 -0.7657 -0.2929
  124OSM   H12A13136   2.406   1.627   5.912 -1.7161 -1.1168  2.8023
  124OSM   H12B13137   2.541   1.521   5.879  1.1836 -0.3904  1.4719
  124OSM    C1113138   2.450   1.502   6.071 -0.1702 -0.4054  1.1267
  124OSM   H11A13139   2.357   1.470   6.122 -0.2960  1.2021  1.9925
  124OSM   H11B13140   2.487   1.591   6.127  0.0096  1.0948 -1.2265
  124OSM      P13141   2.707   1.428   6.075 -0.0544 -0.0459 -0.2970
  124OSM    O1313142   2.774   1.300   6.112  0.1705 -0.1033 -0.5513
  124OSM    O1413143   2.737   1.499   5.945 -0.0871 -0.3012 -0.1516
  124OSM    O1113144   2.744   1.524   6.202 -0.0467  0.4934 -0.6835
  124OSM    O1213145   2.550   1.403   6.091  0.6999 -0.2186  0.0588
  124OSM    C1S13146   2.697   1.484   6.331 -0.5281  0.3136 -0.3408
  124OSM    H1S13147   2.733   1.380   6.349  1.6924  1.2585  1.1411
  124OSM    H1T13148   2.588   1.492   6.345 -0.6931 -1.6768 -0.2363
  124OSM     NF13149   2.727   1.516   6.569 -0.3210 -0.1445  0.5861
  124OSM    HNF13150   2.656   1.561   6.623 -0.4344  0.2412  0.1301
  124OSM    C2S13151   2.765   1.574   6.436  0.6579 -0.3242 -0.3693
  124OSM    H2S13152   2.875   1.568   6.419  0.7356  1.6259 -0.7778
  124OSM    C3S13153   2.715   1.726   6.411  0.5040  0.5220  0.5873
  124OSM    H3S13154   2.605   1.726   6.427  0.2144 -2.5771 -0.7270
  124OSM     O313155   2.725   1.772   6.280  0.2503 -0.4783  0.4125
  124OSM    HO313156   2.734   1.695   6.224  0.2179  1.0010 -1.7302
  124OSM    C4S13157   2.781   1.810   6.521 -0.3221  0.2236  0.1018
  124OSM    H4S13158   2.724   1.793   6.613  0.5234  0.5688  0.7021
  124OSM    C5S13159   2.894   1.884   6.527 -0.1886  0.0730  0.3788
  124OSM    H5S13160   2.949   1.895   6.432 -2.4370 -1.9667 -1.2747
  124OSM    C6S13161   2.952   1.956   6.651  0.4181  0.3027  0.6407
  124OSM    H6S13162   2.879   1.976   6.733 -0.1876  2.1193 -0.2757
  124OSM    H6T13163   2.986   2.057   6.618  1.7722 -0.3141  0.0757
  124OSM    C7S13164   3.087   1.897   6.696  0.3928  0.6922 -0.4327
  124OSM    H7S13165   3.158   1.882   6.611 -0.0503 -0.3705 -0.6407
  124OSM    H7T13166   3.083   1.793   6.737  0.2799  1.2131  0.9165
  124OSM    C8S13167   3.150   1.975   6.809  0.9492 -0.2724  0.7518
  124OSM    H8S13168   3.081   1.973   6.895  2.5364  1.3135  2.1321
  124OSM    H8T13169   3.164   2.079   6.772 -0.2190 -0.5217 -0.5042
  124OSM    C9S13170   3.286   1.923   6.865 -0.0481 -0.1982  0.9282
  124OSM    H9S13171   3.364   1.937   6.787 -1.2472 -0.2594 -0.3245
  124OSM    H9T13172   3.268   1.813   6.869  1.1619 -0.5434 -1.3333
  124OSM   C10S13173   3.314   1.987   7.000  0.2149  0.4145  0.4304
  124OSM   H10S13174   3.225   1.958   7.061 -2.9495  2.2440 -2.9150
  124OSM   H10T13175   3.305   2.097   6.990 -3.2132  0.1971 -0.3574
  124OSM   C11S13176   3.436   1.944   7.074 -0.3572 -0.3790  0.3339
  124OSM   H11S13177   3.514   2.015   7.037 -0.9494  1.0006  1.6337
  124OSM   H11T13178   3.460   1.837   7.061 -1.6710 -0.7310  0.6285
  124OSM   C12S13179   3.427   1.975   7.227 -0.0496  0.8367 -0.0010
  124OSM   H12S13180   3.336   1.925   7.269  1.1350 -0.5920  1.0078
  124OSM   H12T13181   3.404   2.083   7.240  1.2806  1.4388 -2.2966
  124OSM   C13S13182   3.543   1.925   7.311  0.5039  0.0872  0.2230
  124OSM   H13S13183   3.635   1.985   7.291 -0.2221  0.6498 -1.7462
  124OSM   H13T13184   3.561   1.817   7.289  0.3928  0.2972 -0.9859
  124OSM   C14S13185   3.518   1.943   7.469  0.3907 -0.8854  0.6186
  124OSM   H14S13186   3.423   1.897   7.503 -0.8270  0.9602 -0.1476
  124OSM   H14T13187   3.497   2.052   7.476  0.1855 -0.9471  0.9715
  124OSM   C15S13188   3.642   1.907   7.551  0.1544 -0.6307  0.1393
  124OSM   H15S13189   3.717   1.987   7.537  0.1637  0.3122  4.3057
  124OSM   H15T13190   3.679   1.803   7.535 -0.3572 -0.6790 -0.7901
  124OSM   C16S13191   3.606   1.901   7.698  0.5688 -0.3098 -0.0900
  124OSM   H16S13192   3.534   1.817   7.709 -0.6291  0.6207 -0.6857
  124OSM   H16T13193   3.540   1.990   7.711 -0.4716 -0.7969 -1.7991
  124OSM   C17S13194   3.719   1.894   7.809  0.0871 -0.6383  0.2993
  124OSM   H17S13195   3.667   1.881   7.907  0.2836  1.1663  0.6736
  124OSM   H17T13196   3.772   1.991   7.814 -0.6772 -0.0830 -1.5364
  124OSM   C18S13197   3.833   1.792   7.791  0.0215 -0.1531  0.1227
  124OSM   H18S13198   3.889   1.786   7.887 -0.6818  0.9801  0.6293
  124OSM   H18T13199   3.898   1.835   7.712  1.1852 -1.6672  0.2172
  124OSM   H18U13200   3.796   1.698   7.746  0.6136 -0.5642  0.4752
  124OSM    C1F13201   2.791   1.411   6.617  0.0685 -0.2276 -0.4727
  124OSM     OF13202   2.901   1.382   6.576 -0.4265 -0.4056  0.0360
  124OSM    C2F13203   2.717   1.328   6.718  0.2628 -1.2241  0.3011
  124OSM    H2F13204   2.735   1.221   6.694 -0.0530 -1.8125  2.4958
  124OSM    H2G13205   2.608   1.351   6.711  0.8653  1.6912 -1.4944
  124OSM    C3F13206   2.755   1.368   6.854  0.2409 -0.0597 -0.2081
  124OSM    H3F13207   2.735   1.474   6.880  0.6142  0.1305 -0.6624
  124OSM    H3G13208   2.864   1.350   6.867  0.6845  0.5187 -2.5639
  124OSM    C4F13209   2.670   1.296   6.956 -0.0758  0.2730 -0.1293
  124OSM    H4F13210   2.670   1.185   6.942  1.4186  0.2325  0.0430
  124OSM    H4G13211   2.562   1.325   6.954 -0.7934 -1.5884  3.1302
  124OSM    C5F13212   2.721   1.330   7.099  0.4026 -0.1876 -0.3714
  124OSM    H5F13213   2.710   1.440   7.113 -0.3906 -0.0504 -1.8337
  124OSM    H5G13214   2.828   1.303   7.113  0.9214  1.2318 -1.2991
  124OSM    C6F13215   2.641   1.262   7.211  0.2747  0.0016 -0.0191
  124OSM    H6F13216   2.667   1.154   7.213 -0.9595 -0.3298 -0.7766
  124OSM    H6G13217   2.534   1.278   7.185  0.5395  1.0562 -0.5054
  124OSM    C7F13218   2.675   1.326   7.348  0.5901 -0.4688 -0.0623
  124OSM    H7F13219   2.642   1.431   7.360  1.1751 -0.4468  1.5441
  124OSM    H7G13220   2.784   1.325   7.370  0.9626  2.0914 -1.4197
  124OSM    C8F13221   2.598   1.252   7.465 -0.3117 -0.2209  0.1886
  124OSM    H8F13222   2.626   1.144   7.467  0.0620 -0.1496 -0.7026
  124OSM    H8G13223   2.494   1.251   7.428 -0.3418  0.5035  0.2456
  124OSM    C9F13224   2.611   1.311   7.602 -0.5638  0.0732  0.0315
  124OSM    H9F13225   2.694   1.276   7.665 -0.5608  0.1365  0.0624
  124OSM   C10F13226   2.530   1.403   7.661 -0.5631  0.0084  0.2219
  124OSM   H10F13227   2.547   1.424   7.768  0.4259 -2.7034  0.6818
  124OSM   C11F13228   2.407   1.464   7.587  0.0433  0.2378  0.2872
  124OSM   H11F13229   2.344   1.385   7.543  0.5109  0.7570 -1.3702
  124OSM   H11G13230   2.442   1.522   7.499  1.4124  0.6118  1.0385
  124OSM   C12F13231   2.326   1.560   7.674  0.3191  0.3417  0.2929
  124OSM   H12F13232   2.234   1.571   7.612  2.0175 -1.1305 -2.7418
  124OSM   H12G13233   2.384   1.653   7.663 -1.3505  1.4357  0.3321
  124OSM   C13F13234   2.296   1.515   7.813  0.3420  0.0768  0.0777
  124OSM   H13F13235   2.375   1.523   7.890 -0.4963  0.4241  0.9332
  124OSM   H13G13236   2.262   1.409   7.818 -0.8400  0.3488 -1.2632
  124OSM   C14F13237   2.181   1.602   7.863  0.4926  1.1912  0.0996
  124OSM   H14F13238   2.102   1.603   7.784  0.9757  3.1959 -0.3988
  124OSM   H14G13239   2.214   1.707   7.871 -0.1087  1.6693 -2.5289
  124OSM   C15F13240   2.124   1.557   7.999  0.2862  0.0935 -0.3075
  124OSM   H15F13241   2.215   1.528   8.056  0.4017  1.5295  0.2789
  124OSM   H15G13242   2.064   1.466   7.981 -0.5408  0.8018 -1.2361
  124OSM   C16F13243   2.045   1.674   8.074 -0.4015 -0.2081  0.2344
  124OSM   H16F13244   2.132   1.742   8.090  0.5659 -1.5837  1.0782
  124OSM   H16G13245   2.017   1.629   8.172  0.8626 -0.9851  0.2660
  124OSM   C17F13246   1.923   1.735   8.002  0.1246 -0.3106 -0.5895
  124OSM   H17F13247   1.941   1.780   7.902  0.5720 -0.8741 -0.7681
  124OSM   H17G13248   1.897   1.822   8.067  0.9300 -0.7504  0.3552
  124OSM   C18F13249   1.805   1.643   7.995 -0.7838  0.1093 -0.3076
  124OSM   H18F13250   1.802   1.564   8.073  3.9392 -1.1920 -1.1365
  124OSM   H18G13251   1.816   1.580   7.904 -0.3838  0.0809 -0.2415
  124OSM   H18H13252   1.704   1.690   7.999 -0.8886 -0.1995  1.7265
  125OSM      N13253   5.756   5.747   5.739 -0.3557 -0.2563 -0.2482
  125OSM    C1513254   5.693   5.811   5.857  0.4529  0.0513 -0.2191
  125OSM   H15A13255   5.631   5.890   5.817 -0.1400  0.2581  1.0512
  125OSM   H15B13256   5.756   5.851   5.936 -2.6629  2.2806  1.3499
  125OSM   H15C13257   5.635   5.735   5.906  1.5294  0.0954  1.1847
  125OSM    C1413258   5.647   5.680   5.662  1.0083  0.1630 -0.4416
  125OSM   H14A13259   5.563   5.744   5.639  0.7719  0.8798  2.1086
  125OSM   H14B13260   5.609   5.605   5.730  0.3619  1.0582  0.2019
  125OSM   H14C13261   5.675   5.637   5.566  0.9216  1.3997 -1.0384
  125OSM    C1313262   5.826   5.854   5.656 -0.5617 -0.0087  0.3884
  125OSM   H13A13263   5.905   5.903   5.711 -0.1410 -0.6275  0.3414
  125OSM   H13B13264   5.754   5.926   5.621 -0.2341 -0.9427 -2.4377
  125OSM   H13C13265   5.853   5.817   5.558 -0.5153  0.0111  0.3932
  125OSM    C1213266   5.848   5.635   5.779 -0.9720  0.2819 -0.1177
  125OSM   H12A13267   5.922   5.684   5.841 -1.4663  0.1048  0.6293
  125OSM   H12B13268   5.889   5.603   5.684  0.6793 -0.5603  0.8449
  125OSM    C1113269   5.810   5.518   5.868 -0.4996  0.1276 -0.3515
  125OSM   H11A13270   5.893   5.444   5.870  0.6969  1.2926 -2.7922
  125OSM   H11B13271   5.725   5.469   5.815 -0.0124 -3.1078  1.5843
  125OSM      P13272   5.880   5.615   6.108  0.3697  0.0897  0.0399
  125OSM    O1313273   5.938   5.740   6.064 -0.2832 -0.7122  0.3023
  125OSM    O1413274   5.821   5.621   6.244  0.5237 -0.1093  0.3779
  125OSM    O1113275   5.997   5.511   6.112 -0.3752 -0.4491 -0.2335
  125OSM    O1213276   5.772   5.559   5.998 -0.3654  0.0088  0.2142
  125OSM    C1S13277   6.112   5.533   6.197  0.2980  0.4748 -0.9761
  125OSM    H1S13278   6.138   5.641   6.205 -3.3322  1.3726  0.8630
  125OSM    H1T13279   6.201   5.479   6.158  0.1262  2.0288 -3.8096
  125OSM     NF13280   6.209   5.487   6.406  0.2606  0.0389  0.1976
  125OSM    HNF13281   6.278   5.416   6.397 -1.0134 -1.5602  2.3369
  125OSM    C2S13282   6.086   5.467   6.334 -0.4840  0.3048 -0.3068
  125OSM    H2S13283   5.996   5.516   6.377  0.3132  0.3686  1.3330
  125OSM    C3S13284   6.063   5.322   6.309  0.3604  0.0172  0.5880
  125OSM    H3S13285   6.154   5.280   6.262 -1.5577 -1.7666 -1.7489
  125OSM     O313286   5.976   5.274   6.203 -0.3470 -0.0188  0.3003
  125OSM    HO313287   5.944   5.354   6.161  2.9177  0.6857 -1.1429
  125OSM    C4S13288   6.031   5.261   6.435  0.0047  0.4562 -0.3136
  125OSM    H4S13289   5.973   5.332   6.496 -2.0702 -0.1037 -1.5065
  125OSM    C5S13290   6.064   5.136   6.478 -0.1590 -0.2484  0.5028
  125OSM    H5S13291   6.130   5.075   6.414  0.6871  0.4716  0.6702
  125OSM    C6S13292   6.030   5.085   6.613  0.1793 -0.2147 -0.5663
  125OSM    H6S13293   6.032   4.974   6.626  0.6508 -0.1841 -0.3217
  125OSM    H6T13294   5.921   5.101   6.626 -0.0535 -1.9736 -0.0696
  125OSM    C7S13295   6.112   5.140   6.728 -0.0772  0.3460 -0.2233
  125OSM    H7S13296   6.141   5.244   6.700 -0.3707  0.2718 -0.8117
  125OSM    H7T13297   6.213   5.093   6.730 -0.6228 -0.8563 -0.4489
  125OSM    C8S13298   6.052   5.134   6.871  0.4977  1.2833 -0.4187
  125OSM    H8S13299   6.038   5.024   6.873 -2.0299  1.4445 -2.6018
  125OSM    H8T13300   5.956   5.191   6.871 -0.7922 -0.7758  0.2398
  125OSM    C9S13301   6.144   5.185   6.986 -0.2864 -0.2747 -0.4084
  125OSM    H9S13302   6.129   5.295   6.993 -1.6580 -0.3810 -1.2938
  125OSM    H9T13303   6.245   5.159   6.948 -0.8582 -1.1514 -1.3780
  125OSM   C10S13304   6.116   5.115   7.123 -0.1029  0.6092  0.2826
  125OSM   H10S13305   6.143   5.008   7.118 -2.9978 -0.1468 -2.6063
  125OSM   H10T13306   6.009   5.117   7.150 -0.1996  1.1795 -0.1223
  125OSM   C11S13307   6.184   5.189   7.239 -0.2417 -0.7539 -0.6182
  125OSM   H11S13308   6.156   5.296   7.229  1.8264 -0.1440 -0.4747
  125OSM   H11T13309   6.295   5.191   7.232  0.0705  1.5903  2.5969
  125OSM   C12S13310   6.146   5.134   7.371  0.4818 -0.3566 -0.1757
  125OSM   H12S13311   6.160   5.024   7.375  2.2609 -0.2109 -1.4917
  125OSM   H12T13312   6.042   5.167   7.393  0.8522  0.5377  0.2671
  125OSM   C13S13313   6.233   5.187   7.484  0.2703 -0.5631  0.0052
  125OSM   H13S13314   6.227   5.297   7.470  2.6997 -0.6677 -2.8668
  125OSM   H13T13315   6.337   5.152   7.467  0.3785  0.3986 -1.4846
  125OSM   C14S13316   6.189   5.150   7.628  0.0120  0.8763 -0.5533
  125OSM   H14S13317   6.178   5.039   7.638 -0.7208  0.7498 -2.2609
  125OSM   H14T13318   6.087   5.193   7.630 -0.2437  0.2607  0.5977
  125OSM   C15S13319   6.281   5.218   7.727  0.5436  0.4530 -0.4665
  125OSM   H15S13320   6.298   5.320   7.685  1.5391  0.4227 -0.1788
  125OSM   H15T13321   6.379   5.166   7.736  0.5282  0.4234 -0.4696
  125OSM   C16S13322   6.237   5.225   7.873  0.4004  0.0024  0.5686
  125OSM   H16S13323   6.139   5.276   7.887 -0.8027 -1.5622 -1.5510
  125OSM   H16T13324   6.312   5.284   7.930  0.6545  1.1621 -0.8938
  125OSM   C17S13325   6.218   5.094   7.941 -0.3270 -0.3307 -1.0132
  125OSM   H17S13326   6.285   5.014   7.904 -1.7037 -1.4458 -1.1606
  125OSM   H17T13327   6.116   5.054   7.922  0.4930 -2.0772 -1.9901
  125OSM   C18S13328   6.243   5.125   8.091  0.5340  0.2827 -0.3682
  125OSM   H18S13329   6.349   5.144   8.119  0.7788 -0.7043 -0.5664
  125OSM   H18T13330   6.206   5.041   8.153  2.3958  0.5110  1.1420
  125OSM   H18U13331   6.185   5.212   8.129 -1.4884 -1.4024  0.5945
  125OSM    C1F13332   6.246   5.608   6.457  1.1032 -0.2170 -0.1367
  125OSM     OF13333   6.180   5.709   6.428  0.1238  0.2915 -0.4146
  125OSM    C2F13334   6.376   5.620   6.526 -0.6805  0.6209 -0.2685
  125OSM    H2F13335   6.414   5.717   6.486  2.0752  0.2271  1.0990
  125OSM    H2G13336   6.448   5.537   6.509  1.1140  2.3287 -1.4361
  125OSM    C3F13337   6.353   5.646   6.678  0.7495 -0.4506 -0.4705
  125OSM    H3F13338   6.282   5.729   6.697  1.3165  0.3421 -1.6325
  125OSM    H3G13339   6.448   5.673   6.729 -0.7752  0.5897  1.9592
  125OSM    C4F13340   6.294   5.524   6.749 -0.5593  0.9153  0.3077
  125OSM    H4F13341   6.356   5.432   6.736 -1.5308  0.0415  1.5344
  125OSM    H4G13342   6.190   5.503   6.717 -0.0364 -1.1866 -0.1959
  125OSM    C5F13343   6.283   5.538   6.898 -0.3218 -0.0815  0.2987
  125OSM    H5F13344   6.203   5.470   6.933  1.6720 -2.9035 -0.2168
  125OSM    H5G13345   6.254   5.639   6.934 -2.1608 -0.4985  0.0844
  125OSM    C6F13346   6.404   5.489   6.974  0.1017 -0.2796  0.6118
  125OSM    H6F13347   6.478   5.572   6.967  0.5609 -0.5370  1.9741
  125OSM    H6G13348   6.447   5.394   6.936 -2.6387 -0.8832 -1.2801
  125OSM    C7F13349   6.388   5.465   7.126 -0.5524 -0.1039  0.3582
  125OSM    H7F13350   6.314   5.384   7.141 -2.7808  1.1095 -2.8177
  125OSM    H7G13351   6.341   5.552   7.177  1.0057  1.8151 -1.2633
  125OSM    C8F13352   6.511   5.421   7.193 -0.1569  0.2556 -0.2092
  125OSM    H8F13353   6.561   5.356   7.119  0.6658 -0.6525  1.0870
  125OSM    H8G13354   6.488   5.358   7.282 -0.3178  0.7564  0.1057
  125OSM    C9F13355   6.601   5.540   7.215  0.0528  0.0136 -0.8563
  125OSM    H9F13356   6.620   5.599   7.125  0.4455 -2.6069 -2.6155
  125OSM   C10F13357   6.663   5.581   7.330 -0.2180  0.1705  0.0580
  125OSM   H10F13358   6.741   5.659   7.323  1.1364 -0.9540  1.7326
  125OSM   C11F13359   6.644   5.524   7.472  0.1827 -0.6108 -0.3385
  125OSM   H11F13360   6.559   5.453   7.463  1.1112 -1.7661 -0.2957
  125OSM   H11G13361   6.606   5.597   7.546 -0.2969 -1.1539 -0.0388
  125OSM   C12F13362   6.759   5.436   7.539  0.0055 -0.1087 -0.1231
  125OSM   H12F13363   6.854   5.493   7.547 -0.3083  0.3676  0.2302
  125OSM   H12G13364   6.769   5.352   7.466  1.1756  1.3770 -1.7509
  125OSM   C13F13365   6.729   5.375   7.679 -0.0271  0.2993  0.1280
  125OSM   H13F13366   6.821   5.319   7.705 -1.2481 -1.0196  1.8652
  125OSM   H13G13367   6.647   5.300   7.679  0.4232 -0.4401 -3.9878
  125OSM   C14F13368   6.696   5.485   7.784 -0.2053  0.1731  0.5124
  125OSM   H14F13369   6.602   5.535   7.753 -0.8199  0.0474  2.1014
  125OSM   H14G13370   6.773   5.565   7.775 -0.0191  0.4245  3.4547
  125OSM   C15F13371   6.661   5.419   7.904 -0.0055 -0.0339  0.5665
  125OSM   H15F13372   6.582   5.345   7.883 -0.9243  0.8163  0.9092
  125OSM   H15G13373   6.617   5.486   7.982 -1.4083 -0.6598  0.3378
  125OSM   C16F13374   6.782   5.365   7.977  0.0829 -0.0686 -0.4582
  125OSM   H16F13375   6.878   5.410   7.947 -0.0573 -0.5614 -1.7355
  125OSM   H16G13376   6.805   5.261   7.946  1.7479  0.6233 -1.6683
  125OSM   C17F13377   6.764   5.372   8.129 -0.4636 -0.8023 -0.4140
  125OSM   H17F13378   6.689   5.292   8.144 -1.0738 -0.5673 -2.0291
  125OSM   H17G13379   6.716   5.462   8.173  0.9404 -0.1033 -0.2438
  125OSM   C18F13380   6.887   5.345   8.207 -0.1137  0.1073 -0.7894
  125OSM   H18F13381   6.879   5.306   8.310  0.8173  0.5063 -0.5553
  125OSM   H18G13382   6.952   5.433   8.224  1.1083 -0.5291 -1.9822
  125OSM   H18H13383   6.945   5.270   8.148 -0.4415 -0.5741 -0.2588
  126OSM      N13384   1.941   4.691   6.438 -0.0771  0.6870  0.4776
  126OSM    C1513385   1.850   4.607   6.521 -0.9280 -0.8063 -0.1060
  126OSM   H15A13386   1.912   4.529   6.562  1.1409  0.0809 -1.4252
  126OSM   H15B13387   1.782   4.549   6.460 -0.0587 -1.6610 -0.2861
  126OSM   H15C13388   1.798   4.668   6.594  0.8971  1.1803 -0.3663
  126OSM    C1413389   2.024   4.599   6.353 -0.5827  0.1957 -0.3176
  126OSM   H14A13390   1.965   4.530   6.294  1.7452 -0.5507 -1.9048
  126OSM   H14B13391   2.086   4.537   6.416 -0.2363 -1.3425 -2.0642
  126OSM   H14C13392   2.085   4.656   6.285 -0.7723 -1.3578 -1.8753
  126OSM    C1313393   1.862   4.778   6.351  0.1813 -0.3848  0.8455
  126OSM   H13A13394   1.914   4.845   6.284  0.2163 -0.0691  1.1818
  126OSM   H13B13395   1.804   4.853   6.403  0.7149  2.2498 -2.0335
  126OSM   H13C13396   1.794   4.722   6.290  0.1240 -0.0854  0.6331
  126OSM    C1213397   2.036   4.769   6.523 -0.0050 -0.0257 -0.1083
  126OSM   H12A13398   2.084   4.711   6.600 -0.1470 -0.9621 -0.7200
  126OSM   H12B13399   1.978   4.846   6.574  1.0444 -0.4224  1.7918
  126OSM    C1113400   2.147   4.851   6.451  0.6414 -0.4733  0.5317
  126OSM   H11A13401   2.179   4.792   6.362 -2.3262 -0.1604 -0.8609
  126OSM   H11B13402   2.227   4.869   6.525  0.0769  0.3040  0.9623
  126OSM      P13403   2.052   5.085   6.506  0.0271 -0.2593  0.2364
  126OSM    O1313404   2.011   5.205   6.427  0.2254  0.1972 -0.2242
  126OSM    O1413405   1.955   5.029   6.603  0.2423 -0.5488 -0.0333
  126OSM    O1113406   2.197   5.126   6.568  0.3216 -0.3226  0.1818
  126OSM    O1213407   2.090   4.971   6.399 -0.6716 -0.4928 -0.3047
  126OSM    C1S13408   2.195   5.244   6.660  0.5725  0.2575 -0.0012
  126OSM    H1S13409   2.136   5.329   6.621 -1.8443 -2.0155 -1.6560
  126OSM    H1T13410   2.302   5.269   6.678  0.5711 -0.1302  0.5777
  126OSM     NF13411   2.113   5.321   6.889 -0.1526 -0.0679 -0.2938
  126OSM    HNF13412   2.160   5.333   6.976 -1.0424 -0.1834  0.2116
  126OSM    C2S13413   2.135   5.207   6.800 -0.2181  0.1028 -0.1507
  126OSM    H2S13414   2.032   5.166   6.791 -0.4268 -0.5620  3.4730
  126OSM    C3S13415   2.232   5.100   6.865 -0.2220  0.1267 -0.2491
  126OSM    H3S13416   2.328   5.148   6.893 -0.6126 -1.1093  3.9208
  126OSM     O313417   2.268   4.983   6.793  0.4952 -0.1196 -0.1887
  126OSM    HO313418   2.248   5.017   6.706 -1.7584  0.9455  0.6681
  126OSM    C4S13419   2.167   5.056   6.993 -1.0100 -0.2903  0.0763
  126OSM    H4S13420   2.074   4.997   6.988  0.2866 -2.5000  0.8074
  126OSM    C5S13421   2.221   5.060   7.117  0.3270  0.3481  0.5458
  126OSM    H5S13422   2.321   5.098   7.143  0.2588 -0.4911  2.1477
  126OSM    C6S13423   2.152   5.005   7.242 -0.6087  0.1242  0.0123
  126OSM    H6S13424   2.041   5.013   7.238 -0.7606 -0.8114  1.5752
  126OSM    H6T13425   2.172   5.064   7.334 -1.0915  0.9486 -0.4020
  126OSM    C7S13426   2.197   4.864   7.266  0.6411 -0.8072 -0.3212
  126OSM    H7S13427   2.308   4.857   7.270  0.7343  0.7341  2.4735
  126OSM    H7T13428   2.155   4.802   7.184 -3.5597  2.7364 -1.2009
  126OSM    C8S13429   2.144   4.810   7.397 -0.5383  0.4260  0.0939
  126OSM    H8S13430   2.037   4.834   7.414 -1.7363 -3.4653 -0.8800
  126OSM    H8T13431   2.194   4.858   7.485  0.5746 -2.1673  0.9781
  126OSM    C9S13432   2.165   4.659   7.401  0.5629 -0.1693  0.4384
  126OSM    H9S13433   2.261   4.625   7.358 -0.5387 -0.9676 -1.4988
  126OSM    H9T13434   2.080   4.611   7.348  0.8720  0.1749 -0.3665
  126OSM   C10S13435   2.161   4.619   7.552 -0.0089  0.2323  0.4683
  126OSM   H10S13436   2.054   4.637   7.577 -0.5277  1.8418 -2.3860
  126OSM   H10T13437   2.218   4.699   7.603 -1.8371  2.5222 -0.8767
  126OSM   C11S13438   2.205   4.473   7.570  0.2801  0.2913 -0.3732
  126OSM   H11S13439   2.301   4.458   7.516  0.3153 -0.2345 -0.1631
  126OSM   H11T13440   2.120   4.418   7.525 -0.9860  1.4727  0.4676
  126OSM   C12S13441   2.222   4.454   7.726 -0.4318  0.6042  0.5113
  126OSM   H12S13442   2.143   4.499   7.789 -0.7403 -4.3128  4.2991
  126OSM   H12T13443   2.319   4.507   7.738 -0.7980  1.6807 -0.9526
  126OSM   C13S13444   2.231   4.305   7.772 -0.6908 -0.3510 -0.3031
  126OSM   H13S13445   2.324   4.262   7.729 -0.5948 -1.2666  0.7539
  126OSM   H13T13446   2.155   4.249   7.714  1.0059 -1.6582 -1.3556
  126OSM   C14S13447   2.238   4.273   7.920  0.0856  0.0692  0.2857
  126OSM   H14S13448   2.253   4.164   7.934 -2.3414 -0.2398  0.9288
  126OSM   H14T13449   2.146   4.290   7.979  0.2768 -2.6125  1.5107
  126OSM   C15S13450   2.345   4.350   8.002 -0.1114 -0.2068  0.4752
  126OSM   H15S13451   2.351   4.450   7.954 -0.8919  0.5870  1.9588
  126OSM   H15T13452   2.445   4.302   8.002 -0.3783 -0.7788 -0.5493
  126OSM   C16S13453   2.289   4.388   8.144 -0.2974 -0.2407  0.3855
  126OSM   H16S13454   2.253   4.290   8.183 -1.1262 -0.8466 -1.7220
  126OSM   H16T13455   2.210   4.466   8.147  2.1043  2.3062  0.6120
  126OSM   C17S13456   2.388   4.438   8.248 -0.2054 -0.0897 -1.5920
  126OSM   H17S13457   2.454   4.521   8.215  0.3331 -0.3996 -1.3156
  126OSM   H17T13458   2.450   4.352   8.281 -0.8667 -0.0397 -0.1487
  126OSM   C18S13459   2.306   4.494   8.373  0.5365  0.1392 -0.0545
  126OSM   H18S13460   2.379   4.516   8.453  0.5911 -0.0378 -0.0554
  126OSM   H18T13461   2.238   4.419   8.419 -0.8061  2.0310  1.1968
  126OSM   H18U13462   2.249   4.585   8.346  1.6933  1.4273  1.6230
  126OSM    C1F13463   2.032   5.422   6.863 -0.3813  0.2360 -0.0721
  126OSM     OF13464   1.939   5.412   6.784 -0.0875 -0.2413 -0.0152
  126OSM    C2F13465   2.047   5.550   6.937 -0.4065 -0.5284  0.6165
  126OSM    H2F13466   2.080   5.618   6.856 -0.6566 -2.4794 -1.2276
  126OSM    H2G13467   2.123   5.536   7.016  0.7368  0.3748 -0.2813
  126OSM    C3F13468   1.923   5.624   6.991  0.5250  0.1752 -0.2252
  126OSM    H3F13469   1.859   5.651   6.904  0.0284 -1.3988 -0.3873
  126OSM    H3G13470   1.954   5.718   7.041  2.2975  0.7146 -2.2042
  126OSM    C4F13471   1.845   5.544   7.094 -0.1066 -0.1051 -0.1540
  126OSM    H4F13472   1.815   5.444   7.057 -0.7636 -0.6711  1.7880
  126OSM    H4G13473   1.752   5.601   7.117  0.5318  1.3484 -1.0354
  126OSM    C5F13474   1.942   5.526   7.213 -0.2054  0.1664 -0.6664
  126OSM    H5F13475   1.961   5.628   7.254  0.8751 -0.8093  1.4114
  126OSM    H5G13476   2.039   5.475   7.195  0.9137  1.0939  2.1961
  126OSM    C6F13477   1.874   5.422   7.308  0.2574 -0.7297 -0.5585
  126OSM    H6F13478   1.876   5.321   7.263 -1.9123 -1.5170  0.9399
  126OSM    H6G13479   1.770   5.459   7.323  0.3652 -0.3299 -0.7768
  126OSM    C7F13480   1.931   5.402   7.449 -0.1962 -0.1465  0.2478
  126OSM    H7F13481   1.948   5.502   7.494 -0.8474  0.9018 -1.7265
  126OSM    H7G13482   2.034   5.364   7.434 -0.0120  0.4120  0.0822
  126OSM    C8F13483   1.831   5.330   7.538 -0.0274 -0.4691 -0.1668
  126OSM    H8F13484   1.811   5.227   7.500 -2.2153 -0.2323  0.1847
  126OSM    H8G13485   1.732   5.381   7.534  0.3743  0.3609  0.3440
  126OSM    C9F13486   1.880   5.313   7.678 -0.0464 -0.0314  0.3033
  126OSM    H9F13487   1.839   5.383   7.752 -0.0646  0.5818 -0.2747
  126OSM   C10F13488   1.948   5.216   7.726  0.7853 -0.0702  0.0872
  126OSM   H10F13489   1.972   5.215   7.833  1.4665  2.1595  0.0056
  126OSM   C11F13490   2.013   5.104   7.643 -0.0992 -0.0165  0.6345
  126OSM   H11F13491   2.111   5.130   7.597 -1.3701  1.7064 -1.2925
  126OSM   H11G13492   1.953   5.074   7.554  1.7493 -2.0852  0.0015
  126OSM   C12F13493   2.020   4.977   7.729 -0.0116 -0.5360  0.1840
  126OSM   H12F13494   2.019   4.881   7.674  0.6260 -1.7400  2.1647
  126OSM   H12G13495   1.934   4.969   7.798  1.0512 -2.1939  1.3868
  126OSM   C13F13496   2.152   4.980   7.817 -0.1006 -0.5075  0.7161
  126OSM   H13F13497   2.220   5.058   7.775  0.7988 -2.0553 -0.8486
  126OSM   H13G13498   2.203   4.882   7.807  2.0186  0.3241  2.6295
  126OSM   C14F13499   2.119   4.983   7.969  0.4321  0.5207  0.0180
  126OSM   H14F13500   2.028   4.925   7.996 -0.8789  3.1489  1.6497
  126OSM   H14G13501   2.083   5.086   7.989 -1.6088 -0.0221 -0.6779
  126OSM   C15F13502   2.238   4.956   8.060  0.3390  0.9607 -0.2585
  126OSM   H15F13503   2.323   5.025   8.039  0.1169  1.5918  0.8618
  126OSM   H15G13504   2.275   4.852   8.049 -0.7696  0.3192  1.5901
  126OSM   C16F13505   2.194   4.981   8.211 -0.4961  0.2180  0.1026
  126OSM   H16F13506   2.137   5.076   8.212  0.6600  0.9504  2.3620
  126OSM   H16G13507   2.286   4.997   8.271 -1.0050  0.1987  0.8877
  126OSM   C17F13508   2.131   4.863   8.293 -0.0883  0.2523 -0.1068
  126OSM   H17F13509   2.171   4.860   8.397  2.7567 -1.3314 -1.1428
  126OSM   H17G13510   2.173   4.768   8.254  0.9345  0.0666  1.3463
  126OSM   C18F13511   1.980   4.882   8.302 -0.4790 -0.0936  0.3274
  126OSM   H18F13512   1.937   4.794   8.354  0.9081 -0.0767  1.5709
  126OSM   H18G13513   1.933   4.893   8.202  0.9406  1.1224 -0.2394
  126OSM   H18H13514   1.957   4.966   8.371 -1.7351 -0.4724  0.3770
  127OSM      N13515   1.167   5.974   6.041 -0.2549  0.0254 -0.0351
  127OSM    C1513516   1.022   5.934   6.055 -0.5650  0.0983 -0.3045
  127OSM   H15A13517   0.978   5.977   6.144  1.0152 -0.4214  0.7671
  127OSM   H15B13518   1.014   5.826   6.058  0.5541  0.0238  0.2733
  127OSM   H15C13519   0.974   5.966   5.963  0.3131  1.0901 -0.4300
  127OSM    C1413520   1.223   5.903   5.922  0.4617 -0.3278 -0.2273
  127OSM   H14A13521   1.156   5.920   5.839 -1.4536 -0.7657  1.1501
  127OSM   H14B13522   1.238   5.797   5.935  0.5814 -0.4357 -1.1698
  127OSM   H14C13523   1.320   5.936   5.887  1.5443 -1.3274  1.6690
  127OSM    C1313524   1.170   6.120   6.008 -0.3727 -0.6535  0.1529
  127OSM   H13A13525   1.114   6.180   6.079  0.5955 -1.8656  2.0103
  127OSM   H13B13526   1.117   6.124   5.914 -2.2028 -0.7171  1.1301
  127OSM   H13C13527   1.270   6.159   5.997 -0.1313 -1.0900  0.7555
  127OSM    C1213528   1.245   5.941   6.162 -0.4540  1.3308 -0.5148
  127OSM   H12A13529   1.204   5.984   6.252 -2.5481 -0.2211 -0.6492
  127OSM   H12B13530   1.344   5.982   6.152 -0.6985  2.1387  0.2508
  127OSM    C1113531   1.271   5.786   6.193 -0.1452  0.4163  0.0695
  127OSM   H11A13532   1.331   5.770   6.284  0.1065  1.4575  0.0858
  127OSM   H11B13533   1.332   5.735   6.115 -0.4780 -0.2295  0.2172
  127OSM      P13534   1.132   5.560   6.197 -0.1745 -0.2445  0.3832
  127OSM    O1313535   0.995   5.533   6.137 -0.1830  0.4660  0.4096
  127OSM    O1413536   1.255   5.520   6.127 -0.1478  0.6962 -0.2748
  127OSM    O1113537   1.147   5.492   6.340  0.3610 -0.2993  0.5059
  127OSM    O1213538   1.145   5.717   6.222  0.6157 -0.7072 -0.2232
  127OSM    C1S13539   1.070   5.536   6.450  0.2344  0.0685 -0.0652
  127OSM    H1S13540   0.965   5.503   6.435  0.3188 -0.2082 -0.0425
  127OSM    H1T13541   1.058   5.647   6.445  1.0453  0.1412 -0.6184
  127OSM     NF13542   1.031   5.540   6.690 -0.0260  0.1778 -0.0046
  127OSM    HNF13543   1.042   5.635   6.719  2.9364  0.8980 -2.8966
  127OSM    C2S13544   1.133   5.507   6.589  0.4158 -0.1114 -0.7213
  127OSM    H2S13545   1.149   5.398   6.596  0.2553 -0.0939 -0.0202
  127OSM    C3S13546   1.268   5.580   6.609  0.0137 -0.3686  0.2602
  127OSM    H3S13547   1.242   5.688   6.619  0.6350 -0.2060  0.1830
  127OSM     O313548   1.350   5.581   6.498  0.3882  0.0059 -0.8075
  127OSM    HO313549   1.303   5.525   6.435  0.6044 -0.9889 -0.1149
  127OSM    C4S13550   1.335   5.528   6.726  0.5649 -0.0136 -0.4105
  127OSM    H4S13551   1.331   5.418   6.737 -1.7580  0.0772  0.0661
  127OSM    C5S13552   1.400   5.603   6.817  0.2255 -0.1054 -0.0632
  127OSM    H5S13553   1.397   5.712   6.803  0.4974  0.0306  0.8715
  127OSM    C6S13554   1.464   5.534   6.936 -0.6575  0.1716  0.2351
  127OSM    H6S13555   1.562   5.583   6.957  0.2312 -0.9176 -1.2260
  127OSM    H6T13556   1.493   5.430   6.911  1.2671  1.4417 -3.6060
  127OSM    C7S13557   1.380   5.538   7.069  0.3645  0.3446 -0.0821
  127OSM    H7S13558   1.293   5.470   7.059  0.8940 -0.8460  2.4333
  127OSM    H7T13559   1.342   5.642   7.085 -0.1045 -0.1044  2.0299
  127OSM    C8S13560   1.459   5.496   7.197 -0.0871  1.0537 -0.6076
  127OSM    H8S13561   1.539   5.569   7.220 -0.4517  1.9162 -1.9489
  127OSM    H8T13562   1.510   5.403   7.165 -1.6628 -1.3522  3.1859
  127OSM    C9S13563   1.380   5.459   7.335 -0.3007 -1.0509  0.5941
  127OSM    H9S13564   1.309   5.379   7.306 -0.9750  0.1885 -1.4077
  127OSM    H9T13565   1.314   5.546   7.357  1.5038  0.1573  1.5871
  127OSM   C10S13566   1.465   5.435   7.457 -0.9398 -0.1482 -0.3405
  127OSM   H10S13567   1.547   5.506   7.483 -0.7751 -0.1819 -0.7637
  127OSM   H10T13568   1.525   5.343   7.438  3.8244  2.3998  0.6672
  127OSM   C11S13569   1.383   5.417   7.585  0.1593 -0.6709 -0.3234
  127OSM   H11S13570   1.303   5.340   7.573 -2.4706  1.8371 -0.2265
  127OSM   H11T13571   1.337   5.512   7.619  0.8434 -0.6548  0.5671
  127OSM   C12S13572   1.458   5.379   7.714  0.0519 -0.0554 -0.0295
  127OSM   H12S13573   1.533   5.458   7.733 -0.1935  0.3506 -0.6867
  127OSM   H12T13574   1.509   5.282   7.695 -2.6219 -1.2829 -1.7196
  127OSM   C13S13575   1.356   5.374   7.828 -0.3064  0.2148  0.0726
  127OSM   H13S13576   1.298   5.279   7.834 -0.9607  0.6668  0.9656
  127OSM   H13T13577   1.285   5.459   7.822  0.9394  1.2342 -0.7819
  127OSM   C14S13578   1.421   5.382   7.967  0.2014  0.0724 -0.6016
  127OSM   H14S13579   1.511   5.447   7.972  0.3042 -0.0522 -0.8074
  127OSM   H14T13580   1.457   5.279   7.988 -1.1427 -0.8004 -2.3440
  127OSM   C15S13581   1.322   5.418   8.082  0.4138  0.1711 -0.7207
  127OSM   H15S13582   1.261   5.326   8.092  3.4612 -2.0601 -0.9178
  127OSM   H15T13583   1.260   5.501   8.044  0.9275  0.6946 -0.4302
  127OSM   C16S13584   1.396   5.435   8.220 -0.3257 -0.4425  0.1753
  127OSM   H16S13585   1.436   5.538   8.235 -1.6650 -0.1268  1.9156
  127OSM   H16T13586   1.480   5.363   8.231 -2.2436 -2.9007 -0.4239
  127OSM   C17S13587   1.305   5.418   8.343  0.2289  0.2410  0.2315
  127OSM   H17S13588   1.224   5.494   8.332  1.9113  2.0401 -0.4041
  127OSM   H17T13589   1.360   5.439   8.438  2.6301 -1.2108 -0.7644
  127OSM   C18S13590   1.230   5.283   8.346  0.3829 -0.4423 -0.1641
  127OSM   H18S13591   1.280   5.191   8.310  0.0408 -0.4660 -0.5893
  127OSM   H18T13592   1.145   5.289   8.274  0.2796 -0.3023 -0.0319
  127OSM   H18U13593   1.197   5.271   8.451 -0.1424 -2.8612 -0.5498
  127OSM    C1F13594   0.913   5.478   6.691  0.1042  0.6924 -0.0246
  127OSM     OF13595   0.891   5.376   6.628  0.5154  0.4363  0.0800
  127OSM    C2F13596   0.807   5.541   6.775  0.3740 -0.0245 -0.4087
  127OSM    H2F13597   0.713   5.551   6.716 -0.5314 -1.5487  0.7058
  127OSM    H2G13598   0.842   5.643   6.801  2.2963 -0.4488 -1.1588
  127OSM    C3F13599   0.766   5.465   6.905  0.3039 -0.0282 -0.4017
  127OSM    H3F13600   0.731   5.362   6.881  1.7799 -0.3585 -1.1814
  127OSM    H3G13601   0.677   5.510   6.954 -0.6455 -1.4669 -0.7298
  127OSM    C4F13602   0.874   5.452   7.020  0.1999 -0.4570 -0.0797
  127OSM    H4F13603   0.901   5.558   7.042  0.8050 -0.8978  1.4149
  127OSM    H4G13604   0.971   5.398   7.008  1.3191  1.7093 -1.4271
  127OSM    C5F13605   0.808   5.396   7.154 -0.3458 -0.1067 -0.4416
  127OSM    H5F13606   0.766   5.294   7.137 -0.8992 -0.1052  0.8339
  127OSM    H5G13607   0.711   5.446   7.174 -1.9921 -2.2439 -2.5086
  127OSM    C6F13608   0.908   5.395   7.273 -0.0471 -0.3091  0.1028
  127OSM    H6F13609   0.957   5.493   7.290 -2.4345  1.8134 -3.7684
  127OSM    H6G13610   0.980   5.322   7.231  0.0738 -1.0865  1.5852
  127OSM    C7F13611   0.847   5.334   7.398  0.2036 -0.1363  0.6527
  127OSM    H7F13612   0.823   5.231   7.363  1.8230 -0.0219 -1.0057
  127OSM    H7G13613   0.747   5.373   7.424 -1.1559 -2.7679 -0.2554
  127OSM    C8F13614   0.940   5.325   7.515  0.3285 -0.0434 -0.0388
  127OSM    H8F13615   1.029   5.269   7.477 -0.8281 -0.5662 -2.1219
  127OSM    H8G13616   0.893   5.269   7.599 -1.2609  1.1627 -0.0809
  127OSM    C9F13617   0.988   5.458   7.557 -0.3249 -0.5756  0.6642
  127OSM    H9F13618   1.060   5.502   7.487  0.0773 -3.9766 -1.2869
  127OSM   C10F13619   0.936   5.530   7.659 -0.3765 -0.5751 -0.1107
  127OSM   H10F13620   0.971   5.633   7.678 -0.6633 -0.4729 -0.1349
  127OSM   C11F13621   0.830   5.488   7.757 -0.1596  0.0428 -0.0128
  127OSM   H11F13622   0.789   5.393   7.716  3.0908 -1.3897 -0.2559
  127OSM   H11G13623   0.752   5.567   7.753 -0.9160 -0.7466 -1.9197
  127OSM   C12F13624   0.880   5.462   7.902  0.1107 -0.0150 -0.4339
  127OSM   H12F13625   0.975   5.405   7.892  0.4419  0.8067 -2.2963
  127OSM   H12G13626   0.805   5.397   7.953 -0.7901  0.8593 -0.6115
  127OSM   C13F13627   0.889   5.592   7.988 -0.6250  0.0464  0.4272
  127OSM   H13F13628   0.797   5.651   7.967 -2.5873 -1.6361  3.5450
  127OSM   H13G13629   0.975   5.659   7.963 -2.2067  1.8151 -0.5365
  127OSM   C14F13630   0.907   5.565   8.137 -0.0933  0.8880 -0.3765
  127OSM   H14F13631   1.003   5.512   8.159 -0.3300  0.1861 -1.0083
  127OSM   H14G13632   0.830   5.499   8.181  1.0957  0.1641  0.7093
  127OSM   C15F13633   0.905   5.699   8.210  0.5805  0.2241  0.1102
  127OSM   H15F13634   0.800   5.736   8.215  0.4763 -0.1556  0.8208
  127OSM   H15G13635   0.973   5.772   8.161  0.0195  1.3039  0.8764
  127OSM   C16F13636   0.951   5.671   8.354 -0.0129 -0.0535  0.0766
  127OSM   H16F13637   1.051   5.624   8.370  1.2619  3.1766  2.7240
  127OSM   H16G13638   0.876   5.602   8.398  0.5713 -1.8966 -1.6374
  127OSM   C17F13639   0.950   5.801   8.428 -0.7888 -0.1386  0.1812
  127OSM   H17F13640   0.854   5.856   8.417 -0.0103  0.8111 -2.6695
  127OSM   H17G13641   1.019   5.863   8.367 -2.4187 -1.3734 -3.1527
  127OSM   C18F13642   1.017   5.803   8.564  0.2489 -0.0425 -0.0893
  127OSM   H18F13643   1.016   5.905   8.609  0.3085  0.2224 -0.6749
  127OSM   H18G13644   1.125   5.777   8.564 -0.0494 -1.4564 -1.5273
  127OSM   H18H13645   0.974   5.723   8.626 -1.5017  0.1537 -0.9955
  128OSM      N13646   1.103   3.533   6.048  0.2677  0.1666 -0.2522
  128OSM    C1513647   1.001   3.550   5.942  0.0449 -0.6405  0.1674
  128OSM   H15A13648   0.903   3.522   5.977 -0.8167 -0.8714 -2.2648
  128OSM   H15B13649   1.031   3.495   5.854 -1.4351  0.5741 -1.1559
  128OSM   H15C13650   0.995   3.655   5.917 -2.5780 -0.1791  2.3081
  128OSM    C1413651   1.062   3.617   6.173 -0.5934  0.4487  0.4973
  128OSM   H14A13652   1.064   3.722   6.150 -1.1809  0.5833  1.0576
  128OSM   H14B13653   1.146   3.606   6.241  0.1496  1.6700 -0.1904
  128OSM   H14C13654   0.968   3.589   6.217 -0.8752  0.3553 -0.1441
  128OSM    C1313655   1.106   3.389   6.084  0.3955  0.3363 -0.3643
  128OSM   H13A13656   1.007   3.346   6.090  0.7566 -1.0568 -2.7869
  128OSM   H13B13657   1.167   3.376   6.171 -0.8733 -0.0364  0.5012
  128OSM   H13C13658   1.147   3.324   6.008  1.8338 -0.8730  1.3914
  128OSM    C1213659   1.237   3.572   5.999  0.1730 -0.5567 -0.2634
  128OSM   H12A13660   1.247   3.680   5.997  0.5695 -0.5577 -3.0747
  128OSM   H12B13661   1.245   3.542   5.895  0.4940 -1.8494  0.1149
  128OSM    C1113662   1.368   3.538   6.072  0.0604 -0.1630 -0.1000
  128OSM   H11A13663   1.449   3.584   6.011  0.7519 -0.7418  0.3571
  128OSM   H11B13664   1.392   3.429   6.063  1.2212  0.1206 -0.6425
  128OSM      P13665   1.405   3.726   6.246 -0.1950 -0.1268 -0.2177
  128OSM    O1313666   1.551   3.757   6.252 -0.6978 -0.3308 -0.0114
  128OSM    O1413667   1.319   3.812   6.159  0.0208  0.7178  0.4120
  128OSM    O1113668   1.340   3.741   6.385  0.3043  0.1940  0.1127
  128OSM    O1213669   1.378   3.575   6.210  0.7995  0.2645  0.1835
  128OSM    C1S13670   1.292   3.616   6.442  0.1913  0.2004  0.2727
  128OSM    H1S13671   1.383   3.554   6.461  0.1304 -0.5436 -1.7277
  128OSM    H1T13672   1.232   3.549   6.378  1.0621  0.8122 -1.2357
  128OSM     NF13673   1.179   3.518   6.642 -0.4781  0.5237 -0.5048
  128OSM    HNF13674   1.083   3.490   6.652 -0.1469 -0.2919  0.5653
  128OSM    C2S13675   1.229   3.636   6.584 -0.1011 -0.4845  0.4545
  128OSM    H2S13676   1.307   3.668   6.657  1.2187  0.2595 -1.2301
  128OSM    C3S13677   1.113   3.739   6.585  0.4892  0.0214  0.5217
  128OSM    H3S13678   1.036   3.708   6.512  0.9713 -0.0639  0.0407
  128OSM     O313679   1.153   3.860   6.525  0.0973 -0.6588  0.1258
  128OSM    HO313680   1.230   3.832   6.475  0.0945  0.0221 -0.2712
  128OSM    C4S13681   1.079   3.775   6.732 -0.0453 -0.4455  0.8148
  128OSM    H4S13682   1.147   3.854   6.770  1.6846 -0.3061 -2.1939
  128OSM    C5S13683   0.960   3.758   6.782 -0.8763 -0.9271  0.0579
  128OSM    H5S13684   0.881   3.711   6.721 -1.4805 -0.0453  0.1309
  128OSM    C6S13685   0.911   3.816   6.912 -0.0654 -0.7579 -0.4173
  128OSM    H6S13686   0.818   3.873   6.892 -1.4800 -2.1293  1.7753
  128OSM    H6T13687   0.987   3.891   6.944 -2.2749  0.7801  1.5597
  128OSM    C7S13688   0.894   3.714   7.017 -0.1526  0.1402 -0.2918
  128OSM    H7S13689   0.796   3.670   6.989  0.2128 -1.4477  0.7637
  128OSM    H7T13690   0.891   3.763   7.117  1.2579  0.0020 -0.1648
  128OSM    C8S13691   0.991   3.593   7.027 -0.3988 -0.4836  0.2430
  128OSM    H8S13692   1.093   3.635   7.013 -1.1788  0.7730 -2.2652
  128OSM    H8T13693   0.976   3.526   6.940 -3.1741  0.8352 -0.4084
  128OSM    C9S13694   0.988   3.531   7.164  0.1641  0.3352 -1.0721
  128OSM    H9S13695   0.964   3.423   7.150 -0.4020 -0.0181  1.8954
  128OSM    H9T13696   0.895   3.567   7.213 -0.5851  3.1804 -4.2443
  128OSM   C10S13697   1.112   3.543   7.248 -0.0047 -0.9002 -0.4254
  128OSM   H10S13698   1.122   3.652   7.270  0.7204 -0.7548 -1.4107
  128OSM   H10T13699   1.201   3.521   7.185  0.2730  0.3645 -0.5076
  128OSM   C11S13700   1.118   3.462   7.382  0.6277  0.1849  0.1191
  128OSM   H11S13701   1.222   3.467   7.420  0.9873  0.0557 -0.8347
  128OSM   H11T13702   1.096   3.357   7.354  0.8068  0.6405 -1.8924
  128OSM   C12S13703   1.025   3.511   7.487 -0.3289 -0.1248 -0.5708
  128OSM   H12S13704   0.923   3.503   7.445 -0.5708  1.1693 -0.2938
  128OSM   H12T13705   1.056   3.617   7.501 -0.7303  0.0657 -1.0960
  128OSM   C13S13706   1.046   3.428   7.615  0.2132  0.7218 -0.7929
  128OSM   H13S13707   1.006   3.490   7.698 -1.9402  3.1619 -3.4261
  128OSM   H13T13708   1.156   3.414   7.625  0.1382  1.2814  1.1983
  128OSM   C14S13709   0.973   3.295   7.608 -0.5473 -0.2585 -0.2831
  128OSM   H14S13710   1.001   3.234   7.520 -1.2784 -2.3925  0.8809
  128OSM   H14T13711   0.866   3.323   7.600 -0.0356  1.3899 -1.7777
  128OSM   C15S13712   0.992   3.196   7.726 -0.1321  0.1989 -0.3230
  128OSM   H15S13713   0.963   3.251   7.818  0.2407  1.2984 -0.8418
  128OSM   H15T13714   1.100   3.176   7.742  0.1813  1.1976 -1.0831
  128OSM   C16S13715   0.928   3.060   7.713 -0.9580 -0.2357 -0.2015
  128OSM   H16S13716   0.960   3.026   7.613 -3.3160 -0.4604 -0.9512
  128OSM   H16T13717   0.817   3.066   7.709 -0.8714  0.5853 -2.1115
  128OSM   C17S13718   0.975   2.960   7.819  0.0091  0.4468 -0.0248
  128OSM   H17S13719   1.085   2.947   7.810  0.0713  0.4523  0.6605
  128OSM   H17T13720   0.927   2.860   7.813 -1.3942  0.8666  2.6385
  128OSM   C18S13721   0.949   3.004   7.963 -0.5031  0.2358 -0.1992
  128OSM   H18S13722   0.950   2.912   8.026 -0.6887  1.4367  1.6029
  128OSM   H18T13723   0.849   3.052   7.971  0.7034  2.6215  1.8847
  128OSM   H18U13724   1.029   3.067   8.005 -0.3411 -0.3344  0.3732
  128OSM    C1F13725   1.262   3.411   6.661  0.0778  0.1921  0.0212
  128OSM     OF13726   1.389   3.423   6.663  0.1883 -0.1583  0.4372
  128OSM    C2F13727   1.196   3.278   6.685  0.9712  0.0125  0.2129
  128OSM    H2F13728   1.110   3.260   6.618  0.2940  1.9152  0.4954
  128OSM    H2G13729   1.156   3.284   6.789  2.1182  0.6418  0.6421
  128OSM    C3F13730   1.288   3.154   6.671  0.2519  0.7411 -0.1135
  128OSM    H3F13731   1.380   3.166   6.733 -0.2234  1.2505  0.5029
  128OSM    H3G13732   1.328   3.152   6.567  0.5740 -3.0575 -0.0578
  128OSM    C4F13733   1.216   3.018   6.680  0.9960  0.8812 -0.4906
  128OSM    H4F13734   1.284   2.931   6.666 -1.5502 -1.1181 -1.3720
  128OSM    H4G13735   1.126   3.015   6.615  0.3021  1.2331  0.4314
  128OSM    C5F13736   1.178   2.994   6.823 -0.3242  0.3725  0.6200
  128OSM    H5F13737   1.114   2.903   6.827  0.1622 -0.0933 -1.2632
  128OSM    H5G13738   1.118   3.081   6.855 -0.4879  0.8419 -0.8786
  128OSM    C6F13739   1.287   2.968   6.927 -0.1614  0.6773  0.5110
  128OSM    H6F13740   1.345   3.061   6.940 -0.2696  0.8137  0.0596
  128OSM    H6G13741   1.361   2.891   6.895  0.3188  0.5441  1.8868
  128OSM    C7F13742   1.231   2.918   7.061 -0.3471  0.0934  0.3782
  128OSM    H7F13743   1.153   2.840   7.043 -0.8970  0.7643 -0.2644
  128OSM    H7G13744   1.178   3.010   7.095  1.6336  2.0014 -1.3382
  128OSM    C8F13745   1.336   2.868   7.161 -0.3696 -0.9017 -0.5088
  128OSM    H8F13746   1.404   2.789   7.125  1.0758 -0.0933  0.3531
  128OSM    H8G13747   1.276   2.829   7.245 -1.5810  4.1596  1.3758
  128OSM    C9F13748   1.431   2.983   7.211 -0.3448  0.3909 -0.7513
  128OSM    H9F13749   1.522   2.997   7.149  0.7939 -1.8677  0.3098
  128OSM   C10F13750   1.400   3.057   7.316  0.1646 -0.2056  0.2047
  128OSM   H10F13751   1.473   3.132   7.350  1.4559 -2.6490  3.3012
  128OSM   C11F13752   1.276   3.036   7.391 -0.7302 -0.0306 -0.7228
  128OSM   H11F13753   1.192   3.006   7.325  0.2063 -1.7103 -1.2134
  128OSM   H11G13754   1.246   3.128   7.446 -0.4131  0.2574 -1.0284
  128OSM   C12F13755   1.290   2.931   7.500 -0.1847  0.1410 -0.3892
  128OSM   H12F13756   1.314   2.827   7.468 -1.8587 -1.1969  2.3880
  128OSM   H12G13757   1.186   2.922   7.538 -0.5901 -0.0990 -1.4985
  128OSM   C13F13758   1.409   2.949   7.599 -0.6253 -0.1244  0.3833
  128OSM   H13F13759   1.502   2.924   7.545  0.2650 -0.6719  2.1154
  128OSM   H13G13760   1.394   2.869   7.673  0.0562 -1.9007 -1.3128
  128OSM   C14F13761   1.411   3.092   7.662 -0.2845 -1.0714  0.2863
  128OSM   H14F13762   1.312   3.142   7.653  0.7709  1.1298  0.2031
  128OSM   H14G13763   1.496   3.154   7.624  1.2593 -0.9914  3.5319
  128OSM   C15F13764   1.442   3.091   7.814 -0.5223 -0.2768  0.2196
  128OSM   H15F13765   1.460   3.192   7.857  0.6146 -0.0244 -0.7694
  128OSM   H15G13766   1.544   3.048   7.825  0.8164  1.9521 -2.2633
  128OSM   C16F13767   1.339   3.028   7.911 -0.3111 -0.7406 -0.1856
  128OSM   H16F13768   1.322   2.922   7.882 -2.0492 -0.5337 -0.0708
  128OSM   H16G13769   1.250   3.094   7.899 -0.8487 -1.0271  1.9083
  128OSM   C17F13770   1.395   3.034   8.052  0.4755  0.6708 -0.2968
  128OSM   H17F13771   1.404   3.140   8.084  1.6521  0.8400 -1.1314
  128OSM   H17G13772   1.489   2.975   8.051 -1.3190 -2.3983 -0.3634
  128OSM   C18F13773   1.303   2.962   8.146 -0.4582  0.3560 -0.0766
  128OSM   H18F13774   1.349   2.957   8.247 -0.7285 -0.3037  0.0203
  128OSM   H18G13775   1.282   2.861   8.104  1.3694 -0.8158  1.6428
  128OSM   H18H13776   1.210   3.021   8.160 -1.4632 -0.7497 -1.7026
  129OSM      N13777   0.607   4.216   5.783  0.2846  0.4023  0.1778
  129OSM    C1513778   0.688   4.333   5.761  0.3069 -0.8730  0.6404
  129OSM   H15A13779   0.675   4.407   5.839  1.4764 -0.8847  0.8555
  129OSM   H15B13780   0.660   4.375   5.665 -1.8213 -2.7350  0.3549
  129OSM   H15C13781   0.794   4.320   5.746  0.5608  0.3402  1.1860
  129OSM    C1413782   0.470   4.266   5.782 -0.0966  0.3295 -0.4379
  129OSM   H14A13783   0.450   4.334   5.700  2.5227 -0.5301 -1.9098
  129OSM   H14B13784   0.449   4.322   5.871  0.3631  1.9685 -1.3121
  129OSM   H14C13785   0.393   4.190   5.787 -0.0686  0.3938  1.7787
  129OSM    C1313786   0.633   4.125   5.664  0.6164  0.5271  1.0044
  129OSM   H13A13787   0.599   4.178   5.577 -0.1431  0.1669  1.0754
  129OSM   H13B13788   0.581   4.030   5.663 -0.3104  0.9940 -1.6808
  129OSM   H13C13789   0.738   4.102   5.656  0.8380  1.7793  0.1391
  129OSM    C1213790   0.646   4.140   5.909  0.2615 -0.0826  0.2570
  129OSM   H12A13791   0.674   4.207   5.988  1.1695 -2.6029  2.2296
  129OSM   H12B13792   0.742   4.095   5.891  1.5689  3.2529 -1.9778
  129OSM    C1113793   0.536   4.045   5.974 -0.7112 -0.7925  0.4985
  129OSM   H11A13794   0.503   3.978   5.893 -2.3396  0.7722 -0.2060
  129OSM   H11B13795   0.446   4.102   6.006  0.6343  0.9478  1.3946
  129OSM      P13796   0.668   3.850   6.094  0.4583  0.6472 -0.3246
  129OSM    O1313797   0.573   3.734   6.083 -0.7741 -0.0580  0.4479
  129OSM    O1413798   0.780   3.858   5.994 -0.0213 -0.6288 -0.1302
  129OSM    O1113799   0.734   3.857   6.233 -0.4746  0.1846 -0.2953
  129OSM    O1213800   0.582   3.979   6.086 -0.3868 -0.5352  0.2268
  129OSM    C1S13801   0.660   3.891   6.350  0.2933 -0.5851 -0.5227
  129OSM    H1S13802   0.589   3.810   6.377 -0.4024  0.7978  2.1554
  129OSM    H1T13803   0.596   3.979   6.329  0.7139  0.8244  3.3043
  129OSM     NF13804   0.680   3.917   6.593  0.4899  0.5273 -0.5915
  129OSM    HNF13805   0.656   3.999   6.644 -1.5449  0.1912 -0.9119
  129OSM    C2S13806   0.758   3.921   6.480  0.1379  0.9931  0.1074
  129OSM    H2S13807   0.840   3.846   6.490 -0.4363  0.3910  0.3005
  129OSM    C3S13808   0.815   4.063   6.452 -0.4007 -0.0172 -0.2690
  129OSM    H3S13809   0.726   4.128   6.441 -2.3409 -2.7244 -1.8263
  129OSM     O313810   0.876   4.080   6.324  0.3453 -0.5619  0.1744
  129OSM    HO313811   0.840   4.009   6.270  0.8421 -0.3669 -0.4232
  129OSM    C4S13812   0.915   4.106   6.561 -0.0944 -0.2210 -0.2284
  129OSM    H4S13813   1.008   4.048   6.559 -0.8543 -1.4810 -0.5795
  129OSM    C5S13814   0.896   4.204   6.653 -0.2255 -0.3777  0.2287
  129OSM    H5S13815   0.798   4.255   6.648  0.0474  0.0821 -0.6927
  129OSM    C6S13816   0.990   4.252   6.761 -1.0159  0.0981  0.1680
  129OSM    H6S13817   0.951   4.210   6.856 -0.7459 -0.5614 -0.0099
  129OSM    H6T13818   0.983   4.361   6.780 -2.3412 -0.0518  0.6349
  129OSM    C7S13819   1.139   4.201   6.749  0.0813 -0.2320  0.0890
  129OSM    H7S13820   1.194   4.250   6.665 -0.2506  1.8977  1.0333
  129OSM    H7T13821   1.139   4.095   6.719  1.9885 -0.3672  0.4488
  129OSM    C8S13822   1.204   4.222   6.884 -0.2605 -0.3680  0.0428
  129OSM    H8S13823   1.184   4.323   6.925  2.0271  0.1052  0.0693
  129OSM    H8T13824   1.312   4.211   6.864 -0.2015 -1.3569  0.8218
  129OSM    C9S13825   1.177   4.109   6.990  0.7837  0.5766 -0.2987
  129OSM    H9S13826   1.228   4.018   6.951  1.1105 -0.0364  1.4646
  129OSM    H9T13827   1.071   4.075   7.000  1.1423 -0.8864 -1.0924
  129OSM   C10S13828   1.225   4.146   7.131  0.3122  0.8557 -0.2961
  129OSM   H10S13829   1.148   4.222   7.158  0.0785  1.0652 -1.5054
  129OSM   H10T13830   1.332   4.177   7.133  1.7802 -3.5438  0.9332
  129OSM   C11S13831   1.230   4.030   7.236  0.6717  0.3394  0.3150
  129OSM   H11S13832   1.261   4.069   7.335 -2.1048 -1.1715  1.9022
  129OSM   H11T13833   1.306   3.958   7.201 -1.5534 -0.2926 -3.8188
  129OSM   C12S13834   1.087   3.957   7.242  0.1371  0.1840 -0.5386
  129OSM   H12S13835   1.112   3.870   7.307  1.4451  2.2395  1.9157
  129OSM   H12T13836   1.053   3.914   7.146  0.1743 -0.7566 -0.1392
  129OSM   C13S13837   0.983   4.048   7.315  0.9310  0.4657 -0.1099
  129OSM   H13S13838   0.945   4.105   7.228 -2.7711 -1.4501  0.0858
  129OSM   H13T13839   1.027   4.115   7.393 -0.5469  0.8955  0.3899
  129OSM   C14S13840   0.870   3.975   7.381 -0.0036  0.9129 -0.5852
  129OSM   H14S13841   0.845   3.882   7.325 -0.9469 -0.0677  1.3876
  129OSM   H14T13842   0.784   4.045   7.379  0.2607  1.2333 -0.9216
  129OSM   C15S13843   0.904   3.934   7.528  0.1540  0.0712  0.4452
  129OSM   H15S13844   0.892   4.025   7.591  0.5909 -1.2965  2.6126
  129OSM   H15T13845   1.010   3.900   7.527  0.0889 -0.1208 -0.2261
  129OSM   C16S13846   0.820   3.817   7.581 -0.1187  0.1151  1.1178
  129OSM   H16S13847   0.832   3.733   7.510 -3.2286  0.0358  0.5459
  129OSM   H16T13848   0.713   3.850   7.576 -0.2608 -0.4729 -0.2896
  129OSM   C17S13849   0.858   3.783   7.719 -0.0211 -0.1278 -0.5726
  129OSM   H17S13850   0.863   3.875   7.781  0.1693  0.6811 -1.7639
  129OSM   H17T13851   0.961   3.742   7.728 -0.1147  0.0592  2.9956
  129OSM   C18S13852   0.762   3.681   7.779 -0.3203  0.1035 -0.0720
  129OSM   H18S13853   0.672   3.738   7.808 -0.2809  1.5989 -2.5977
  129OSM   H18T13854   0.806   3.643   7.874 -1.9744  0.0282  0.6885
  129OSM   H18U13855   0.737   3.600   7.707 -1.6618 -0.4793  1.0137
  129OSM    C1F13856   0.620   3.809   6.649 -0.5327  0.5828  0.6285
  129OSM     OF13857   0.627   3.699   6.592  0.4766 -0.4002 -0.5393
  129OSM    C2F13858   0.555   3.834   6.775  1.4165 -0.5232 -0.6300
  129OSM    H2F13859   0.591   3.932   6.813 -1.5349  0.4431 -0.0705
  129OSM    H2G13860   0.579   3.760   6.854 -1.5266 -0.5516  0.3475
  129OSM    C3F13861   0.401   3.841   6.756  0.0499  0.0445  0.1767
  129OSM    H3F13862   0.381   3.916   6.677 -0.3259  0.0980  0.3200
  129OSM    H3G13863   0.368   3.890   6.851  0.4039  0.1881  0.2265
  129OSM    C4F13864   0.326   3.712   6.737 -0.7598 -1.0781 -0.2443
  129OSM    H4F13865   0.373   3.653   6.656 -0.0195  0.5420 -1.0446
  129OSM    H4G13866   0.220   3.737   6.718 -0.3163  0.8692 -0.3339
  129OSM    C5F13867   0.348   3.620   6.864 -0.2715  0.5862  0.3163
  129OSM    H5F13868   0.348   3.687   6.952  1.6845  0.7260  0.2560
  129OSM    H5G13869   0.450   3.578   6.851 -0.6943  0.0885 -1.9839
  129OSM    C6F13870   0.255   3.498   6.856 -0.7193 -0.6216  0.6309
  129OSM    H6F13871   0.256   3.459   6.751 -0.8204 -1.7155  1.0226
  129OSM    H6G13872   0.150   3.520   6.883 -1.1702 -0.9162 -0.7731
  129OSM    C7F13873   0.299   3.380   6.949  0.0703 -0.7501 -0.3017
  129OSM    H7F13874   0.402   3.351   6.922  0.0821 -1.1029  0.1027
  129OSM    H7G13875   0.232   3.300   6.911 -1.1695 -0.1238  0.4789
  129OSM    C8F13876   0.280   3.415   7.099 -0.3771  0.4898 -0.3962
  129OSM    H8F13877   0.172   3.428   7.121 -0.0316 -1.0410  2.6574
  129OSM    H8G13878   0.336   3.506   7.129  1.6332 -0.7598 -0.2002
  129OSM    C9F13879   0.342   3.294   7.174  0.1965 -0.6415  0.2319
  129OSM    H9F13880   0.451   3.290   7.164  0.0815 -1.2972 -1.0035
  129OSM   C10F13881   0.269   3.192   7.231  0.9142  0.7699 -0.1936
  129OSM   H10F13882   0.328   3.110   7.275  3.1573  2.0994 -0.5366
  129OSM   C11F13883   0.120   3.185   7.247  0.9416  0.4609  0.0840
  129OSM   H11F13884   0.076   3.093   7.204  1.5484  0.4058 -0.4290
  129OSM   H11G13885   0.080   3.273   7.191 -0.4847  0.1019  0.4910
  129OSM   C12F13886   0.068   3.209   7.385  0.3507  0.0228 -0.7596
  129OSM   H12F13887  -0.041   3.227   7.369  0.3350 -0.0779 -0.7679
  129OSM   H12G13888   0.111   3.301   7.429  1.0615 -0.4040 -0.5526
  129OSM   C13F13889   0.085   3.088   7.476 -0.1436  0.0501  0.3603
  129OSM   H13F13890   0.186   3.045   7.460 -0.7087 -0.8088 -1.0420
  129OSM   H13G13891  -0.004   3.023   7.463 -0.0562  0.4562 -3.2282
  129OSM   C14F13892   0.101   3.116   7.620  0.9102 -0.3572 -0.2356
  129OSM   H14F13893   0.014   3.174   7.657 -0.0694 -1.6657 -0.4193
  129OSM   H14G13894   0.188   3.184   7.633 -0.7871  1.5283  2.1358
  129OSM   C15F13895   0.113   2.994   7.708 -0.2785 -0.4789 -0.5945
  129OSM   H15F13896   0.197   2.930   7.676  1.1722  0.2869  1.4846
  129OSM   H15G13897   0.015   2.945   7.689 -1.3798  1.1163  0.7085
  129OSM   C16F13898   0.114   3.028   7.863 -0.4242  0.2068  0.4037
  129OSM   H16F13899   0.019   3.086   7.874  0.6915  1.8465  1.9775
  129OSM   H16G13900   0.199   3.093   7.892  0.1984 -0.5039  0.1860
  129OSM   C17F13901   0.110   2.894   7.942 -0.3326 -0.3747  0.8338
  129OSM   H17F13902   0.015   2.840   7.923 -0.6601  0.5099 -0.1662
  129OSM   H17G13903   0.105   2.922   8.049 -1.0700 -0.5899  0.8596
  129OSM   C18F13904   0.232   2.796   7.917  0.1418 -0.0751  0.1575
  129OSM   H18F13905   0.214   2.722   7.835 -0.9505 -1.2558  1.4007
  129OSM   H18G13906   0.261   2.739   8.008 -1.2368 -0.8747  0.1306
  129OSM   H18H13907   0.322   2.854   7.890 -0.2141  0.5141  0.2299
  130OSM      N13908   0.443   0.164   5.908  0.2305  0.2954  0.2602
  130OSM    C1513909   0.547   0.219   5.815  0.1412  0.1749  0.3506
  130OSM   H15A13910   0.498   0.229   5.719 -0.5570 -0.8893  0.5788
  130OSM   H15B13911   0.621   0.141   5.812 -3.7975 -4.2465  3.1369
  130OSM   H15C13912   0.590   0.315   5.837  2.9832 -0.5031 -1.6789
  130OSM    C1413913   0.395   0.030   5.856 -1.0133  0.4550  0.4039
  130OSM   H14A13914   0.330   0.037   5.770 -0.3984  1.8509  0.0396
  130OSM   H14B13915   0.335  -0.017   5.934  0.1428  3.3324  3.2286
  130OSM   H14C13916   0.469  -0.043   5.828 -2.0469 -0.2655 -0.5894
  130OSM    C1313917   0.496   0.137   6.040  0.0189 -0.2878  0.5588
  130OSM   H13A13918   0.588   0.081   6.037 -0.3025 -0.7839 -0.6637
  130OSM   H13B13919   0.433   0.072   6.099  1.2292  0.2877  2.6155
  130OSM   H13C13920   0.496   0.228   6.098  1.7336 -1.2126  2.1306
  130OSM    C1213921   0.329   0.253   5.924 -0.3251  0.3824  0.3028
  130OSM   H12A13922   0.277   0.213   6.010  1.7059 -0.4660  1.2128
  130OSM   H12B13923   0.250   0.242   5.852  1.0623 -4.0961 -0.8170
  130OSM    C1113924   0.358   0.408   5.944  0.1895  0.3157  0.3979
  130OSM   H11A13925   0.256   0.451   5.953 -0.7805 -1.6019 -0.8286
  130OSM   H11B13926   0.401   0.443   5.848 -1.8989 -0.1728 -0.7827
  130OSM      P13927   0.515   0.568   6.079  0.6337 -0.3687  0.0214
  130OSM    O1313928   0.653   0.531   6.124 -0.2762 -0.3336 -0.2952
  130OSM    O1413929   0.500   0.661   5.962 -0.1914  0.5982  0.3956
  130OSM    O1113930   0.427   0.625   6.199 -0.0116 -0.0743 -0.6202
  130OSM    O1213931   0.441   0.435   6.056  0.7511  0.1269  0.7703
  130OSM    C1S13932   0.350   0.533   6.281 -0.1959 -0.0931 -0.2559
  130OSM    H1S13933   0.410   0.446   6.315  0.7493  0.2375 -1.0255
  130OSM    H1T13934   0.270   0.483   6.223 -0.8935  0.3066  0.3422
  130OSM     NF13935   0.204   0.504   6.483  0.3561 -0.1917  0.1281
  130OSM    HNF13936   0.113   0.472   6.458 -0.1706  0.8671  0.6403
  130OSM    C2S13937   0.271   0.608   6.401 -0.2597  1.8300  0.2622
  130OSM    H2S13938   0.349   0.660   6.461  1.8334 -2.0540  1.2275
  130OSM    C3S13939   0.167   0.707   6.334  0.2212  0.1149 -0.5979
  130OSM    H3S13940   0.093   0.638   6.286 -1.3900  0.0102  1.8545
  130OSM     O313941   0.222   0.792   6.237  0.3036 -0.2761  0.5153
  130OSM    HO313942   0.301   0.743   6.213  1.6062  1.1881  1.6215
  130OSM    C4S13943   0.097   0.790   6.439  0.6376 -0.3585  0.5832
  130OSM    H4S13944   0.168   0.847   6.501 -2.1407  0.7304  2.9871
  130OSM    C5S13945  -0.039   0.800   6.470 -0.4684  0.6863  0.7431
  130OSM    H5S13946  -0.111   0.738   6.415 -0.9373  0.3015  1.7808
  130OSM    C6S13947  -0.094   0.882   6.585 -0.5166  0.0620  0.3471
  130OSM    H6S13948  -0.192   0.930   6.568 -0.9693 -1.1615 -0.6657
  130OSM    H6T13949  -0.028   0.962   6.625 -1.8529  1.2416  0.2380
  130OSM    C7S13950  -0.122   0.796   6.709 -0.0780 -0.0668 -0.0475
  130OSM    H7S13951  -0.032   0.742   6.745  1.3201  0.5555 -2.4102
  130OSM    H7T13952  -0.210   0.732   6.686  0.2223 -0.2630 -0.6512
  130OSM    C8S13953  -0.185   0.883   6.823 -0.0757 -0.3943 -0.5818
  130OSM    H8S13954  -0.276   0.938   6.793 -0.5948 -0.9296 -0.0281
  130OSM    H8T13955  -0.106   0.954   6.853 -0.2042 -0.7917  0.7439
  130OSM    C9S13956  -0.213   0.808   6.958 -0.0970  0.2227  0.3849
  130OSM    H9S13957  -0.114   0.765   6.986  0.7453  1.0517 -1.1864
  130OSM    H9T13958  -0.296   0.736   6.943 -0.5025  1.0378 -1.6142
  130OSM   C10S13959  -0.250   0.904   7.074 -0.4283 -0.0986 -0.8249
  130OSM   H10S13960  -0.337   0.964   7.041  0.2906  0.6839 -1.3484
  130OSM   H10T13961  -0.173   0.981   7.095 -2.6836  2.3907 -1.1387
  130OSM   C11S13962  -0.310   0.818   7.192 -0.2412 -0.2690  0.2211
  130OSM   H11S13963  -0.234   0.746   7.229  0.8408  0.5992 -0.2525
  130OSM   H11T13964  -0.388   0.752   7.148  0.3894  0.1161 -1.5603
  130OSM   C12S13965  -0.374   0.898   7.306  0.0355 -0.3147 -1.2532
  130OSM   H12S13966  -0.460   0.962   7.279 -0.3661 -1.0160 -1.6869
  130OSM   H12T13967  -0.296   0.966   7.347 -1.5043 -0.3795  2.1134
  130OSM   C13S13968  -0.417   0.811   7.424  0.3194 -0.0661  0.3356
  130OSM   H13S13969  -0.324   0.759   7.458  0.4847 -0.1246 -0.2062
  130OSM   H13T13970  -0.487   0.732   7.391  0.7344 -0.3311  0.0725
  130OSM   C14S13971  -0.475   0.888   7.540 -0.0111  0.5467  0.1894
  130OSM   H14S13972  -0.563   0.940   7.497  1.5799  0.0413 -4.1798
  130OSM   H14T13973  -0.413   0.975   7.571 -1.2384  1.7781 -0.6843
  130OSM   C15S13974  -0.524   0.802   7.652  0.4241 -0.1645  0.1848
  130OSM   H15S13975  -0.430   0.755   7.689 -0.0661 -1.5138 -0.2265
  130OSM   H15T13976  -0.587   0.717   7.619  1.1350 -0.3014 -0.8864
  130OSM   C16S13977  -0.565   0.882   7.770  0.6335  0.1322  0.6351
  130OSM   H16S13978  -0.659   0.938   7.747 -0.2533 -0.5957  2.2892
  130OSM   H16T13979  -0.487   0.955   7.799  1.4797 -0.5156  0.0179
  130OSM   C17S13980  -0.585   0.784   7.883  0.3818  0.4431 -0.0997
  130OSM   H17S13981  -0.492   0.725   7.899 -0.9784 -1.9262 -0.3228
  130OSM   H17T13982  -0.663   0.708   7.861  0.4971  0.1167  0.5733
  130OSM   C18S13983  -0.634   0.849   8.016 -0.0536  1.4617  0.6006
  130OSM   H18S13984  -0.623   0.775   8.099  1.8488  2.3581  1.2137
  130OSM   H18T13985  -0.740   0.882   8.019 -0.7105 -0.4905  0.2561
  130OSM   H18U13986  -0.565   0.936   8.023 -0.5423  2.1657 -2.2644
  130OSM    C1F13987   0.278   0.428   6.559  0.2318  0.5314 -0.7127
  130OSM     OF13988   0.401   0.434   6.561  0.0436  0.1478 -0.1112
  130OSM    C2F13989   0.214   0.315   6.630  0.0214 -0.3042 -0.6349
  130OSM    H2F13990   0.289   0.235   6.648  1.1767  1.1816  1.6719
  130OSM    H2G13991   0.129   0.267   6.577 -1.5015  0.8374  0.6718
  130OSM    C3F13992   0.169   0.353   6.773  0.2624 -0.2880  0.0367
  130OSM    H3F13993   0.120   0.257   6.803  2.4289 -1.8784 -1.2341
  130OSM    H3G13994   0.094   0.433   6.757 -0.8188 -1.3501 -0.3695
  130OSM    C4F13995   0.285   0.383   6.867 -1.1634 -0.4870 -0.2224
  130OSM    H4F13996   0.226   0.437   6.945  2.1616  1.1710  1.3658
  130OSM    H4G13997   0.352   0.465   6.834 -0.5366 -0.6893  0.5235
  130OSM    C5F13998   0.361   0.258   6.917  1.7743 -0.4617 -0.2413
  130OSM    H5F13999   0.417   0.206   6.836  0.5817 -2.9007  0.4261
  130OSM    H5G14000   0.272   0.195   6.934  1.1100  0.9365  1.8394
  130OSM    C6F14001   0.444   0.276   7.044  0.4634 -0.3084  0.1536
  130OSM    H6F14002   0.519   0.358   7.032 -2.5693  2.6205 -0.2092
  130OSM    H6G14003   0.496   0.182   7.072  0.2409  0.2106  2.5645
  130OSM    C7F14004   0.348   0.311   7.156  0.0545  0.5262  0.4987
  130OSM    H7F14005   0.265   0.237   7.151  0.1908  0.3747  0.4755
  130OSM    H7G14006   0.310   0.412   7.130  0.2241  0.0952 -1.5665
  130OSM    C8F14007   0.413   0.314   7.296  0.0609  0.6504 -0.1309
  130OSM    H8F14008   0.496   0.388   7.294  0.8150 -0.0441  2.3260
  130OSM    H8G14009   0.475   0.225   7.321  0.2313  0.9555  0.5417
  130OSM    C9F14010   0.311   0.368   7.397 -0.0283  0.7569 -1.1952
  130OSM    H9F14011   0.209   0.326   7.389  0.2953 -1.4390  3.1028
  130OSM   C10F14012   0.338   0.457   7.499  0.4394  0.6516 -0.1973
  130OSM   H10F14013   0.257   0.469   7.573  1.3589  0.2802  0.8900
  130OSM   C11F14014   0.462   0.524   7.537  0.4640 -0.6195  0.2029
  130OSM   H11F14015   0.440   0.633   7.544  1.9618 -0.2627 -0.3757
  130OSM   H11G14016   0.542   0.509   7.462  1.1216 -0.0716  0.7769
  130OSM   C12F14017   0.504   0.488   7.676 -0.3033 -0.3027 -0.1119
  130OSM   H12F14018   0.601   0.539   7.695 -0.0415 -1.5735  2.4034
  130OSM   H12G14019   0.524   0.379   7.684  3.7232  0.2454 -0.5430
  130OSM   C13F14020   0.410   0.540   7.783  0.0756 -0.0056  0.3313
  130OSM   H13F14021   0.334   0.459   7.792  0.9275 -0.8977 -0.2659
  130OSM   H13G14022   0.366   0.635   7.746  1.4166  0.1526 -0.9717
  130OSM   C14F14023   0.481   0.579   7.918 -0.1298 -0.1159  1.0714
  130OSM   H14F14024   0.519   0.683   7.909 -2.5205  0.6127 -2.6748
  130OSM   H14G14025   0.560   0.508   7.950  1.4084  1.2295  0.4212
  130OSM   C15F14026   0.384   0.589   8.028  1.0292  0.0272 -0.1916
  130OSM   H15F14027   0.342   0.489   8.053  1.2975  0.2401  1.2010
  130OSM   H15G14028   0.306   0.658   7.988  0.5543 -1.1599 -1.3585
  130OSM   C16F14029   0.449   0.648   8.154  0.0638  0.2170  0.5520
  130OSM   H16F14030   0.549   0.693   8.138 -0.0794  1.2241  2.3009
  130OSM   H16G14031   0.455   0.573   8.236  2.1201  1.2627  1.4109
  130OSM   C17F14032   0.358   0.768   8.206  1.0503  0.1826 -0.5642
  130OSM   H17F14033   0.272   0.710   8.246  0.6330  1.2265  0.0792
  130OSM   H17G14034   0.324   0.830   8.120 -0.2485  0.1972 -0.0630
  130OSM   C18F14035   0.432   0.851   8.316  0.2068 -0.4028 -0.4138
  130OSM   H18F14036   0.422   0.780   8.400 -1.4319 -2.6036 -2.3069
  130OSM   H18G14037   0.371   0.944   8.324 -0.7919 -0.7748 -2.7305
  130OSM   H18H14038   0.541   0.865   8.299  0.5190 -1.9979  0.0725
  131OSM      N14039   6.111   5.093   5.908  0.4001 -0.3237 -0.4389
  131OSM    C1514040   5.964   5.060   5.906  0.0030  0.2015 -0.5530
  131OSM   H15A14041   5.946   4.957   5.934  1.8091 -0.0746 -0.3261
  131OSM   H15B14042   5.913   5.085   5.814  0.8568 -3.1869 -2.1096
  131OSM   H15C14043   5.904   5.118   5.975 -1.4871 -2.7977  0.8643
  131OSM    C1414044   6.167   4.999   5.806  0.2155 -0.1861  0.0821
  131OSM   H14A14045   6.112   5.004   5.713 -1.1593  1.9550  0.9497
  131OSM   H14B14046   6.149   4.896   5.834 -0.4763  0.4517  2.1605
  131OSM   H14C14047   6.272   5.010   5.783  0.4775 -2.0277  0.1949
  131OSM    C1314048   6.109   5.234   5.870 -0.1628 -0.2556 -0.2704
  131OSM   H13A14049   6.043   5.243   5.786 -0.0452  0.2052 -0.3157
  131OSM   H13B14050   6.206   5.265   5.835 -1.6460  2.7418 -2.0781
  131OSM   H13C14051   6.083   5.302   5.950  1.0262  0.4505 -0.4590
  131OSM    C1214052   6.178   5.076   6.048 -0.2385 -0.6052  0.2066
  131OSM   H12A14053   6.163   4.977   6.088 -4.9861 -0.1419  0.1801
  131OSM   H12B14054   6.122   5.138   6.116  0.1686 -0.0348  0.0304
  131OSM    C1114055   6.334   5.108   6.056 -0.1108  0.1414  0.5844
  131OSM   H11A14056   6.354   5.095   6.164 -3.4598 -1.8113  1.1259
  131OSM   H11B14057   6.355   5.216   6.041 -0.9361  1.1461  5.1525
  131OSM      P14058   6.430   4.867   6.027 -0.4662 -0.4408 -0.3066
  131OSM    O1314059   6.316   4.777   5.997  0.5508 -0.6517 -0.1091
  131OSM    O1414060   6.566   4.832   5.972  0.2358  0.0798 -0.3750
  131OSM    O1114061   6.456   4.882   6.184 -0.3839  0.0628 -0.2234
  131OSM    O1214062   6.399   5.014   5.976  0.3465  0.3015  0.3434
  131OSM    C1S14063   6.427   4.767   6.264  0.4113 -0.2444  0.9580
  131OSM    H1S14064   6.466   4.682   6.205 -0.1256  0.6839 -0.8238
  131OSM    H1T14065   6.319   4.747   6.253  0.5712  0.2573 -3.1488
  131OSM     NF14066   6.430   4.654   6.487  0.3538 -0.2264  0.4354
  131OSM    HNF14067   6.355   4.670   6.551  0.7489  3.0299  0.2980
  131OSM    C2S14068   6.472   4.772   6.410 -0.0891 -0.4051  0.0701
  131OSM    H2S14069   6.582   4.773   6.399  0.0898  2.1782  1.3734
  131OSM    C3S14070   6.416   4.901   6.476  0.5519  0.3821 -0.0774
  131OSM    H3S14071   6.305   4.901   6.467  0.2210 -1.2659  2.7692
  131OSM     O314072   6.452   5.021   6.401  0.1622  0.1472 -0.3603
  131OSM    HO314073   6.472   4.986   6.314  1.0785  0.2652 -0.2031
  131OSM    C4S14074   6.453   4.907   6.627  0.2162 -0.1069 -0.1045
  131OSM    H4S14075   6.375   4.875   6.698 -1.3502  1.1338 -1.1994
  131OSM    C5S14076   6.576   4.949   6.687  0.3033 -0.5630 -0.1035
  131OSM    H5S14077   6.652   4.983   6.615 -0.8554  1.5410 -0.4161
  131OSM    C6S14078   6.603   4.955   6.839  0.1808 -0.1609  0.1308
  131OSM    H6S14079   6.623   5.062   6.865  0.2867  0.2784 -1.6468
  131OSM    H6T14080   6.689   4.889   6.862  0.4996  0.3312  0.3975
  131OSM    C7S14081   6.484   4.920   6.930  0.5068  0.5297  0.0932
  131OSM    H7S14082   6.452   4.818   6.901 -0.1454  0.7106  0.1607
  131OSM    H7T14083   6.407   5.000   6.920 -0.0445  0.2338  1.7101
  131OSM    C8S14084   6.517   4.936   7.075 -0.6448 -0.7159  0.0457
  131OSM    H8S14085   6.517   5.039   7.116  0.2879 -0.7948  0.2702
  131OSM    H8T14086   6.621   4.898   7.089  0.3713  1.5434 -0.8247
  131OSM    C9S14087   6.421   4.849   7.148 -0.0349  1.3424  0.7260
  131OSM    H9S14088   6.426   4.741   7.123  0.3430  1.6952 -0.8159
  131OSM    H9T14089   6.316   4.881   7.130 -1.4726 -3.2532 -0.1815
  131OSM   C10S14090   6.439   4.866   7.294 -0.5165 -0.3254 -0.7897
  131OSM   H10S14091   6.422   4.972   7.321 -0.0267  0.1005 -2.0973
  131OSM   H10T14092   6.546   4.841   7.312 -0.6287 -3.2823 -3.2807
  131OSM   C11S14093   6.348   4.783   7.387  0.2851  0.6215 -0.2272
  131OSM   H11S14094   6.373   4.675   7.376 -2.2534 -0.1925  1.1540
  131OSM   H11T14095   6.244   4.773   7.350  0.4182  0.8650 -0.6714
  131OSM   C12S14096   6.352   4.810   7.535  0.3442 -0.3029 -0.2359
  131OSM   H12S14097   6.262   4.767   7.583  0.1113  0.0579 -0.3535
  131OSM   H12T14098   6.340   4.919   7.550 -1.9788 -0.6181  0.6123
  131OSM   C13S14099   6.475   4.751   7.618 -0.1826 -0.5369  0.1335
  131OSM   H13S14100   6.572   4.780   7.572 -0.8322  0.3673 -0.7258
  131OSM   H13T14101   6.467   4.640   7.613  1.9706 -0.9284  2.9086
  131OSM   C14S14102   6.478   4.788   7.769  0.2903 -0.3272  0.2287
  131OSM   H14S14103   6.380   4.748   7.805 -0.9143  0.2363 -2.1831
  131OSM   H14T14104   6.466   4.898   7.781  1.1999 -0.4208  2.3512
  131OSM   C15S14105   6.596   4.743   7.855  0.3490 -0.4376  0.0923
  131OSM   H15S14106   6.684   4.794   7.812 -0.7341  0.7288 -0.8341
  131OSM   H15T14107   6.606   4.633   7.843  0.7146 -0.4097  0.1464
  131OSM   C16S14108   6.584   4.760   8.007  0.2725  0.4067  0.2517
  131OSM   H16S14109   6.689   4.740   8.036  0.1155 -0.8640  0.0232
  131OSM   H16T14110   6.518   4.680   8.048  0.6665  0.0889  0.2734
  131OSM   C17S14111   6.536   4.895   8.060 -0.5701 -0.1371  0.0006
  131OSM   H17S14112   6.524   4.879   8.170  0.1568  0.2665  0.1413
  131OSM   H17T14113   6.435   4.913   8.017 -0.3954  1.5440  0.1989
  131OSM   C18S14114   6.626   5.017   8.031  0.2218 -1.2049  0.0566
  131OSM   H18S14115   6.596   5.100   8.100 -0.4300  0.0684 -1.6985
  131OSM   H18T14116   6.606   5.051   7.927 -0.4897  0.4359  0.6837
  131OSM   H18U14117   6.735   4.997   8.041  0.6418  0.5986 -0.5553
  131OSM    C1F14118   6.482   4.535   6.474 -1.0637 -0.3418  0.1313
  131OSM     OF14119   6.571   4.521   6.392  0.0044 -0.5455  0.1151
  131OSM    C2F14120   6.415   4.422   6.544  0.7577  0.8527  0.0354
  131OSM    H2F14121   6.335   4.381   6.479  1.2067 -0.9887  0.5768
  131OSM    H2G14122   6.387   4.461   6.644  1.6633  0.7073  0.3538
  131OSM    C3F14123   6.508   4.294   6.549 -0.3628  0.0483 -0.6084
  131OSM    H3F14124   6.603   4.318   6.599 -0.2281 -0.0446 -0.8163
  131OSM    H3G14125   6.520   4.260   6.443  0.8497 -2.3301  0.2307
  131OSM    C4F14126   6.466   4.175   6.640  0.0114  0.0258  0.1309
  131OSM    H4F14127   6.546   4.099   6.655  1.8952  1.6267 -1.1506
  131OSM    H4G14128   6.402   4.115   6.572  0.9219 -0.0082 -0.7186
  131OSM    C5F14129   6.388   4.212   6.771  0.3683  0.3466 -0.0589
  131OSM    H5F14130   6.295   4.267   6.743  0.3218  0.6721  0.7139
  131OSM    H5G14131   6.453   4.289   6.818 -0.0802  1.2041 -0.8163
  131OSM    C6F14132   6.344   4.093   6.859  0.4419  0.1889  0.9961
  131OSM    H6F14133   6.342   4.004   6.793  0.7111  0.3928  0.7074
  131OSM    H6G14134   6.242   4.115   6.896  0.8346  2.0347  1.0659
  131OSM    C7F14135   6.455   4.073   6.967 -0.1727 -0.0154  0.5583
  131OSM    H7F14136   6.464   4.160   7.035  2.2677  1.0225 -0.9450
  131OSM    H7G14137   6.553   4.074   6.915 -0.3847  0.3562  0.1502
  131OSM    C8F14138   6.437   3.945   7.055 -0.6078 -0.5482  0.1644
  131OSM    H8F14139   6.523   3.944   7.125  0.2463  1.2474 -0.7733
  131OSM    H8G14140   6.458   3.857   6.992 -0.4162  0.0228 -0.5866
  131OSM    C9F14141   6.307   3.932   7.124  0.3196 -0.4877 -0.1470
  131OSM    H9F14142   6.213   3.948   7.068 -0.7853  1.2187  2.0660
  131OSM   C10F14143   6.299   3.915   7.257  0.0438 -0.1988 -0.4543
  131OSM   H10F14144   6.203   3.890   7.304  0.7120 -0.0830  1.0586
  131OSM   C11F14145   6.407   3.904   7.363 -0.0229 -0.8323  0.2393
  131OSM   H11F14146   6.507   3.937   7.327 -0.3432  2.1135  1.7465
  131OSM   H11G14147   6.421   3.799   7.396 -1.8320 -1.3464 -0.4948
  131OSM   C12F14148   6.398   3.994   7.480 -0.2274 -0.1339 -0.7998
  131OSM   H12F14149   6.304   3.968   7.533 -0.5973  2.2043 -0.1837
  131OSM   H12G14150   6.386   4.102   7.455 -1.1093  0.0419  0.2707
  131OSM   C13F14151   6.516   3.983   7.583  0.3598 -0.1482 -0.2940
  131OSM   H13F14152   6.610   4.012   7.532  0.0507 -0.4290 -1.0486
  131OSM   H13G14153   6.537   3.885   7.630 -0.6015 -1.0394 -1.6420
  131OSM   C14F14154   6.490   4.085   7.705  0.8679 -0.2129  0.3273
  131OSM   H14F14155   6.382   4.075   7.731  0.0338  2.2365 -1.8105
  131OSM   H14G14156   6.512   4.188   7.671  1.4526 -1.2796 -2.8813
  131OSM   C15F14157   6.569   4.055   7.832  0.2676  0.1693  0.1484
  131OSM   H15F14158   6.546   3.951   7.863 -0.8604 -0.1314 -1.5970
  131OSM   H15G14159   6.533   4.121   7.914 -1.7329 -0.4404 -0.1832
  131OSM   C16F14160   6.723   4.068   7.807 -0.1518  0.1195 -0.3193
  131OSM   H16F14161   6.742   4.158   7.745  0.2295 -0.4387 -1.0251
  131OSM   H16G14162   6.751   3.984   7.740  0.9911 -0.5017  0.8991
  131OSM   C17F14163   6.798   4.070   7.936 -0.1094 -0.9974  0.6678
  131OSM   H17F14164   6.761   3.985   7.998 -2.1393 -0.3181  0.4540
  131OSM   H17G14165   6.773   4.171   7.975 -0.1720 -0.7814  0.0756
  131OSM   C18F14166   6.952   4.060   7.929  1.0587 -0.7397  0.5142
  131OSM   H18F14167   6.986   4.126   7.847 -1.0120 -0.6892 -0.3702
  131OSM   H18G14168   6.971   3.956   7.895 -0.4631 -0.7175 -0.4999
  131OSM   H18H14169   7.008   4.076   8.023  0.0610  3.7520  0.5679
  132OSM      N14170   3.965   1.793   5.813  0.5031  0.0026 -0.6444
  132OSM    C1514171   3.878   1.815   5.691 -0.3201  0.0518  0.8079
  132OSM   H15A14172   3.788   1.863   5.727 -0.5669  0.5396 -0.4136
  132OSM   H15B14173   3.836   1.723   5.653 -0.4526 -0.0222  1.1314
  132OSM   H15C14174   3.921   1.882   5.618  1.1383 -1.0381  0.6065
  132OSM    C1414175   3.897   1.713   5.916 -0.3910 -0.6093 -0.1109
  132OSM   H14A14176   3.873   1.613   5.881  1.6712 -1.3218  0.4140
  132OSM   H14B14177   3.811   1.768   5.952  1.0866  0.6865  1.6084
  132OSM   H14C14178   3.969   1.715   5.996  1.3644  2.2157 -1.6125
  132OSM    C1314179   4.079   1.702   5.765  0.1978 -0.9472 -0.5920
  132OSM   H13A14180   4.147   1.755   5.700 -0.6874  0.3935 -0.4719
  132OSM   H13B14181   4.038   1.621   5.707 -0.9870 -1.2899  0.6696
  132OSM   H13C14182   4.134   1.673   5.853  1.5056  1.2079 -0.6110
  132OSM    C1214183   4.022   1.919   5.871  0.2016 -0.3750 -0.0802
  132OSM   H12A14184   3.953   1.959   5.944  1.4968  0.9906  0.4438
  132OSM   H12B14185   4.037   1.992   5.793  2.6907  1.0658  1.6168
  132OSM    C1114186   4.153   1.912   5.941  0.1323 -0.3693 -0.0906
  132OSM   H11A14187   4.187   2.006   5.988 -0.5314  0.3709 -1.0696
  132OSM   H11B14188   4.232   1.883   5.868  0.1784  1.1437 -0.6762
  132OSM      P14189   4.264   1.776   6.141 -0.0129 -0.1654 -0.0690
  132OSM    O1314190   4.202   1.682   6.238  0.1088 -0.4974  0.4636
  132OSM    O1414191   4.387   1.735   6.068 -0.2509  0.0391 -0.6195
  132OSM    O1114192   4.293   1.911   6.213 -0.3460 -0.5511  1.1204
  132OSM    O1214193   4.148   1.812   6.045  0.3275  0.1215 -0.1036
  132OSM    C1S14194   4.199   2.019   6.238 -0.6703  0.1910  0.5259
  132OSM    H1S14195   4.094   1.994   6.211 -0.7708  1.5020 -0.3981
  132OSM    H1T14196   4.232   2.110   6.183 -1.4904 -0.5918 -1.3339
  132OSM     NF14197   4.088   2.156   6.409  0.5533  0.4841 -0.2504
  132OSM    HNF14198   4.105   2.254   6.401 -3.9830  1.7629  2.0667
  132OSM    C2S14199   4.185   2.057   6.392 -0.0968  0.8085  0.6830
  132OSM    H2S14200   4.147   1.966   6.443  0.5674 -0.4474 -0.9509
  132OSM    C3S14201   4.327   2.086   6.453  0.1139  0.0751 -0.8099
  132OSM    H3S14202   4.364   2.179   6.405  0.8254 -0.4229 -1.2384
  132OSM     O314203   4.433   1.995   6.413  0.3620  0.1704  0.2945
  132OSM    HO314204   4.389   1.942   6.346  0.3824 -0.3036  0.6505
  132OSM    C4S14205   4.323   2.107   6.600  0.5142  0.0116  0.5907
  132OSM    H4S14206   4.312   2.215   6.619  0.0615 -0.3576  2.7293
  132OSM    C5S14207   4.317   2.024   6.707  0.3431  0.2398 -0.0495
  132OSM    H5S14208   4.318   1.916   6.689 -1.3683  0.1890 -0.0562
  132OSM    C6S14209   4.323   2.053   6.855 -0.6201 -1.0811 -0.4269
  132OSM    H6S14210   4.418   2.011   6.894  0.5878  1.5539 -0.2898
  132OSM    H6T14211   4.238   2.009   6.911 -0.4170  0.0723  0.8354
  132OSM    C7S14212   4.340   2.202   6.890  0.7278  0.4282 -0.6396
  132OSM    H7S14213   4.257   2.262   6.848 -1.3754 -2.5064 -0.9840
  132OSM    H7T14214   4.435   2.248   6.857 -0.2007  3.5383  0.6608
  132OSM    C8S14215   4.346   2.225   7.040 -0.6507 -0.5550  0.4903
  132OSM    H8S14216   4.257   2.174   7.083 -1.8022 -1.0033 -2.2298
  132OSM    H8T14217   4.339   2.330   7.074 -3.1063 -0.0670 -1.2799
  132OSM    C9S14218   4.481   2.191   7.108  0.0684  0.5668 -0.0684
  132OSM    H9S14219   4.557   2.255   7.059 -0.4486  1.9755  0.9058
  132OSM    H9T14220   4.497   2.084   7.081 -0.5586  0.3465  0.4052
  132OSM   C10S14221   4.475   2.210   7.259  0.1315 -0.0144  0.2206
  132OSM   H10S14222   4.396   2.154   7.314  1.0255 -1.1300  0.3991
  132OSM   H10T14223   4.455   2.315   7.290  0.3454 -0.2144  1.0700
  132OSM   C11S14224   4.606   2.171   7.324 -0.3465  0.1782  0.3938
  132OSM   H11S14225   4.690   2.229   7.281  0.2621  0.3067  1.7255
  132OSM   H11T14226   4.631   2.068   7.291  2.2359  1.1570 -0.9817
  132OSM   C12S14227   4.597   2.183   7.479 -0.4114  0.7661 -0.0549
  132OSM   H12S14228   4.546   2.282   7.487 -0.2801  0.7944  0.4499
  132OSM   H12T14229   4.697   2.183   7.525 -0.3541  1.6991 -0.1469
  132OSM   C13S14230   4.517   2.067   7.535 -0.3668  0.2481  0.0634
  132OSM   H13S14231   4.563   1.972   7.499  1.7954  1.8625 -1.7787
  132OSM   H13T14232   4.416   2.075   7.491 -0.3126  1.7301  0.1704
  132OSM   C14S14233   4.510   2.069   7.691  0.7719 -0.8274  0.7659
  132OSM   H14S14234   4.444   1.983   7.711 -2.8288  1.1156 -1.6158
  132OSM   H14T14235   4.456   2.161   7.723  1.3671  0.7632 -2.3751
  132OSM   C15S14236   4.645   2.053   7.757  0.8197  0.3798 -0.0976
  132OSM   H15S14237   4.725   2.122   7.724  2.5901 -0.3049  2.4496
  132OSM   H15T14238   4.671   1.948   7.730  1.0805  0.5690 -0.5830
  132OSM   C16S14239   4.626   2.074   7.915 -0.0364  0.6025  0.0001
  132OSM   H16S14240   4.548   2.001   7.943  0.4318  0.3501  0.6775
  132OSM   H16T14241   4.595   2.178   7.939 -2.0587 -0.2317  1.2271
  132OSM   C17S14242   4.754   2.045   7.990 -0.2973 -0.5812 -0.0868
  132OSM   H17S14243   4.833   2.115   7.954 -1.3887  0.2967 -0.8717
  132OSM   H17T14244   4.795   1.943   7.979  1.5290 -0.2369  2.6030
  132OSM   C18S14245   4.740   2.072   8.138 -0.0224  0.3278  0.3120
  132OSM   H18S14246   4.661   2.001   8.171  0.8371 -0.8960 -0.2112
  132OSM   H18T14247   4.703   2.174   8.162 -0.1376  1.0829 -2.7437
  132OSM   H18U14248   4.831   2.053   8.198 -0.0387  1.2733  0.6651
  132OSM    C1F14249   3.961   2.129   6.399  1.0326  0.5380  0.1468
  132OSM     OF14250   3.923   2.013   6.394 -0.2434  0.3754  0.4468
  132OSM    C2F14251   3.870   2.250   6.384  0.0854 -0.0803  0.9603
  132OSM    H2F14252   3.809   2.236   6.292  0.7195  0.3411  0.4755
  132OSM    H2G14253   3.931   2.341   6.371  1.6241 -0.9332  1.8620
  132OSM    C3F14254   3.772   2.272   6.503 -0.2448  0.2308 -0.2333
  132OSM    H3F14255   3.733   2.172   6.533 -0.7408  0.5565  0.2039
  132OSM    H3G14256   3.691   2.336   6.462  1.1812  0.2925 -3.2011
  132OSM    C4F14257   3.840   2.349   6.612 -0.4405 -0.4491 -0.3754
  132OSM    H4F14258   3.765   2.385   6.687 -0.5143  0.8563 -1.0499
  132OSM    H4G14259   3.883   2.440   6.565 -2.8258 -0.0305 -1.9115
  132OSM    C5F14260   3.945   2.276   6.691 -0.6367  0.1012  0.2435
  132OSM    H5F14261   4.035   2.277   6.626 -0.1104 -2.7587  0.8166
  132OSM    H5G14262   3.929   2.169   6.715 -1.0175 -0.0608 -0.6701
  132OSM    C6F14263   3.981   2.355   6.821 -0.2774 -0.3877  0.1924
  132OSM    H6F14264   4.066   2.303   6.869 -1.0260 -1.1910  0.6874
  132OSM    H6G14265   3.898   2.356   6.895  1.1079  3.6250  1.9669
  132OSM    C7F14266   4.017   2.509   6.809  0.5353  0.3046  0.4772
  132OSM    H7F14267   3.922   2.548   6.768 -0.3682 -2.5157 -0.3483
  132OSM    H7G14268   4.103   2.525   6.741 -0.4575 -1.6298 -1.3505
  132OSM    C8F14269   4.031   2.577   6.944  0.2972  0.1745  0.0146
  132OSM    H8F14270   3.969   2.523   7.018  1.5915  1.6802  2.3207
  132OSM    H8G14271   3.978   2.674   6.935  1.1857  0.6851  0.1433
  132OSM    C9F14272   4.175   2.596   6.995 -0.7751  0.2626  0.6638
  132OSM    H9F14273   4.256   2.609   6.922 -0.5925  0.0889  0.8349
  132OSM   C10F14274   4.211   2.612   7.120 -0.2593 -0.8754 -0.8739
  132OSM   H10F14275   4.316   2.638   7.138 -0.4009 -1.4771  1.0153
  132OSM   C11F14276   4.120   2.602   7.237 -1.0490 -0.2427 -0.7160
  132OSM   H11F14277   4.020   2.564   7.210 -0.9843 -0.7714 -0.2154
  132OSM   H11G14278   4.100   2.700   7.287  1.9399  0.1129 -0.0178
  132OSM   C12F14279   4.174   2.519   7.353 -0.1135 -0.3177 -0.1435
  132OSM   H12F14280   4.206   2.418   7.319  0.7135 -0.3735  0.7388
  132OSM   H12G14281   4.091   2.495   7.423  0.5199  0.8914  1.0541
  132OSM   C13F14282   4.279   2.582   7.449  0.1333 -0.4998 -0.3646
  132OSM   H13F14283   4.244   2.681   7.486  2.3523  0.6808 -1.2468
  132OSM   H13G14284   4.365   2.599   7.381 -0.0311  0.9773 -0.2340
  132OSM   C14F14285   4.304   2.496   7.580 -0.9022 -0.0194 -0.1561
  132OSM   H14F14286   4.311   2.390   7.549 -0.3090 -0.7046  2.1320
  132OSM   H14G14287   4.214   2.496   7.645 -0.1294 -1.2703  0.9542
  132OSM   C15F14288   4.435   2.527   7.652 -0.7529 -0.6222 -0.1098
  132OSM   H15F14289   4.462   2.635   7.654  3.6547 -1.5352 -0.5672
  132OSM   H15G14290   4.518   2.468   7.608 -0.0650  0.1610  0.1181
  132OSM   C16F14291   4.410   2.496   7.800 -0.4350 -0.7041 -0.4858
  132OSM   H16F14292   4.397   2.386   7.803  0.8841 -0.8624  0.4602
  132OSM   H16G14293   4.324   2.559   7.828 -0.0581 -0.5827  0.4332
  132OSM   C17F14294   4.521   2.530   7.909 -0.5318 -0.4535 -0.1865
  132OSM   H17F14295   4.495   2.495   8.011 -0.2689  2.5357  0.9990
  132OSM   H17G14296   4.532   2.641   7.909 -1.4348 -0.3607 -0.3022
  132OSM   C18F14297   4.667   2.485   7.884 -0.4113  0.2397 -0.1512
  132OSM   H18F14298   4.670   2.374   7.887  1.0896  0.2715  1.7981
  132OSM   H18G14299   4.737   2.519   7.963  0.0457 -1.4070  0.2067
  132OSM   H18H14300   4.711   2.522   7.789  1.4316 -0.3120  0.4481
  133SAPE     N14301   3.661   1.191  10.645  0.3023 -0.2174 -0.1120
  133SAPE   HN114302   3.745   1.248  10.666  1.5344 -1.0536 -2.5124
  133SAPE   HN214303   3.622   1.226  10.555  0.1812 -0.0941 -0.0123
  133SAPE   HN314304   3.593   1.211  10.721 -0.2098 -2.6081  0.1394
  133SAPE   C1214305   3.717   1.052  10.645  0.1759  0.1942  0.0070
  133SAPE  H12A14306   3.735   1.021  10.540 -1.3994  0.5161 -0.3768
  133SAPE  H12B14307   3.639   0.979  10.676 -0.2068  0.2194 -0.8596
  133SAPE   C1114308   3.848   1.042  10.730 -0.3561 -0.3155 -0.5941
  133SAPE  H11A14309   3.827   1.037  10.839  2.2152  1.8491  0.1028
  133SAPE  H11B14310   3.917   1.125  10.706  0.4963  0.2320  3.1972
  133SAPE     P14311   4.052   0.892  10.738 -0.2798  0.2916 -0.0417
  133SAPE   O1314312   4.140   1.008  10.717 -0.1481 -0.4813  0.1750
  133SAPE   O1414313   4.048   0.836  10.874 -0.0533  0.6960 -0.1344
  133SAPE   O1214314   3.908   0.922  10.685  0.3537  0.0801 -0.9005
  133SAPE   O1114315   4.109   0.772  10.642 -0.5798  0.1231  0.3368
  133SAPE    C114316   4.091   0.785  10.502 -0.0432 -0.5459  0.1228
  133SAPE    HA14317   4.093   0.680  10.467 -0.7385 -1.0922  1.6186
  133SAPE    HB14318   3.998   0.839  10.475  0.6183 -0.0128 -1.1592
  133SAPE    C214319   4.212   0.845  10.431 -0.7323 -0.3288  0.0335
  133SAPE    HS14320   4.213   0.945  10.480 -0.4324  0.0314 -0.7012
  133SAPE   O2114321   4.193   0.847  10.295 -0.2110  0.2543  0.5914
  133SAPE   C2114322   4.258   0.942  10.227 -0.1828 -0.6876  0.4966
  133SAPE   O2214323   4.325   1.031  10.277 -0.2677 -0.2720  0.1337
  133SAPE   C2214324   4.236   0.918  10.076 -0.5854 -0.1487 -0.1164
  133SAPE   H2R14325   4.341   0.922  10.041  0.4834 -1.5660  2.6574
  133SAPE   H2S14326   4.187   0.819  10.062  1.2002 -0.9021 -1.3902
  133SAPE    C314327   4.346   0.771  10.471 -0.3131  0.1057  0.2756
  133SAPE    HX14328   4.329   0.661  10.474  2.5624 -0.3985  1.0312
  133SAPE    HY14329   4.357   0.803  10.577 -0.2697  0.0956  0.2742
  133SAPE   O3114330   4.460   0.803  10.388 -0.3778 -0.0132  0.2980
  133SAPE   C3114331   4.568   0.832  10.450  0.5875 -0.5313 -0.3040
  133SAPE   O3214332   4.577   0.869  10.565  0.5645 -0.1939 -0.1790
  133SAPE   C3214333   4.689   0.833  10.350 -0.3480  0.1114 -0.0568
  133SAPE   H2X14334   4.733   0.732  10.352  0.2723  0.3773  1.3994
  133SAPE   H2Y14335   4.763   0.905  10.393 -0.1773  0.7617 -1.3904
  133SAPE   C2314336   4.148   1.025  10.004 -0.2524 -0.0807 -0.3314
  133SAPE   H3R14337   4.196   1.124  10.019 -0.2333  0.0025 -0.9248
  133SAPE   H3S14338   4.046   1.033  10.047  0.0601  0.9160  0.2389
  133SAPE   C2414339   4.138   0.999   9.852 -0.0130 -0.2460 -0.6807
  133SAPE   H4R14340   4.097   0.897   9.841 -1.9582  0.3177  0.7699
  133SAPE   H4S14341   4.244   0.991   9.820  0.8458 -2.3200  2.2630
  133SAPE   C2514342   4.068   1.103   9.769  0.6407 -0.6921  0.5206
  133SAPE   H5R14343   4.030   1.190   9.826 -0.8330 -2.0413  1.7256
  133SAPE   C2614344   4.067   1.105   9.640  0.0667  0.0526  0.1954
  133SAPE   H6R14345   4.017   1.190   9.590  0.8707 -0.0363 -0.8131
  133SAPE   C2714346   4.142   1.011   9.551  0.0730  0.4390  0.9186
  133SAPE   H7R14347   4.069   0.967   9.479  0.2949 -0.9337  1.5009
  133SAPE   H7S14348   4.187   0.925   9.606 -2.4043 -1.4587  0.1963
  133SAPE   C2814349   4.246   1.092   9.480 -0.2223  0.1914 -0.0107
  133SAPE   H8R14350   4.325   1.132   9.545 -0.4523  0.0130  0.3804
  133SAPE   C2914351   4.267   1.101   9.348 -0.4192 -0.0404 -0.3047
  133SAPE   H9R14352   4.356   1.148   9.303 -0.7798  1.8915  0.8957
  133SAPE  C21014353   4.177   1.034   9.245 -0.0426  0.2807 -0.5377
  133SAPE  H10R14354   4.167   1.115   9.171  2.2784  2.5276  1.4219
  133SAPE  H10S14355   4.077   1.007   9.285  0.1331  1.7412  0.9710
  133SAPE  C21114356   4.237   0.916   9.188 -0.0472 -0.7580  0.0838
  133SAPE  H11R14357   4.308   0.862   9.253 -0.4296 -2.6768 -1.0055
  133SAPE  C21214358   4.229   0.872   9.062  0.2016 -0.0767  0.1730
  133SAPE  H12R14359   4.282   0.780   9.034 -0.7909 -0.4919 -0.4427
  133SAPE  C21314360   4.136   0.935   8.959 -0.4488 -0.1812  0.2891
  133SAPE  H13R14361   4.077   1.020   9.000 -0.2296 -0.3924  1.0424
  133SAPE  H13S14362   4.067   0.859   8.916 -0.2660 -1.1512  1.6477
  133SAPE  C21414363   4.226   0.994   8.843  0.9737  0.9408  0.5100
  133SAPE  H14R14364   4.297   0.932   8.787  0.4475  2.1576 -1.6240
  133SAPE  C21514365   4.223   1.122   8.803  0.5025 -0.4016 -0.1035
  133SAPE  H15R14366   4.275   1.152   8.711 -0.5012 -0.5744 -0.7429
  133SAPE  C21614367   4.149   1.234   8.867  0.2025  0.2306  0.1722
  133SAPE  H16R14368   4.204   1.328   8.887  2.5129 -1.0006 -0.0907
  133SAPE  H16S14369   4.139   1.205   8.973  0.8252 -0.6520 -0.0006
  133SAPE  C21714370   4.004   1.249   8.820  0.0679 -0.3518  0.8481
  133SAPE  H17R14371   3.959   1.341   8.861 -1.5728 -0.1819 -1.1739
  133SAPE  H17S14372   3.947   1.163   8.862 -0.4319 -1.7773 -2.4356
  133SAPE  C21814373   3.986   1.243   8.665 -0.1543  0.1940 -0.5574
  133SAPE  H18R14374   4.059   1.168   8.626  1.1070  0.8397  0.4909
  133SAPE  H18S14375   4.025   1.341   8.629  0.3201  0.0278 -0.4965
  133SAPE  C21914376   3.835   1.224   8.635 -0.5087 -1.3285  0.2456
  133SAPE  H19R14377   3.774   1.315   8.659 -2.6278 -2.0201 -2.0984
  133SAPE  H19S14378   3.801   1.136   8.694 -1.1434 -0.6444  0.9255
  133SAPE  C22014379   3.815   1.204   8.487 -0.4288 -0.2466 -0.0939
  133SAPE  H20R14380   3.709   1.207   8.455 -0.3719 -1.6095 -0.4690
  133SAPE  H20S14381   3.848   1.104   8.453  1.5713  0.2925  0.0897
  133SAPE  H20T14382   3.872   1.279   8.426 -1.2721  0.4621 -0.0286
  133SAPE   C3314383   4.653   0.892  10.213  0.4850  0.3149 -0.1075
  133SAPE   H3X14384   4.618   0.996  10.227 -1.8920 -0.1860 -1.8243
  133SAPE   H3Y14385   4.560   0.844  10.175  0.6831 -0.1341 -0.0387
  133SAPE   C3414386   4.768   0.868  10.112  0.0198  0.2163 -0.3836
  133SAPE   H4X14387   4.779   0.763  10.077 -0.1053  0.0349  0.1104
  133SAPE   H4Y14388   4.857   0.907  10.166 -0.4692  0.6972  0.0807
  133SAPE   C3514389   4.770   0.955   9.982 -0.1413 -0.6393  0.1942
  133SAPE   H5X14390   4.784   1.060  10.018  0.7046 -0.5862 -0.2670
  133SAPE   H5Y14391   4.669   0.945   9.939  0.7601 -3.6282 -1.5020
  133SAPE   C3614392   4.876   0.912   9.876 -0.1596  0.0470  0.4620
  133SAPE   H6X14393   4.872   0.801   9.867 -0.9911  0.1837 -1.3131
  133SAPE   H6Y14394   4.972   0.938   9.924  0.9049 -1.9434 -0.4441
  133SAPE   C3714395   4.873   0.970   9.733  0.4193 -0.0761 -0.0833
  133SAPE   H7X14396   4.883   1.080   9.723 -0.8572  0.1866  1.2926
  133SAPE   H7Y14397   4.770   0.950   9.697  0.9370 -1.1796 -0.9969
  133SAPE   C3814398   4.971   0.892   9.648  0.7888  0.0554 -0.0295
  133SAPE   H8X14399   4.935   0.789   9.625  0.4303 -0.1574  1.3351
  133SAPE   H8Y14400   5.071   0.884   9.694  0.6242 -0.3919  0.2570
  133SAPE   C3914401   4.984   0.949   9.510 -0.2724  0.3053  0.3871
  133SAPE   H9X14402   4.962   1.058   9.511 -3.0337 -0.1889  2.3903
  133SAPE   H9Y14403   4.903   0.915   9.442  0.0600  1.0184 -0.3876
  133SAPE  C31014404   5.112   0.906   9.443 -0.0131 -0.7275  0.3950
  133SAPE  H10X14405   5.104   0.795   9.435 -0.3872 -0.7488  1.0489
  133SAPE  H10Y14406   5.208   0.935   9.491 -0.7087  1.7281  0.4101
  133SAPE  C31114407   5.114   0.957   9.300  0.3778 -0.0376 -0.4634
  133SAPE  H11X14408   5.108   1.068   9.298 -1.0054 -0.1054 -1.5445
  133SAPE  H11Y14409   5.037   0.916   9.232  2.2577  0.1991 -2.8413
  133SAPE  C31214410   5.245   0.921   9.223  0.5259 -0.4786 -0.7965
  133SAPE  H12X14411   5.268   0.814   9.203  0.6392 -0.5618 -0.2337
  133SAPE  H12Y14412   5.333   0.950   9.286  1.0009  1.5078 -2.2592
  133SAPE  C31314413   5.262   0.997   9.097  0.8358  0.1474  0.2501
  133SAPE  H13X14414   5.365   0.984   9.057  0.4191 -2.2693 -0.1939
  133SAPE  H13Y14415   5.219   1.094   9.130  0.2141 -0.6269  1.7953
  133SAPE  C31414416   5.171   0.944   8.983  0.2773 -0.5879 -0.0916
  133SAPE  H14X14417   5.067   0.945   9.022  0.2992  1.9352  0.0877
  133SAPE  H14Y14418   5.208   0.842   8.961  0.4107 -0.2456 -1.6084
  133SAPE  C31514419   5.167   1.025   8.853  0.7409 -0.0654  0.0417
  133SAPE  H15X14420   5.113   1.121   8.868  0.1306 -0.2458 -0.9112
  133SAPE  H15Y14421   5.114   0.955   8.784 -0.1756 -0.3926  1.0443
  133SAPE  C31614422   5.302   1.056   8.796 -0.5806  0.4363 -0.2366
  133SAPE  H16X14423   5.348   0.956   8.775 -0.7513  0.2908  0.0648
  133SAPE  H16Y14424   5.356   1.105   8.880 -2.3927  1.0605  0.6195
  133SAPE  C31714425   5.303   1.155   8.684 -0.2728  0.1236  0.5252
  133SAPE  H17X14426   5.268   1.259   8.702  0.5107  0.4589  0.1401
  133SAPE  H17Y14427   5.224   1.124   8.613 -2.3641 -1.2966  3.2391
  133SAPE  C31814428   5.429   1.167   8.599  0.0822 -0.1357 -0.6530
  133SAPE  H18X14429   5.502   1.227   8.657 -0.9120 -0.3345  0.8744
  133SAPE  H18Y14430   5.405   1.223   8.506 -0.0220  0.9843  0.0249
  133SAPE  H18Z14431   5.474   1.070   8.571 -0.3914 -1.0288  1.4553
  134SAPE     N14432   1.020   3.488  10.770  0.0395 -0.1977 -0.1505
  134SAPE   HN114433   1.004   3.580  10.816 -0.4844  0.9464 -2.4732
  134SAPE   HN214434   1.022   3.413  10.842 -1.3735  0.8258  1.0100
  134SAPE   HN314435   1.114   3.494  10.727 -0.9840  1.6210 -2.3612
  134SAPE   C1214436   0.912   3.456  10.666 -0.0569  0.1304 -0.1738
  134SAPE  H12A14437   0.930   3.539  10.595  0.9799  0.9959  1.0524
  134SAPE  H12B14438   0.817   3.456  10.723 -0.7164 -2.9169 -1.0659
  134SAPE   C1114439   0.927   3.317  10.599  0.3366 -0.0120  0.0413
  134SAPE  H11A14440   1.019   3.323  10.538  0.9420 -3.1878  0.4650
  134SAPE  H11B14441   0.841   3.308  10.530  0.0886  0.1403  0.3271
  134SAPE     P14442   0.825   3.125  10.750  0.3662 -0.0892 -0.9290
  134SAPE   O1314443   0.821   2.993  10.691  0.3090 -0.2164  0.2863
  134SAPE   O1414444   0.848   3.125  10.897  0.1032  0.4163  0.3906
  134SAPE   O1214445   0.946   3.202  10.687  0.6297 -0.3484  0.6593
  134SAPE   O1114446   0.692   3.211  10.723  0.3219 -0.0641  0.0802
  134SAPE    C114447   0.591   3.144  10.649  0.0695 -0.0531  0.4014
  134SAPE    HA14448   0.590   3.033  10.659  2.8921 -0.2721 -0.9152
  134SAPE    HB14449   0.496   3.167  10.702 -0.3207  1.0696 -0.7454
  134SAPE    C214450   0.585   3.179  10.502 -0.1187 -0.3881 -0.2702
  134SAPE    HS14451   0.685   3.169  10.454  0.9250 -0.0744  1.7422
  134SAPE   O2114452   0.538   3.317  10.508  0.5661  0.0611 -0.1891
  134SAPE   C2114453   0.601   3.399  10.419 -0.0626 -0.0072  0.1595
  134SAPE   O2214454   0.678   3.355  10.333  0.2135 -0.2160  0.8787
  134SAPE   C2214455   0.560   3.549  10.431  0.0933 -1.1283 -0.0465
  134SAPE   H2R14456   0.615   3.590  10.518  3.0734 -4.0049 -0.3534
  134SAPE   H2S14457   0.592   3.595  10.335 -0.6477  1.4753  0.8899
  134SAPE    C314458   0.478   3.109  10.428  0.4683  0.0657  0.3777
  134SAPE    HX14459   0.381   3.137  10.475  0.1235  3.5189 -1.9910
  134SAPE    HY14460   0.494   2.999  10.433  1.4587  0.0945 -1.3285
  134SAPE   O3114461   0.460   3.162  10.294 -0.1567  0.1085  0.2322
  134SAPE   C3114462   0.549   3.131  10.207  0.5699  0.5584  0.7944
  134SAPE   O3214463   0.639   3.043  10.210 -0.0685  0.1957  0.3298
  134SAPE   C3214464   0.521   3.221  10.088  0.2798 -0.1851 -0.0793
  134SAPE   H2X14465   0.507   3.324  10.126 -2.2817 -0.5365  0.1250
  134SAPE   H2Y14466   0.423   3.188  10.047 -0.0801 -0.6676  1.1294
  134SAPE   C2314467   0.408   3.574  10.434 -0.2665  0.0516  0.2240
  134SAPE   H3R14468   0.384   3.667  10.490  2.9103  0.9005  0.3726
  134SAPE   H3S14469   0.367   3.498  10.503 -0.5687 -0.5714 -0.6163
  134SAPE   C2414470   0.341   3.564  10.297  0.2100 -0.6787  0.0323
  134SAPE   H4R14471   0.231   3.554  10.306 -0.5457  2.7669 -3.1109
  134SAPE   H4S14472   0.362   3.462  10.256  0.9493 -0.1277 -1.0062
  134SAPE   C2514473   0.380   3.676  10.208  0.1753 -0.2510 -0.3987
  134SAPE   H5R14474   0.396   3.769  10.265 -1.8460  0.1894 -0.4801
  134SAPE   C2614475   0.374   3.674  10.072  1.0000 -0.1046  0.1342
  134SAPE   H6R14476   0.411   3.764  10.020 -2.0732  0.3489 -1.4466
  134SAPE   C2714477   0.340   3.557   9.977  0.2744  0.4473 -0.2219
  134SAPE   H7R14478   0.390   3.461  10.005  0.8730  0.8280  0.0263
  134SAPE   H7S14479   0.383   3.579   9.878 -2.3617  1.4773 -1.2249
  134SAPE   C2814480   0.188   3.538   9.968  1.1733  0.2327 -0.3250
  134SAPE   H8R14481   0.135   3.558  10.062 -1.4494 -0.0338 -1.6658
  134SAPE   C2914482   0.111   3.499   9.864 -0.1194 -0.2413 -0.6494
  134SAPE   H9R14483   0.002   3.505   9.880 -0.2081 -1.1241 -0.8777
  134SAPE  C21014484   0.159   3.477   9.731  0.5382  0.4056 -0.4360
  134SAPE  H10R14485   0.249   3.541   9.719 -0.3762  1.6921 -0.6805
  134SAPE  H10S14486   0.090   3.529   9.661  1.7622  0.1462 -1.9102
  134SAPE  C21114487   0.184   3.333   9.700  0.5142  0.1981  0.1132
  134SAPE  H11R14488   0.257   3.288   9.768 -0.3519  0.0311  0.9404
  134SAPE  C21214489   0.159   3.267   9.587 -0.7236  0.0610  0.5334
  134SAPE  H12R14490   0.200   3.165   9.587  1.4573  0.7596  3.8683
  134SAPE  C21314491   0.088   3.325   9.463 -0.5870  0.2694 -0.0229
  134SAPE  H13R14492  -0.006   3.367   9.506 -0.5519  2.1946 -1.6768
  134SAPE  H13S14493   0.055   3.243   9.396 -3.1234  0.6171  0.6909
  134SAPE  C21414494   0.171   3.432   9.395 -0.4409  0.0296  0.1026
  134SAPE  H14R14495   0.258   3.466   9.454 -0.8717 -0.0394  0.7879
  134SAPE  C21514496   0.153   3.492   9.277 -0.5729  0.4873 -0.0569
  134SAPE  H15R14497   0.233   3.561   9.248  1.2539 -1.2644  0.5839
  134SAPE  C21614498   0.044   3.475   9.171  0.1841  0.6007  0.2061
  134SAPE  H16R14499  -0.020   3.565   9.177 -2.1539 -0.9137 -0.6389
  134SAPE  H16S14500  -0.019   3.386   9.194 -0.7585  0.7793 -1.4833
  134SAPE  C21714501   0.099   3.467   9.026  0.0374 -1.0566 -0.7860
  134SAPE  H17R14502   0.183   3.394   9.024  1.3109  0.2617  0.8035
  134SAPE  H17S14503   0.155   3.560   9.000  1.3287 -1.8090 -0.7905
  134SAPE  C21814504  -0.007   3.436   8.920  0.1860  0.0590 -0.7231
  134SAPE  H18R14505   0.039   3.447   8.819  0.3335  0.3320 -0.6270
  134SAPE  H18S14506  -0.081   3.518   8.929  0.7987  0.5412  0.0470
  134SAPE  C21914507  -0.070   3.300   8.933  0.1661 -0.2300  0.7383
  134SAPE  H19R14508  -0.121   3.287   9.031 -0.0802 -1.2734  0.4912
  134SAPE  H19S14509   0.010   3.225   8.950  1.5569  0.7604 -1.0746
  134SAPE  C22014510  -0.153   3.265   8.819  0.1089 -0.2917 -0.4124
  134SAPE  H20R14511  -0.117   3.316   8.727 -2.4627  1.2873 -0.6302
  134SAPE  H20S14512  -0.258   3.287   8.847  0.7478  1.6291  0.7345
  134SAPE  H20T14513  -0.154   3.160   8.785  1.0388  0.2088 -2.0733
  134SAPE   C3314514   0.623   3.212   9.981 -0.4768  0.4095  0.6470
  134SAPE   H3X14515   0.655   3.106   9.976 -1.7525 -0.0796  2.2213
  134SAPE   H3Y14516   0.719   3.262  10.007 -0.5917  0.7760  0.3812
  134SAPE   C3414517   0.578   3.260   9.840  0.2339  0.5982  0.5507
  134SAPE   H4X14518   0.594   3.369   9.822  0.8942  0.2196 -1.4163
  134SAPE   H4Y14519   0.468   3.247   9.837  0.3563 -0.5368  0.7576
  134SAPE   C3514520   0.638   3.172   9.725  0.3475 -0.2008  0.9316
  134SAPE   H5X14521   0.612   3.067   9.751  1.8555 -0.5571  1.0534
  134SAPE   H5Y14522   0.748   3.182   9.735  0.3207 -0.8886  2.1074
  134SAPE   C3614523   0.583   3.208   9.587 -0.4664  0.1919  0.3358
  134SAPE   H6X14524   0.565   3.317   9.588 -0.2923  0.2239  1.3587
  134SAPE   H6Y14525   0.499   3.148   9.547  1.7905 -0.9983 -3.0460
  134SAPE   C3714526   0.687   3.189   9.478 -0.3890  0.0022  0.2664
  134SAPE   H7X14527   0.778   3.248   9.501 -0.8149 -0.0663  2.3492
  134SAPE   H7Y14528   0.654   3.239   9.385 -0.4737  0.1923  0.3970
  134SAPE   C3814529   0.711   3.043   9.447 -0.1430  0.4372 -0.5271
  134SAPE   H8X14530   0.618   2.989   9.417 -0.1509  0.3370 -0.3291
  134SAPE   H8Y14531   0.739   3.009   9.549  1.2432  1.5093 -0.5185
  134SAPE   C3914532   0.815   3.016   9.340  0.2062  0.2113 -0.1594
  134SAPE   H9X14533   0.855   2.913   9.346  0.6323  0.4501  1.9523
  134SAPE   H9Y14534   0.901   3.084   9.360  0.1197  0.7668 -1.5462
  134SAPE  C31014535   0.741   3.031   9.204  0.0088  0.5115  0.3516
  134SAPE  H10X14536   0.689   3.129   9.200  0.1040  0.5293 -2.0952
  134SAPE  H10Y14537   0.663   2.952   9.194 -0.2437  0.8868 -0.8691
  134SAPE  C31114538   0.842   3.028   9.087  0.4108  0.0270  0.6483
  134SAPE  H11X14539   0.774   3.056   9.004 -1.0736  0.4483  1.9642
  134SAPE  H11Y14540   0.887   2.927   9.074  2.4038  1.0801 -1.3909
  134SAPE  C31214541   0.962   3.130   9.099 -0.4257 -0.5721 -0.4656
  134SAPE  H12X14542   1.034   3.100   9.178 -0.4053  1.3265  0.2819
  134SAPE  H12Y14543   0.927   3.232   9.124  0.8214  0.3068 -2.0788
  134SAPE  C31314544   1.047   3.140   8.976  0.6662 -0.8545 -0.5850
  134SAPE  H13X14545   1.059   3.040   8.931 -0.3206 -0.4094 -1.8754
  134SAPE  H13Y14546   1.149   3.180   8.999  0.3127 -0.0670 -0.3595
  134SAPE  C31414547   0.984   3.218   8.859  1.0417 -0.1232 -0.2442
  134SAPE  H14X14548   0.951   3.315   8.901 -0.9186 -0.3009 -1.2710
  134SAPE  H14Y14549   0.905   3.159   8.809  2.9784 -2.1050 -1.1484
  134SAPE  C31514550   1.078   3.238   8.740 -0.2078 -0.0232 -0.4562
  134SAPE  H15X14551   1.120   3.138   8.716  0.7593  0.1581  0.3687
  134SAPE  H15Y14552   1.156   3.311   8.772 -0.2172  0.3896 -1.3532
  134SAPE  C31614553   1.012   3.297   8.620  0.5310 -0.3289  0.5439
  134SAPE  H16X14554   0.973   3.399   8.643  1.0522 -0.4126  1.9089
  134SAPE  H16Y14555   0.925   3.234   8.593  0.0540  0.4030  0.3481
  134SAPE  C31714556   1.098   3.299   8.505 -0.3885 -0.2607  0.3103
  134SAPE  H17X14557   1.195   3.346   8.529  0.9496 -1.5937 -2.0464
  134SAPE  H17Y14558   1.071   3.378   8.431  0.2582 -3.0718 -3.2024
  134SAPE  C31814559   1.120   3.163   8.423 -0.1474 -1.1998 -0.4178
  134SAPE  H18X14560   1.192   3.175   8.340  1.3710  1.5566  1.1561
  134SAPE  H18Y14561   1.024   3.135   8.374  0.2523 -0.1771 -1.8384
  134SAPE  H18Z14562   1.154   3.083   8.492  0.9983 -0.5879 -0.2579
  135SAPE     N14563   5.740   1.269  10.771  0.8749 -0.5511 -0.3443
  135SAPE   HN114564   5.700   1.174  10.769 -2.1773  0.6366 -2.1197
  135SAPE   HN214565   5.844   1.266  10.767  1.0509 -0.6881  2.4191
  135SAPE   HN314566   5.721   1.320  10.860  2.1557  0.8833 -0.8461
  135SAPE   C1214567   5.677   1.344  10.660 -0.2217  1.2158 -1.1109
  135SAPE  H12A14568   5.719   1.447  10.661  1.2677  0.6372 -0.8707
  135SAPE  H12B14569   5.566   1.350  10.665 -0.2452  1.3661 -1.6919
  135SAPE   C1114570   5.689   1.265  10.530 -0.1809  0.0387 -0.1437
  135SAPE  H11A14571   5.797   1.242  10.518 -0.2573 -1.5551  1.6388
  135SAPE  H11B14572   5.660   1.319  10.437 -0.4081  0.1105 -0.0311
  135SAPE     P14573   5.467   1.137  10.493  0.0546 -0.0747  0.0134
  135SAPE   O1314574   5.409   1.002  10.496 -0.0109  0.1181 -0.3907
  135SAPE   O1414575   5.394   1.236  10.569  0.2670  0.5367 -0.4856
  135SAPE   O1214576   5.618   1.134  10.537  0.3345  0.3830 -0.1530
  135SAPE   O1114577   5.464   1.175  10.342  0.6445  0.1394 -0.7199
  135SAPE    C114578   5.347   1.235  10.287 -0.0490 -0.4953 -0.0348
  135SAPE    HA14579   5.263   1.167  10.309  0.3582 -0.3760  2.1105
  135SAPE    HB14580   5.322   1.333  10.333 -0.8280  0.1863 -1.8119
  135SAPE    C214581   5.349   1.246  10.135  0.0887  0.1837  1.0638
  135SAPE    HS14582   5.275   1.316  10.089  0.5931  0.0933  0.0815
  135SAPE   O2114583   5.355   1.113  10.081 -0.0358  0.3494 -0.0355
  135SAPE   C2114584   5.240   1.048  10.064 -0.3110  0.1910  0.4910
  135SAPE   O2214585   5.127   1.096  10.067 -0.2808  0.1019 -0.3995
  135SAPE   C2214586   5.285   0.900  10.041 -0.4650 -0.2985  0.4880
  135SAPE   H2R14587   5.321   0.878  10.144 -0.6085 -0.3325  0.5304
  135SAPE   H2S14588   5.199   0.834  10.020 -0.7640 -0.4730  2.1004
  135SAPE    C314589   5.482   1.324  10.106 -0.0334  0.1257 -0.4842
  135SAPE    HX14590   5.559   1.258  10.150 -0.3195 -0.4778 -0.8631
  135SAPE    HY14591   5.477   1.423  10.155  0.5232 -0.1804  0.2013
  135SAPE   O3114592   5.486   1.329   9.960  0.3616  0.3031 -0.0870
  135SAPE   C3114593   5.609   1.367   9.914  0.2361  0.5098 -1.0535
  135SAPE   O3214594   5.698   1.407   9.988  0.4915 -0.3092 -1.1633
  135SAPE   C3214595   5.621   1.340   9.772 -0.0865  0.6622 -0.1611
  135SAPE   H2X14596   5.618   1.231   9.750  0.1090  0.4449  0.8326
  135SAPE   H2Y14597   5.713   1.388   9.734 -0.2895 -0.7041 -2.6172
  135SAPE   C2314598   5.395   0.884   9.929 -0.1957 -0.0777  0.2834
  135SAPE   H3R14599   5.438   0.781   9.929  1.5813  0.6185 -1.0193
  135SAPE   H3S14600   5.478   0.955   9.949  1.9180 -2.8011  1.9426
  135SAPE   C2414601   5.349   0.910   9.788  0.0109  0.2760  0.4222
  135SAPE   H4R14602   5.301   1.010   9.793  0.7815  0.7245 -0.7129
  135SAPE   H4S14603   5.276   0.835   9.753  2.6974 -1.2653 -2.4098
  135SAPE   C2514604   5.464   0.919   9.703  0.3258 -0.1507  0.4591
  135SAPE   H5R14605   5.510   1.019   9.707  0.3734 -0.1151 -0.6693
  135SAPE   C2614606   5.514   0.837   9.612 -0.3155 -0.7064 -0.5341
  135SAPE   H6R14607   5.610   0.863   9.565  0.2149 -1.9395 -0.1677
  135SAPE   C2714608   5.464   0.702   9.571 -0.5864 -0.1607 -0.1987
  135SAPE   H7R14609   5.381   0.674   9.640 -0.0764 -0.2505  0.3850
  135SAPE   H7S14610   5.537   0.621   9.590  1.1182  1.1816 -0.7872
  135SAPE   C2814611   5.415   0.698   9.429  0.3723 -0.5117  0.6073
  135SAPE   H8R14612   5.306   0.692   9.417  0.6379 -2.1636 -1.5520
  135SAPE   C2914613   5.484   0.682   9.315  0.5804 -0.2091 -0.0859
  135SAPE   H9R14614   5.417   0.660   9.230  1.9843 -0.3812 -1.1875
  135SAPE  C21014615   5.631   0.665   9.301 -0.3085  0.5356  0.6281
  135SAPE  H10R14616   5.671   0.617   9.393  0.1091 -0.5240 -0.0903
  135SAPE  H10S14617   5.668   0.769   9.293  0.9874  0.1367  1.2790
  135SAPE  C21114618   5.682   0.580   9.187  0.1446 -0.2869  0.1394
  135SAPE  H11R14619   5.711   0.475   9.201 -1.5797 -0.8528 -0.3391
  135SAPE  C21214620   5.701   0.618   9.059 -0.0990  1.3649 -0.3526
  135SAPE  H12R14621   5.723   0.536   8.988 -1.1726 -0.9069  1.7806
  135SAPE  C21314622   5.677   0.751   8.993  0.3755 -0.5073 -0.2957
  135SAPE  H13R14623   5.776   0.800   8.976  1.2966 -1.1476  2.6727
  135SAPE  H13S14624   5.631   0.817   9.069  1.3332  1.4367 -1.3147
  135SAPE  C21414625   5.590   0.748   8.870 -0.3128 -0.1373 -0.3937
  135SAPE  H14R14626   5.484   0.778   8.879 -0.6297 -0.6261 -2.1496
  135SAPE  C21514627   5.632   0.706   8.747  0.1369  0.3011  0.1122
  135SAPE  H15R14628   5.556   0.705   8.666 -0.1749  0.0133  0.4058
  135SAPE  C21614629   5.770   0.657   8.712 -0.4256  0.0564  0.2433
  135SAPE  H16R14630   5.792   0.558   8.759 -2.2034 -2.6649 -4.0446
  135SAPE  H16S14631   5.845   0.733   8.743 -0.4327  0.1917 -0.0638
  135SAPE  C21714632   5.807   0.641   8.561  0.2079  0.3428  0.2807
  135SAPE  H17R14633   5.916   0.617   8.561  0.4831  1.4313  2.3576
  135SAPE  H17S14634   5.771   0.733   8.511  0.9468  0.4460 -0.0718
  135SAPE  C21814635   5.743   0.516   8.490  0.3584 -0.9297 -0.3105
  135SAPE  H18R14636   5.785   0.517   8.387  1.3285 -1.5133  0.0599
  135SAPE  H18S14637   5.633   0.527   8.487  0.5744  1.7379 -0.7255
  135SAPE  C21914638   5.771   0.386   8.565  0.0582  0.2605  0.2427
  135SAPE  H19R14639   5.744   0.388   8.673 -2.3441 -3.1793 -0.1012
  135SAPE  H19S14640   5.880   0.364   8.565  0.3325  1.5366 -0.7571
  135SAPE  C22014641   5.687   0.272   8.513 -0.3732 -0.0374  0.7113
  135SAPE  H20R14642   5.682   0.198   8.596  0.4486  0.4226  1.1741
  135SAPE  H20S14643   5.724   0.227   8.419  0.9672  2.1837  0.0991
  135SAPE  H20T14644   5.588   0.318   8.495 -0.3523  0.0369  0.7844
  135SAPE   C3314645   5.512   1.404   9.684  0.2527  0.1552 -0.7921
  135SAPE   H3X14646   5.515   1.515   9.693 -1.7415  0.1068  1.8421
  135SAPE   H3Y14647   5.415   1.360   9.715  0.2482  1.4962  1.3155
  135SAPE   C3414648   5.533   1.391   9.528  0.2493  0.4542  0.1676
  135SAPE   H4X14649   5.602   1.475   9.503 -0.0445  0.2716 -1.3879
  135SAPE   H4Y14650   5.444   1.410   9.464  0.6724  1.0029 -0.2705
  135SAPE   C3514651   5.610   1.262   9.494  0.0296 -0.0866 -0.5152
  135SAPE   H5X14652   5.564   1.174   9.543 -0.8663  0.3958 -0.4629
  135SAPE   H5Y14653   5.712   1.271   9.535 -0.2392 -0.6272  0.3004
  135SAPE   C3614654   5.615   1.229   9.346  0.5979 -0.6659 -0.6618
  135SAPE   H6X14655   5.688   1.300   9.304  0.3633  0.9737  1.5654
  135SAPE   H6Y14656   5.518   1.250   9.294  0.2797  2.4199  0.9603
  135SAPE   C3714657   5.663   1.092   9.324  0.3147 -0.1231  1.2256
  135SAPE   H7X14658   5.588   1.018   9.361  0.0538 -0.6603 -0.3207
  135SAPE   H7Y14659   5.756   1.074   9.383  1.1886 -1.8525 -0.5480
  135SAPE   C3814660   5.682   1.057   9.173  0.2007  0.4245  0.1143
  135SAPE   H8X14661   5.578   1.041   9.137  0.2878 -0.2477  0.1534
  135SAPE   H8Y14662   5.735   0.961   9.154  1.3033  1.2224 -1.0564
  135SAPE   C3914663   5.751   1.161   9.081 -0.0245  0.4661  0.0240
  135SAPE   H9X14664   5.842   1.197   9.134  0.2680  0.5240 -0.5125
  135SAPE   H9Y14665   5.690   1.250   9.057  1.8771  1.2592 -2.2168
  135SAPE  C31014666   5.801   1.100   8.946 -0.1498  0.2009  0.1227
  135SAPE  H10X14667   5.721   1.086   8.870  1.7310  3.3974 -2.7312
  135SAPE  H10Y14668   5.845   1.002   8.976 -1.9946 -0.2487  1.4916
  135SAPE  C31114669   5.913   1.175   8.871  0.5029 -0.1720  0.6989
  135SAPE  H11X14670   5.945   1.127   8.776  1.7691  2.1158 -0.1061
  135SAPE  H11Y14671   6.000   1.178   8.939  1.4171  1.4275 -0.4559
  135SAPE  C31214672   5.868   1.319   8.835 -0.2313  0.2587  0.2295
  135SAPE  H12X14673   5.826   1.369   8.925  0.0677  1.2139 -0.1489
  135SAPE  H12Y14674   5.784   1.325   8.763  0.5716  1.9230 -0.6152
  135SAPE  C31314675   5.970   1.420   8.783 -0.7176  0.0296  0.9100
  135SAPE  H13X14676   6.070   1.412   8.830 -0.0536  2.0845 -0.0232
  135SAPE  H13Y14677   5.955   1.526   8.814  2.0957  0.1473  2.1895
  135SAPE  C31414678   5.990   1.404   8.632 -0.1281  0.2695  0.6100
  135SAPE  H14X14679   5.914   1.461   8.574  0.6213  0.9915  0.3128
  135SAPE  H14Y14680   5.980   1.295   8.614 -3.2440  0.1614  2.1952
  135SAPE  C31514681   6.135   1.438   8.583  0.0961 -0.5573  0.4148
  135SAPE  H15X14682   6.202   1.371   8.640  1.3713  1.1277  0.9533
  135SAPE  H15Y14683   6.162   1.541   8.614  2.9372 -2.1793  4.0244
  135SAPE  C31614684   6.144   1.416   8.435 -1.0064 -0.0624  0.6805
  135SAPE  H16X14685   6.047   1.440   8.387 -1.1953 -1.6388  0.2171
  135SAPE  H16Y14686   6.174   1.310   8.418  1.4024  0.5542  0.7078
  135SAPE  C31714687   6.260   1.490   8.372 -0.4120  0.7713 -0.1396
  135SAPE  H17X14688   6.359   1.462   8.414 -0.1553  0.0230 -1.1910
  135SAPE  H17Y14689   6.254   1.598   8.397  0.4276  0.9369 -0.6214
  135SAPE  C31814690   6.267   1.464   8.221  0.4134  0.2176 -0.8059
  135SAPE  H18X14691   6.342   1.534   8.180  0.1949  0.2093 -1.2211
  135SAPE  H18Y14692   6.168   1.478   8.171  0.1849 -1.1233 -0.7591
  135SAPE  H18Z14693   6.301   1.361   8.198  0.4227  0.0431 -0.0507
  136SAPE     N14694   3.124   0.109  10.632 -0.2257 -0.3121  0.2099
  136SAPE   HN114695   3.117   0.093  10.529  3.1552  0.6716 -0.2793
  136SAPE   HN214696   3.064   0.038  10.677 -1.3516  0.5610  0.1285
  136SAPE   HN314697   3.088   0.204  10.650 -1.7437 -0.3609 -2.0960
  136SAPE   C1214698   3.268   0.083  10.684 -0.2399 -0.5219  0.0907
  136SAPE  H12A14699   3.264   0.144  10.777 -1.7045  2.9389 -2.0060
  136SAPE  H12B14700   3.337   0.132  10.611  2.5192 -0.3973  2.5954
  136SAPE   C1114701   3.284  -0.066  10.686  0.3288  0.2633 -0.1638
  136SAPE  H11A14702   3.387  -0.089  10.721  0.7780 -0.4746 -1.8416
  136SAPE  H11B14703   3.277  -0.103  10.581 -0.8055  0.9466 -0.3534
  136SAPE     P14704   3.188  -0.281  10.786 -0.5885  0.4455 -0.3439
  136SAPE   O1314705   3.329  -0.331  10.796  0.9707 -0.3085  0.1343
  136SAPE   O1414706   3.093  -0.308  10.895 -0.4744 -0.3110 -0.0267
  136SAPE   O1214707   3.181  -0.130  10.766 -0.1545 -0.1266 -0.1529
  136SAPE   O1114708   3.124  -0.346  10.656  0.0195  0.8399 -0.5582
  136SAPE    C114709   3.017  -0.274  10.587 -0.4618 -0.2834 -0.2718
  136SAPE    HA14710   2.919  -0.282  10.639 -1.1135 -2.0933 -1.6783
  136SAPE    HB14711   3.043  -0.167  10.572 -0.2199 -0.4354 -0.9874
  136SAPE    C214712   2.995  -0.321  10.437 -0.0996 -0.0306 -0.3294
  136SAPE    HS14713   2.963  -0.427  10.447 -1.1911  0.3326  0.2304
  136SAPE   O2114714   3.113  -0.313  10.362 -0.2343  0.5524 -0.5389
  136SAPE   C2114715   3.170  -0.192  10.338  0.1583 -0.3954 -0.0214
  136SAPE   O2214716   3.123  -0.089  10.369 -0.6784 -0.3317  0.2800
  136SAPE   C2214717   3.306  -0.213  10.273  0.4067  0.8795 -0.3608
  136SAPE   H2R14718   3.357  -0.114  10.277 -1.9628  2.1451  0.9640
  136SAPE   H2S14719   3.356  -0.280  10.346  0.5046  0.8289 -0.4728
  136SAPE    C314720   2.881  -0.253  10.370  0.1104 -0.0551 -0.2548
  136SAPE    HX14721   2.886  -0.142  10.381  0.1841 -0.1566  0.8046
  136SAPE    HY14722   2.792  -0.275  10.432  1.0731  1.0263  1.5945
  136SAPE   O3114723   2.863  -0.285  10.233 -0.6455 -0.2803 -0.5250
  136SAPE   C3114724   2.806  -0.407  10.209  0.0187  0.2670  0.0543
  136SAPE   O3214725   2.756  -0.485  10.293 -0.3905  0.8547 -0.0096
  136SAPE   C3214726   2.804  -0.428  10.053  0.3058  0.0150  0.5387
  136SAPE   H2X14727   2.891  -0.489  10.022 -0.1127  1.1547 -3.3597
  136SAPE   H2Y14728   2.838  -0.330  10.014  0.1217 -1.1864 -3.0156
  136SAPE   C2314729   3.303  -0.293  10.140 -0.4890  0.6420  0.0653
  136SAPE   H3R14730   3.258  -0.393  10.162 -0.1211  0.9189  2.3438
  136SAPE   H3S14731   3.411  -0.303  10.116 -0.6100 -1.8137  0.2645
  136SAPE   C2414732   3.218  -0.237  10.024 -0.0923 -0.2647 -0.4070
  136SAPE   H4R14733   3.123  -0.198  10.066  0.7184 -1.2247  2.5562
  136SAPE   H4S14734   3.201  -0.320   9.952 -2.8028  0.3174 -0.5355
  136SAPE   C2514735   3.283  -0.122   9.950  0.2813 -0.0397  0.5601
  136SAPE   H5R14736   3.246  -0.024   9.983  1.3199  0.7395 -0.4842
  136SAPE   C2614737   3.382  -0.127   9.857  0.0431 -0.9401 -0.4990
  136SAPE   H6R14738   3.405  -0.045   9.788  0.3913 -0.8684 -0.2984
  136SAPE   C2714739   3.445  -0.250   9.795  0.8385  0.0231 -0.9433
  136SAPE   H7R14740   3.399  -0.266   9.695 -0.3034  0.6024 -0.5252
  136SAPE   H7S14741   3.414  -0.339   9.855 -0.2768  2.4861  2.3865
  136SAPE   C2814742   3.597  -0.260   9.772  0.6249 -0.4970 -0.2057
  136SAPE   H8R14743   3.644  -0.251   9.872 -0.0254  0.2369  0.0440
  136SAPE   C2914744   3.661  -0.285   9.653 -0.3237  0.5107 -0.1635
  136SAPE   H9R14745   3.770  -0.288   9.660 -0.3718  1.5035  1.6404
  136SAPE  C21014746   3.602  -0.315   9.516 -0.0464  1.0390  0.0374
  136SAPE  H10R14747   3.507  -0.373   9.524  0.3423  0.2926 -0.6259
  136SAPE  H10S14748   3.665  -0.390   9.464 -0.5051  1.0554 -0.5696
  136SAPE  C21114749   3.583  -0.192   9.436  0.2561 -0.8891  0.0906
  136SAPE  H11R14750   3.576  -0.096   9.489 -0.8077 -0.6208 -0.5260
  136SAPE  C21214751   3.565  -0.198   9.303 -0.3162 -0.5175 -0.2715
  136SAPE  H12R14752   3.549  -0.105   9.247 -1.5071 -0.1948  0.5853
  136SAPE  C21314753   3.568  -0.319   9.217 -0.9105  0.5837  0.1189
  136SAPE  H13R14754   3.502  -0.314   9.127  0.6907 -1.3697 -1.2532
  136SAPE  H13S14755   3.513  -0.397   9.274 -0.9642  1.0414  0.6938
  136SAPE  C21414756   3.705  -0.375   9.170  0.3172  0.1300 -0.1153
  136SAPE  H14R14757   3.786  -0.367   9.245 -1.5409  0.6638  1.9492
  136SAPE  C21514758   3.738  -0.438   9.056 -0.6140  0.1607 -0.2714
  136SAPE  H15R14759   3.842  -0.468   9.041 -0.5661  0.1342  0.1073
  136SAPE  C21614760   3.659  -0.466   8.934  0.4774 -0.0457 -0.4268
  136SAPE  H16R14761   3.616  -0.368   8.905 -0.2471 -0.4631 -0.7779
  136SAPE  H16S14762   3.575  -0.537   8.949 -0.2126  0.4567 -1.7640
  136SAPE  C21714763   3.730  -0.514   8.804  0.4317 -0.8528  0.3200
  136SAPE  H17R14764   3.806  -0.440   8.774 -1.9251  0.7695 -2.1750
  136SAPE  H17S14765   3.645  -0.510   8.732  1.1926  0.2178 -0.5341
  136SAPE  C21814766   3.806  -0.654   8.812  0.1602  0.0306 -0.0510
  136SAPE  H18R14767   3.742  -0.725   8.868  1.4379 -0.9790  0.1832
  136SAPE  H18S14768   3.895  -0.651   8.878  0.3765  0.3781 -0.3532
  136SAPE  C21914769   3.827  -0.711   8.673 -0.4800  0.2798  0.3389
  136SAPE  H19R14770   3.908  -0.659   8.617  0.9499 -0.3300  1.7731
  136SAPE  H19S14771   3.732  -0.706   8.615  0.5879 -2.4041 -1.9071
  136SAPE  C22014772   3.869  -0.861   8.673  0.5328 -0.6739  0.1311
  136SAPE  H20R14773   3.979  -0.867   8.689  0.2561 -1.4234  2.0599
  136SAPE  H20S14774   3.848  -0.901   8.572 -0.4204 -1.4206  0.6092
  136SAPE  H20T14775   3.812  -0.925   8.743 -0.5137 -1.2673 -1.2343
  136SAPE   C3314776   2.672  -0.462   9.995 -0.3492  0.7602  0.3455
  136SAPE   H3X14777   2.610  -0.370  10.000 -0.5959  0.5706  0.8786
  136SAPE   H3Y14778   2.620  -0.541  10.053  0.6916  0.2872  0.6617
  136SAPE   C3414779   2.662  -0.516   9.850 -0.7101  0.4398  0.6109
  136SAPE   H4X14780   2.701  -0.620   9.847 -0.2860  0.6172 -1.2510
  136SAPE   H4Y14781   2.725  -0.458   9.780 -0.1052 -0.6192  0.2480
  136SAPE   C3514782   2.521  -0.521   9.804  0.2683  0.0580 -0.4148
  136SAPE   H5X14783   2.471  -0.422   9.794  0.4863 -0.0026 -2.6780
  136SAPE   H5Y14784   2.466  -0.580   9.880 -0.1861 -1.0941 -1.6090
  136SAPE   C3614785   2.512  -0.575   9.668  0.1462  0.5584  0.2709
  136SAPE   H6X14786   2.552  -0.678   9.660 -0.3955  0.1867  1.9584
  136SAPE   H6Y14787   2.586  -0.514   9.613 -0.6669 -0.1005 -1.6749
  136SAPE   C3714788   2.374  -0.565   9.600 -0.4279  0.2506  0.1775
  136SAPE   H7X14789   2.360  -0.472   9.542  0.1016  2.4827  3.4158
  136SAPE   H7Y14790   2.299  -0.563   9.682  0.2362  0.2009  0.7987
  136SAPE   C3814791   2.346  -0.679   9.508 -0.2635  0.5122 -0.2439
  136SAPE   H8X14792   2.327  -0.775   9.558 -1.9473  0.6369 -0.5719
  136SAPE   H8Y14793   2.434  -0.692   9.441  0.7533  1.2382  0.8983
  136SAPE   C3914794   2.228  -0.640   9.417 -0.2982  0.7956  0.1061
  136SAPE   H9X14795   2.255  -0.551   9.356  0.2181  1.0487  0.6969
  136SAPE   H9Y14796   2.137  -0.605   9.470 -0.4126 -1.7022  1.7086
  136SAPE  C31014797   2.203  -0.729   9.302  0.0942  0.9772  0.7651
  136SAPE  H10X14798   2.104  -0.721   9.252  0.1413 -1.9947  0.0283
  136SAPE  H10Y14799   2.211  -0.835   9.332  1.5935  0.9140  0.2399
  136SAPE  C31114800   2.307  -0.717   9.185  0.2882 -0.4197  0.1803
  136SAPE  H11X14801   2.404  -0.754   9.224 -0.0675 -2.1459 -0.5105
  136SAPE  H11Y14802   2.318  -0.611   9.154 -0.0864 -0.2468  0.6164
  136SAPE  C31214803   2.274  -0.810   9.071 -0.1489 -0.2336 -0.2227
  136SAPE  H12X14804   2.181  -0.765   9.032  1.0973  0.8005 -2.1668
  136SAPE  H12Y14805   2.247  -0.913   9.101 -1.8252  0.5131  0.9411
  136SAPE  C31314806   2.368  -0.801   8.947 -0.5893  0.3272 -0.6486
  136SAPE  H13X14807   2.466  -0.844   8.979 -1.1053 -0.3926 -0.0012
  136SAPE  H13Y14808   2.393  -0.694   8.934  0.5356  0.3438  1.2647
  136SAPE  C31414809   2.313  -0.875   8.823  0.0015 -0.5980 -0.0913
  136SAPE  H14X14810   2.226  -0.940   8.849 -0.6716 -0.1151 -1.0504
  136SAPE  H14Y14811   2.397  -0.939   8.789  1.4324  1.4981 -0.6897
  136SAPE  C31514812   2.281  -0.779   8.706 -0.2595 -0.4532 -0.1627
  136SAPE  H15X14813   2.368  -0.709   8.703 -0.8493  0.2762 -0.6742
  136SAPE  H15Y14814   2.188  -0.721   8.720 -0.2001  0.2292 -2.1839
  136SAPE  C31614815   2.268  -0.851   8.574  0.8613  0.9300  0.7570
  136SAPE  H16X14816   2.346  -0.926   8.547 -0.5370 -0.5279  0.6020
  136SAPE  H16Y14817   2.266  -0.766   8.503 -0.4748  1.5670  1.5323
  136SAPE  C31714818   2.138  -0.930   8.559 -0.5763  0.2956 -0.0300
  136SAPE  H17X14819   2.057  -0.861   8.590  0.8626  1.6411  0.9126
  136SAPE  H17Y14820   2.126  -1.014   8.631  0.6924  0.7375  0.7355
  136SAPE  C31814821   2.104  -0.974   8.417 -0.1225  0.3849  0.8255
  136SAPE  H18X14822   2.183  -1.048   8.393 -1.3424 -0.6050 -0.3094
  136SAPE  H18Y14823   2.100  -0.887   8.348  0.5453  1.1748  1.7560
  136SAPE  H18Z14824   2.014  -1.037   8.401 -0.3958  1.0547 -0.4612
  137SAPE     N14825   1.449   3.860  11.114  0.2592  0.0779  0.3684
  137SAPE   HN114826   1.353   3.898  11.124 -0.4292 -1.9586  2.1406
  137SAPE   HN214827   1.456   3.789  11.189 -0.1679  0.6179  0.9214
  137SAPE   HN314828   1.511   3.941  11.134  2.1731 -1.2720  0.3024
  137SAPE   C1214829   1.463   3.822  10.973  0.1394  0.1905  0.5444
  137SAPE  H12A14830   1.537   3.739  10.968 -0.4557 -0.3494  0.5530
  137SAPE  H12B14831   1.495   3.912  10.916 -0.1537 -0.9345 -1.4842
  137SAPE   C1114832   1.319   3.773  10.911 -0.1054 -0.1142  0.2125
  137SAPE  H11A14833   1.294   3.671  10.947 -0.0545 -0.4136 -0.5819
  137SAPE  H11B14834   1.345   3.761  10.804 -0.4898  0.4091  0.0556
  137SAPE     P14835   1.086   3.866  10.872  0.0180  0.2859  0.5372
  137SAPE   O1314836   1.027   3.733  10.896 -0.2772  0.6267 -0.2898
  137SAPE   O1414837   1.015   3.977  10.933  0.5060 -0.4048 -0.1087
  137SAPE   O1214838   1.227   3.877  10.933 -0.5149 -0.4629 -0.1302
  137SAPE   O1114839   1.108   3.881  10.718 -0.0805  0.3570  0.4068
  137SAPE    C114840   1.187   3.991  10.665 -0.0207  0.5136 -0.1086
  137SAPE    HA14841   1.172   4.086  10.718  0.4505  0.6402 -0.1920
  137SAPE    HB14842   1.295   3.964  10.658  0.2378  1.5094 -0.0751
  137SAPE    C214843   1.141   4.022  10.519  0.5337  0.0463  0.2807
  137SAPE    HS14844   1.036   4.058  10.526  0.4004  0.1063 -1.4806
  137SAPE   O2114845   1.159   3.904  10.436  0.3684 -0.0908  0.1449
  137SAPE   C2114846   1.037   3.844  10.406 -0.2654 -0.2105  0.0292
  137SAPE   O2214847   0.929   3.877  10.448 -0.2431 -0.1027  0.1435
  137SAPE   C2214848   1.070   3.731  10.318  1.2921  0.0594 -0.2670
  137SAPE   H2R14849   1.171   3.691  10.339  1.1918  0.7408  1.7200
  137SAPE   H2S14850   0.996   3.648  10.318  1.7395 -0.3655  1.1189
  137SAPE    C314851   1.221   4.146  10.468  0.0941 -0.3171  0.2634
  137SAPE    HX14852   1.328   4.123  10.490  0.3447 -0.1527 -0.7444
  137SAPE    HY14853   1.195   4.241  10.520  0.2799  1.2475 -2.3498
  137SAPE   O3114854   1.203   4.160  10.324 -0.2685  0.1675 -0.4930
  137SAPE   C3114855   1.086   4.206  10.288  0.0777 -0.5072  0.1501
  137SAPE   O3214856   0.999   4.253  10.365  0.8710  0.0779 -0.1342
  137SAPE   C3214857   1.067   4.166  10.145 -0.0110 -0.2275  0.2228
  137SAPE   H2X14858   1.026   4.063  10.152 -2.4532  0.5132 -1.6254
  137SAPE   H2Y14859   1.164   4.166  10.090 -0.1777  0.2570 -0.0812
  137SAPE   C2314860   1.078   3.778  10.172  0.7791  0.1284 -0.1790
  137SAPE   H3R14861   1.164   3.843  10.149  2.9201 -2.3491  0.3098
  137SAPE   H3S14862   0.982   3.826  10.143  1.5268  2.2398  0.6402
  137SAPE   C2414863   1.092   3.663  10.080  0.2469  0.4296  0.0779
  137SAPE   H4R14864   1.013   3.585  10.091  0.8911 -0.5313 -1.6658
  137SAPE   H4S14865   1.185   3.610  10.110  0.5736  0.9792  0.0463
  137SAPE   C2514866   1.092   3.704   9.940 -0.3469 -0.1996 -0.0020
  137SAPE   H5R14867   1.183   3.754   9.902 -1.3917  0.1486 -2.1493
  137SAPE   C2614868   0.989   3.702   9.853 -0.1362  0.6638 -0.6259
  137SAPE   H6R14869   1.012   3.736   9.751  1.4956  0.3262 -0.3978
  137SAPE   C2714870   0.848   3.657   9.884 -0.1491  0.2973 -0.1672
  137SAPE   H7R14871   0.824   3.675   9.991  1.0790  0.1407  0.1521
  137SAPE   H7S14872   0.849   3.548   9.865 -0.7673  0.0937  0.8977
  137SAPE   C2814873   0.749   3.741   9.805 -1.0487  0.2548  0.3131
  137SAPE   H8R14874   0.715   3.833   9.854 -1.7981  0.5295 -0.6856
  137SAPE   C2914875   0.698   3.707   9.679  0.8916  0.2664 -1.1989
  137SAPE   H9R14876   0.622   3.777   9.641  2.3462  2.2872 -0.5832
  137SAPE  C21014877   0.736   3.596   9.593 -0.4449  0.4478 -0.6822
  137SAPE  H10R14878   0.647   3.535   9.568 -0.3852  0.1951 -0.3007
  137SAPE  H10S14879   0.825   3.539   9.627 -1.7303 -2.4344 -1.7784
  137SAPE  C21114880   0.792   3.666   9.466 -0.2172  0.5726 -0.1575
  137SAPE  H11R14881   0.870   3.738   9.496 -0.3531  0.8946 -0.5783
  137SAPE  C21214882   0.763   3.665   9.338  0.2945 -0.1014  0.3766
  137SAPE  H12R14883   0.829   3.730   9.279 -0.3539  1.6765  1.5073
  137SAPE  C21314884   0.658   3.578   9.269  0.4304  0.0288 -0.0351
  137SAPE  H13R14885   0.574   3.643   9.238 -0.6445 -0.9859  0.6636
  137SAPE  H13S14886   0.616   3.512   9.348 -0.5415  2.2093  1.3844
  137SAPE  C21414887   0.709   3.498   9.150 -0.6582 -0.2664  0.3012
  137SAPE  H14R14888   0.817   3.482   9.136 -0.1671  0.2013  2.9830
  137SAPE  C21514889   0.637   3.442   9.047 -0.1967 -0.7547  0.1726
  137SAPE  H15R14890   0.695   3.374   8.983  2.5806 -1.1763  2.8948
  137SAPE  C21614891   0.484   3.439   9.017 -0.8949 -0.0788  0.0022
  137SAPE  H16R14892   0.427   3.506   9.085 -1.5968  0.2099 -0.8604
  137SAPE  H16S14893   0.435   3.339   9.026 -1.1914 -0.2626 -2.8411
  137SAPE  C21714894   0.459   3.488   8.873  0.0462  0.2754 -0.5107
  137SAPE  H17R14895   0.516   3.579   8.849  1.2849  0.1295  1.6040
  137SAPE  H17S14896   0.350   3.510   8.866 -0.2668 -0.6402  0.9867
  137SAPE  C21814897   0.501   3.399   8.757  0.2842  0.3394  0.0878
  137SAPE  H18R14898   0.468   3.299   8.790  0.6147  0.2299  0.0964
  137SAPE  H18S14899   0.611   3.385   8.748 -0.0740 -2.1501 -1.5293
  137SAPE  C21914900   0.449   3.435   8.612 -1.0056  0.4243  0.1372
  137SAPE  H19R14901   0.362   3.505   8.615 -0.5088  1.1266 -0.9744
  137SAPE  H19S14902   0.426   3.342   8.555  0.3260 -1.2651  2.2084
  137SAPE  C22014903   0.566   3.502   8.547 -0.5083 -0.1235  0.7522
  137SAPE  H20R14904   0.534   3.530   8.444  0.2092 -2.6661 -0.2432
  137SAPE  H20S14905   0.652   3.433   8.534 -0.8242 -1.5626  4.9497
  137SAPE  H20T14906   0.606   3.593   8.598  1.2234  0.1921 -1.0355
  137SAPE   C3314907   0.983   4.260  10.060  0.7117  0.0920 -0.5263
  137SAPE   H3X14908   0.993   4.369  10.079  0.3580  0.1649 -0.7471
  137SAPE   H3Y14909   0.876   4.238  10.076  0.4975  0.9910 -0.6863
  137SAPE   C3414910   0.993   4.226   9.909  0.3189  0.2279 -0.2032
  137SAPE   H4X14911   0.974   4.117   9.895 -1.6640  0.3475  1.1109
  137SAPE   H4Y14912   1.095   4.245   9.869  0.5696 -3.1904 -1.5674
  137SAPE   C3514913   0.887   4.303   9.827 -0.0471 -0.8646  0.1082
  137SAPE   H5X14914   0.909   4.412   9.829 -3.6658 -0.0294 -0.0998
  137SAPE   H5Y14915   0.788   4.299   9.876 -0.2129  1.4826  0.0475
  137SAPE   C3614916   0.879   4.250   9.682 -0.2170 -0.1087  0.3985
  137SAPE   H6X14917   0.857   4.142   9.681  1.3538 -0.5821  3.5470
  137SAPE   H6Y14918   0.981   4.259   9.637 -1.0280  2.9875 -1.1299
  137SAPE   C3714919   0.782   4.321   9.589 -0.4823 -1.2535  0.8667
  137SAPE   H7X14920   0.816   4.426   9.582  1.4006 -1.8109  0.9813
  137SAPE   H7Y14921   0.682   4.317   9.637  0.1122  0.2549  2.3539
  137SAPE   C3814922   0.776   4.266   9.447  0.0557  0.1057  0.1390
  137SAPE   H8X14923   0.786   4.156   9.456  2.4538  0.3504  1.0217
  137SAPE   H8Y14924   0.865   4.287   9.383 -1.3274 -0.0044 -1.9263
  137SAPE   C3914925   0.658   4.315   9.372  0.2235 -0.1408  0.4594
  137SAPE   H9X14926   0.685   4.410   9.320 -0.6478  0.4024  0.9742
  137SAPE   H9Y14927   0.573   4.336   9.440 -1.3393  2.1883 -1.9766
  137SAPE  C31014928   0.606   4.212   9.266 -0.1395  0.0305  0.8098
  137SAPE  H10X14929   0.505   4.178   9.300 -0.5266  0.2757 -0.0515
  137SAPE  H10Y14930   0.680   4.129   9.269 -1.3327 -1.1185 -0.2110
  137SAPE  C31114931   0.584   4.281   9.131  0.1628  0.5184 -0.0050
  137SAPE  H11X14932   0.554   4.385   9.156  1.7797  0.4226  2.7206
  137SAPE  H11Y14933   0.499   4.237   9.076  2.2913 -1.6992 -1.7493
  137SAPE  C31214934   0.706   4.267   9.042  0.0664 -0.4252  0.4005
  137SAPE  H12X14935   0.715   4.164   9.004  0.0534 -0.3151  0.1026
  137SAPE  H12Y14936   0.802   4.291   9.093  0.0657 -0.8325  0.5995
  137SAPE  C31314937   0.706   4.364   8.925  0.5743  0.1023 -0.1110
  137SAPE  H13X14938   0.802   4.353   8.870 -0.3097 -1.8204 -1.3746
  137SAPE  H13Y14939   0.703   4.469   8.960 -2.7830 -0.6108  2.1923
  137SAPE  C31414940   0.594   4.352   8.819 -0.4106 -0.4276  0.5582
  137SAPE  H14X14941   0.494   4.339   8.866 -1.8092 -0.6893 -2.2825
  137SAPE  H14Y14942   0.614   4.260   8.761  1.5370  2.3267 -3.5858
  137SAPE  C31514943   0.582   4.459   8.713 -0.2536  0.3635  0.5905
  137SAPE  H15X14944   0.566   4.554   8.768 -2.6741  0.8347 -0.7839
  137SAPE  H15Y14945   0.483   4.437   8.669 -0.5702 -1.0201  1.9341
  137SAPE  C31614946   0.683   4.456   8.594  0.4672  0.3028  0.4985
  137SAPE  H16X14947   0.698   4.356   8.549  0.4344  1.1242 -1.4182
  137SAPE  H16Y14948   0.775   4.498   8.641  0.9066 -1.3276  1.1695
  137SAPE  C31714949   0.651   4.555   8.476 -0.2404 -0.2608  1.1124
  137SAPE  H17X14950   0.570   4.519   8.409  0.7091  3.7161 -2.6822
  137SAPE  H17Y14951   0.738   4.544   8.408  1.1846  2.9991  2.1988
  137SAPE  C31814952   0.625   4.702   8.502  0.1445  0.4168  0.6362
  137SAPE  H18X14953   0.581   4.765   8.421  0.4197 -0.3176 -0.1030
  137SAPE  H18Y14954   0.723   4.749   8.524 -0.3055  1.1507  1.1014
  137SAPE  H18Z14955   0.557   4.706   8.589 -0.8205 -2.9786  0.1778
  138SAPE     N14956   3.538   5.148  11.170 -0.5074 -0.5894 -0.2141
  138SAPE   HN114957   3.575   5.161  11.074 -0.0279 -0.1049  0.0338
  138SAPE   HN214958   3.531   5.240  11.218  1.0700  0.5879 -2.1121
  138SAPE   HN314959   3.602   5.088  11.226  0.7240  0.9272  0.0538
  138SAPE   C1214960   3.397   5.088  11.168 -0.3036  0.5451 -0.4566
  138SAPE  H12A14961   3.367   5.052  11.269 -0.6149 -0.0047 -0.7441
  138SAPE  H12B14962   3.404   4.999  11.103  2.1945 -1.5390  2.3711
  138SAPE   C1114963   3.297   5.188  11.112  0.0537 -0.2754  0.4410
  138SAPE  H11A14964   3.282   5.261  11.194 -1.9146 -0.5278  0.3639
  138SAPE  H11B14965   3.196   5.143  11.096 -0.0527 -0.0039  0.3398
  138SAPE     P14966   3.264   5.328  10.891  0.1787  0.1750  0.1248
  138SAPE   O1314967   3.119   5.328  10.921  0.4885  0.0647 -0.1672
  138SAPE   O1414968   3.319   5.467  10.873 -0.7591  0.5555 -0.0402
  138SAPE   O1214969   3.352   5.257  10.999  0.3204  0.3897 -0.5563
  138SAPE   O1114970   3.301   5.236  10.780 -0.2930 -0.1310  0.0748
  138SAPE    C114971   3.433   5.193  10.761  0.2769  0.1294 -0.6427
  138SAPE    HA14972   3.506   5.276  10.756  0.9052 -0.4212 -0.6904
  138SAPE    HB14973   3.474   5.121  10.835  1.4502 -0.5900 -1.9330
  138SAPE    C214974   3.465   5.129  10.629  0.0370 -0.0294 -0.0822
  138SAPE    HS14975   3.437   5.188  10.539  1.2394  0.4800 -0.1389
  138SAPE   O2114976   3.415   4.995  10.627  0.2586  0.8674  0.5966
  138SAPE   C2114977   3.299   4.984  10.550  0.0097  0.4111 -0.7073
  138SAPE   O2214978   3.247   5.073  10.492 -0.1622 -0.0344  0.4705
  138SAPE   C2214979   3.258   4.841  10.562 -0.0912 -0.0540  0.1240
  138SAPE   H2R14980   3.347   4.783  10.531 -1.4208 -2.8051  1.0940
  138SAPE   H2S14981   3.227   4.817  10.666 -2.5376 -0.9165 -0.7205
  138SAPE    C314982   3.619   5.127  10.620 -0.0361 -0.5312  0.2085
  138SAPE    HX14983   3.669   5.086  10.711 -2.4694 -0.7921  1.5227
  138SAPE    HY14984   3.647   5.234  10.611 -0.2294 -0.3979  1.0849
  138SAPE   O3114985   3.662   5.052  10.503 -0.2283 -0.1721  0.3185
  138SAPE   C3114986   3.693   4.922  10.515  0.4389 -0.1044 -0.2712
  138SAPE   O3214987   3.694   4.855  10.617  0.5102 -0.3459  0.6819
  138SAPE   C3214988   3.714   4.863  10.374 -0.3630 -0.0867  0.0417
  138SAPE   H2X14989   3.741   4.756  10.389 -0.2384 -0.3551 -1.8566
  138SAPE   H2Y14990   3.803   4.914  10.332  1.6293  0.1911  4.0930
  138SAPE   C2314991   3.150   4.809  10.458  0.2671  0.4283 -0.1339
  138SAPE   H3R14992   3.159   4.708  10.412 -3.7633 -1.0148  1.7835
  138SAPE   H3S14993   3.136   4.888  10.382 -1.7557  0.5268  0.2705
  138SAPE   C2414994   3.009   4.806  10.528  0.1118  0.4676  0.0801
  138SAPE   H4R14995   2.937   4.791  10.445  0.1411  0.6399  0.0230
  138SAPE   H4S14996   2.985   4.907  10.567  0.1732  0.4050  0.2868
  138SAPE   C2514997   2.987   4.709  10.645  0.9997  0.2057  0.3981
  138SAPE   H5R14998   3.035   4.730  10.741  0.0063  1.0467  0.7351
  138SAPE   C2614999   2.920   4.585  10.641 -0.7271 -0.0777  0.5436
  138SAPE   H6R15000   2.901   4.533  10.736 -0.2805 -1.5120 -0.1236
  138SAPE   C2715001   2.838   4.522  10.531 -0.0324  0.5937  0.8533
  138SAPE   H7R15002   2.806   4.604  10.463  1.3087  0.2303 -0.2573
  138SAPE   H7S15003   2.751   4.474  10.581  0.3628 -0.1148  0.8681
  138SAPE   C2815004   2.923   4.425  10.459 -0.5229  0.6487  0.4296
  138SAPE   H8R15005   3.001   4.378  10.520 -0.1508  1.9566  0.9945
  138SAPE   C2915006   2.908   4.394  10.329 -0.6156  0.8346  0.2125
  138SAPE   H9R15007   2.976   4.316  10.290 -2.8503 -0.0836 -2.1490
  138SAPE  C21015008   2.805   4.444  10.226 -0.4154  0.3359  0.0102
  138SAPE  H10R15009   2.858   4.459  10.129  2.7265 -0.2796  1.4958
  138SAPE  H10S15010   2.751   4.534  10.262  0.4136  0.8926 -0.0937
  138SAPE  C21115011   2.692   4.350  10.213 -0.1316  0.5839 -0.3733
  138SAPE  H11R15012   2.644   4.317  10.307  0.2671 -3.1418 -1.3127
  138SAPE  C21215013   2.630   4.302  10.103  0.5471 -0.2458  0.1835
  138SAPE  H12R15014   2.544   4.234  10.114  1.6107 -1.5337  0.6377
  138SAPE  C21315015   2.655   4.319   9.957 -0.4989 -0.3879  0.3746
  138SAPE  H13R15016   2.735   4.397   9.957 -1.3953  0.5611  0.4893
  138SAPE  H13S15017   2.573   4.380   9.912 -1.5096 -2.2724 -0.4848
  138SAPE  C21415018   2.680   4.194   9.871  0.0501  0.0715  0.0329
  138SAPE  H14R15019   2.738   4.116   9.923 -0.2489  0.7208  1.3901
  138SAPE  C21515020   2.637   4.166   9.745  0.0584 -0.0010  0.5797
  138SAPE  H15R15021   2.653   4.064   9.708 -2.4249 -0.6919  1.2313
  138SAPE  C21615022   2.553   4.256   9.663  0.5056  0.6613 -0.0743
  138SAPE  H16R15023   2.607   4.273   9.567  0.9584  2.8931  0.5192
  138SAPE  H16S15024   2.543   4.355   9.713  0.9800 -0.0509  1.4895
  138SAPE  C21715025   2.416   4.202   9.623  0.2706  0.3044  0.6245
  138SAPE  H17R15026   2.355   4.293   9.604 -0.3425 -0.3262 -0.5581
  138SAPE  H17S15027   2.376   4.150   9.712 -0.0301 -1.5092 -0.5081
  138SAPE  C21815028   2.429   4.091   9.509 -0.2549  0.2486 -0.1678
  138SAPE  H18R15029   2.493   4.003   9.531 -0.4042  0.3196  0.5952
  138SAPE  H18S15030   2.470   4.137   9.417 -1.5120  1.8372  0.0263
  138SAPE  C21915031   2.289   4.043   9.456 -0.1079  0.6450  0.1488
  138SAPE  H19R15032   2.308   3.956   9.389  0.5956  2.4427 -2.0894
  138SAPE  H19S15033   2.244   4.121   9.391  0.3824  0.6854 -0.1508
  138SAPE  C22015034   2.186   4.014   9.564  0.3320  0.0055  0.0980
  138SAPE  H20R15035   2.089   3.973   9.529 -1.0626  1.7404  1.6836
  138SAPE  H20S15036   2.152   4.099   9.627  1.0832  0.3085  0.1121
  138SAPE  H20T15037   2.218   3.928   9.626  2.4638  2.1272  2.1949
  138SAPE   C3315038   3.590   4.881  10.283 -0.7304 -0.2143  0.3064
  138SAPE   H3X15039   3.551   4.984  10.297  0.5504  0.9780 -3.6379
  138SAPE   H3Y15040   3.497   4.832  10.320 -0.5695  0.1840  1.2733
  138SAPE   C3415041   3.624   4.841  10.142  0.0481  0.0696 -0.2903
  138SAPE   H4X15042   3.718   4.884  10.101 -0.6130  1.6160 -0.2337
  138SAPE   H4Y15043   3.543   4.883  10.079 -1.5069 -0.6080  1.1763
  138SAPE   C3515044   3.629   4.688  10.111  0.5416 -0.1102 -0.2296
  138SAPE   H5X15045   3.534   4.631  10.108  1.0756 -1.0238  0.0074
  138SAPE   H5Y15046   3.694   4.636  10.185 -0.2226 -1.3211 -0.3855
  138SAPE   C3615047   3.704   4.666   9.978  0.1564 -0.0801 -0.0572
  138SAPE   H6X15048   3.810   4.697   9.993  0.6943 -2.0454  0.6155
  138SAPE   H6Y15049   3.663   4.731   9.899 -0.5405  0.1451  0.4835
  138SAPE   C3715050   3.705   4.520   9.924 -0.4215  0.0694 -0.4187
  138SAPE   H7X15051   3.608   4.471   9.946  0.2024 -0.3584  1.5521
  138SAPE   H7Y15052   3.781   4.461   9.978  0.6338  2.0354  0.3638
  138SAPE   C3815053   3.738   4.514   9.780  0.2954  0.0024 -0.2849
  138SAPE   H8X15054   3.795   4.418   9.772 -0.5666 -0.6542  1.0726
  138SAPE   H8Y15055   3.799   4.594   9.732 -1.0584  1.9529  1.1135
  138SAPE   C3915056   3.604   4.495   9.704  0.2501  0.5378 -0.1403
  138SAPE   H9X15057   3.567   4.598   9.683 -2.4693 -0.3398 -0.0035
  138SAPE   H9Y15058   3.528   4.442   9.765  0.1061  1.4173  0.4701
  138SAPE  C31015059   3.615   4.425   9.570 -0.0654 -0.0344  0.9611
  138SAPE  H10X15060   3.666   4.326   9.576  1.9863  0.5498 -3.1452
  138SAPE  H10Y15061   3.687   4.474   9.501  0.1821 -1.0442  0.4883
  138SAPE  C31115062   3.481   4.411   9.494 -0.5418  0.2358 -0.6158
  138SAPE  H11X15063   3.442   4.515   9.487  2.0994  1.4944  1.5896
  138SAPE  H11Y15064   3.406   4.351   9.549  1.0988 -2.0037 -0.7189
  138SAPE  C31215065   3.513   4.348   9.359 -0.0421  0.0876 -0.0762
  138SAPE  H12X15066   3.603   4.399   9.319  0.2339  0.0068  0.4291
  138SAPE  H12Y15067   3.432   4.353   9.284 -0.1419 -0.5404 -0.0141
  138SAPE  C31315068   3.540   4.190   9.366  0.8860 -0.1287 -0.7028
  138SAPE  H13X15069   3.463   4.160   9.441  0.8087  1.3406 -0.1553
  138SAPE  H13Y15070   3.641   4.169   9.407  0.5908 -1.1451 -0.4652
  138SAPE  C31415071   3.532   4.113   9.236  0.5082 -0.1185  0.1024
  138SAPE  H14X15072   3.427   4.108   9.200  0.0892  0.4553  1.1941
  138SAPE  H14Y15073   3.570   4.012   9.260 -0.5129 -0.6015 -0.2485
  138SAPE  C31515074   3.612   4.171   9.125  0.0449 -0.0132 -0.5026
  138SAPE  H15X15075   3.717   4.162   9.160  0.4530 -0.0884 -1.7007
  138SAPE  H15Y15076   3.579   4.277   9.119 -0.6804 -0.1498  0.6947
  138SAPE  C31615077   3.582   4.109   8.988  0.0838  0.4414 -0.9131
  138SAPE  H16X15078   3.475   4.124   8.962 -0.9706  1.1169  3.1277
  138SAPE  H16Y15079   3.586   3.998   8.989 -2.7502  0.2741 -0.4046
  138SAPE  C31715080   3.663   4.179   8.872  0.1318 -0.5358 -0.0084
  138SAPE  H17X15081   3.772   4.181   8.896  0.4128  1.1766 -1.2214
  138SAPE  H17Y15082   3.629   4.284   8.865  0.7936 -0.3382 -0.3275
  138SAPE  C31815083   3.638   4.104   8.739  0.5295 -0.8157  0.3049
  138SAPE  H18X15084   3.536   4.121   8.697  0.3160  2.0321  1.7162
  138SAPE  H18Y15085   3.667   3.998   8.755 -0.9310 -1.4082 -0.7308
  138SAPE  H18Z15086   3.708   4.138   8.660 -0.7371 -0.6415 -0.7843
  139SAPE     N15087   4.323   1.192  10.723 -0.0570 -0.0213 -0.5201
  139SAPE   HN115088   4.418   1.162  10.755 -0.2726  1.9300  2.2894
  139SAPE   HN215089   4.257   1.112  10.720  0.4090 -0.5127  1.2324
  139SAPE   HN315090   4.344   1.227  10.627 -0.7450 -0.6665 -0.9196
  139SAPE   C1215091   4.270   1.285  10.823 -0.9974  0.0097 -0.2279
  139SAPE  H12A15092   4.336   1.375  10.824 -0.2779 -0.4953  2.1018
  139SAPE  H12B15093   4.279   1.233  10.920  1.1445 -0.7659 -0.7875
  139SAPE   C1115094   4.128   1.329  10.789  0.6063 -0.3657 -0.0161
  139SAPE  H11A15095   4.103   1.419  10.849  1.7094 -0.4715  0.6224
  139SAPE  H11B15096   4.065   1.246  10.827 -1.9512  1.2012 -0.5505
  139SAPE     P15097   3.959   1.377  10.589 -0.3474 -0.4732 -0.1884
  139SAPE   O1315098   3.854   1.365  10.691  0.2358 -0.5595  0.1693
  139SAPE   O1415099   3.956   1.494  10.496 -0.0051  0.1351 -0.6211
  139SAPE   O1215100   4.109   1.362  10.648 -0.2629  0.0290 -0.3415
  139SAPE   O1115101   3.934   1.251  10.502  0.5677  0.2347  0.0845
  139SAPE    C115102   4.027   1.205  10.402  0.1244  0.0079 -0.0689
  139SAPE    HA15103   4.121   1.264  10.393  1.2745 -1.7811 -0.2771
  139SAPE    HB15104   4.058   1.100  10.417  2.0447  0.4091 -0.8777
  139SAPE    C215105   3.957   1.214  10.261 -0.3273  0.3204 -0.1641
  139SAPE    HS15106   4.029   1.176  10.186  0.3179 -0.3003  0.7501
  139SAPE   O2115107   3.906   1.345  10.237  0.1958  0.5458 -0.7694
  139SAPE   C2115108   3.993   1.432  10.203 -0.2075 -0.1417  0.3285
  139SAPE   O2215109   4.116   1.410  10.195  0.2119  0.9591  0.3415
  139SAPE   C2215110   3.927   1.558  10.160 -0.4815 -1.1211  0.3327
  139SAPE   H2R15111   3.832   1.538  10.105 -0.4733  0.1604 -0.1882
  139SAPE   H2S15112   3.897   1.603  10.256 -1.2342 -1.2195  0.1491
  139SAPE    C315113   3.826   1.123  10.251  0.2726 -0.2141  0.1922
  139SAPE    HX15114   3.758   1.183  10.315 -0.0638 -2.0472  1.6501
  139SAPE    HY15115   3.844   1.028  10.306 -1.7975 -0.5542  0.3488
  139SAPE   O3115116   3.775   1.115  10.118 -0.2823 -0.0371  0.1042
  139SAPE   C3115117   3.668   1.033  10.116 -0.1198  0.0379  0.1841
  139SAPE   O3215118   3.632   0.961  10.210 -0.3304 -0.1779 -0.3250
  139SAPE   C3215119   3.592   1.049   9.986 -0.2833  0.2607 -0.6465
  139SAPE   H2X15120   3.522   1.134  10.002  0.3509  0.3771  1.9364
  139SAPE   H2Y15121   3.529   0.959   9.970  0.0638 -0.0441 -0.3271
  139SAPE   C2315122   4.021   1.653  10.080  0.1910 -0.0305  0.9902
  139SAPE   H3R15123   4.130   1.649  10.100  0.3776 -2.9459 -0.1510
  139SAPE   H3S15124   3.997   1.760  10.101  2.0394  0.5987  0.1810
  139SAPE   C2415125   4.009   1.624   9.929  0.5857  0.2596  0.3605
  139SAPE   H4R15126   4.035   1.712   9.866 -2.7028 -0.4104 -2.2031
  139SAPE   H4S15127   3.904   1.598   9.906  0.3359  3.1216 -2.4329
  139SAPE   C2515128   4.102   1.507   9.888  0.9423 -0.1002 -0.2140
  139SAPE   H5R15129   4.152   1.447   9.966 -0.4994 -1.9290 -0.6231
  139SAPE   C2615130   4.136   1.467   9.763  0.5045 -0.1324  0.1096
  139SAPE   H6R15131   4.199   1.379   9.747 -2.4661 -2.5447  0.7388
  139SAPE   C2715132   4.081   1.545   9.638  0.2367  0.2194  0.5616
  139SAPE   H7R15133   4.168   1.540   9.568  3.1193  2.1164  3.7020
  139SAPE   H7S15134   4.049   1.648   9.666 -0.0346  0.4306 -0.4641
  139SAPE   C2815135   3.961   1.472   9.573 -0.8790  0.8140 -0.2712
  139SAPE   H8R15136   3.919   1.399   9.643  2.2838 -0.8570  0.0653
  139SAPE   C2915137   3.915   1.485   9.444  0.1165 -0.1607 -0.0936
  139SAPE   H9R15138   3.842   1.411   9.410  0.5626 -1.0271  0.7870
  139SAPE  C21015139   3.967   1.570   9.333 -0.5947 -0.1889 -0.3937
  139SAPE  H10R15140   3.992   1.501   9.251 -1.2374  0.5195 -1.2070
  139SAPE  H10S15141   4.063   1.612   9.371  0.3464 -0.8739 -1.9370
  139SAPE  C21115142   3.862   1.673   9.308 -0.4811  0.1592  0.0621
  139SAPE  H11R15143   3.837   1.745   9.387  1.2846  2.3333 -1.2142
  139SAPE  C21215144   3.817   1.694   9.183  0.0820  0.2366  0.1410
  139SAPE  H12R15145   3.744   1.775   9.171 -0.3317  0.1817  1.9789
  139SAPE  C21315146   3.857   1.626   9.059 -0.7589  0.0618  0.4737
  139SAPE  H13R15147   3.769   1.643   8.994  1.1361  0.0072 -2.2715
  139SAPE  H13S15148   3.869   1.516   9.069  0.7994  0.2746  1.3764
  139SAPE  C21415149   3.969   1.692   8.985 -0.2331  0.3583 -0.7280
  139SAPE  H14R15150   4.036   1.750   9.050 -3.3048  1.3839  1.8085
  139SAPE  C21515151   4.001   1.693   8.855  0.0981  0.6616 -0.4333
  139SAPE  H15R15152   4.088   1.754   8.829  2.2108 -2.2525 -0.6845
  139SAPE  C21615153   3.924   1.616   8.749  0.1779  0.0964  1.1259
  139SAPE  H16R15154   3.823   1.591   8.787  0.0459  0.1001  0.7780
  139SAPE  H16S15155   3.979   1.521   8.737  0.8549  0.5950  0.0941
  139SAPE  C21715156   3.909   1.698   8.623  0.7677 -0.2436  0.6806
  139SAPE  H17R15157   4.007   1.732   8.583  0.8492 -0.5119  0.6485
  139SAPE  H17S15158   3.833   1.776   8.645  1.3729  0.4841  0.2809
  139SAPE  C21815159   3.862   1.611   8.501 -0.1630  0.5768 -0.7459
  139SAPE  H18R15160   3.775   1.549   8.532  0.0740  0.2339 -0.7571
  139SAPE  H18S15161   3.944   1.538   8.483 -0.1235  0.6572 -0.8943
  139SAPE  C21915162   3.835   1.680   8.367  0.1688 -0.8839 -0.4547
  139SAPE  H19R15163   3.801   1.599   8.299 -0.4323 -0.5769 -0.5259
  139SAPE  H19S15164   3.934   1.716   8.332 -1.0166  1.7376 -1.3358
  139SAPE  C22015165   3.740   1.805   8.379 -0.1712  0.3127  0.1932
  139SAPE  H20R15166   3.639   1.780   8.417 -0.7351  4.4772  1.9353
  139SAPE  H20S15167   3.715   1.854   8.283  0.7326  1.2533  0.4181
  139SAPE  H20T15168   3.774   1.876   8.457  0.1464 -0.1812  0.5156
  139SAPE   C3315169   3.681   1.090   9.868 -0.3681  0.6163 -0.3036
  139SAPE   H3X15170   3.767   1.020   9.859 -0.6568  0.0203  1.1446
  139SAPE   H3Y15171   3.731   1.187   9.883 -1.0167  0.8991  0.0650
  139SAPE   C3415172   3.611   1.091   9.736  0.2766 -1.1862 -0.1373
  139SAPE   H4X15173   3.545   1.176   9.762  2.9866  0.9121  0.3571
  139SAPE   H4Y15174   3.555   0.996   9.724  2.0611 -2.2505 -0.4402
  139SAPE   C3515175   3.702   1.113   9.612  0.3993 -0.0285  0.1345
  139SAPE   H5X15176   3.783   1.038   9.601 -0.6559 -0.9544 -2.2384
  139SAPE   H5Y15177   3.760   1.207   9.610 -0.1385  0.3261 -2.1813
  139SAPE   C3615178   3.639   1.122   9.477 -0.6128  0.0340 -0.0213
  139SAPE   H6X15179   3.580   1.214   9.464  2.6673  2.1290 -1.4562
  139SAPE   H6Y15180   3.578   1.031   9.455 -0.7124  0.4199 -1.4223
  139SAPE   C3715181   3.744   1.118   9.352 -0.3410  0.4067 -0.5467
  139SAPE   H7X15182   3.809   1.029   9.344  0.4776  0.9277  0.1524
  139SAPE   H7Y15183   3.815   1.203   9.368  1.3564 -0.6585 -2.0098
  139SAPE   C3815184   3.682   1.127   9.216  0.1796 -0.1473 -0.4415
  139SAPE   H8X15185   3.573   1.137   9.239  0.3195 -0.2368  0.2506
  139SAPE   H8Y15186   3.678   1.036   9.152  0.4902 -0.1580 -0.4445
  139SAPE   C3915187   3.736   1.247   9.129 -0.1528  0.2880  0.5786
  139SAPE   H9X15188   3.845   1.225   9.120 -0.5161 -0.9698 -1.7625
  139SAPE   H9Y15189   3.722   1.348   9.172  0.6771  0.8806 -0.4963
  139SAPE  C31015190   3.683   1.242   8.981  0.1529 -0.3854 -0.5623
  139SAPE  H10X15191   3.706   1.143   8.937  0.9560  0.2196 -1.5692
  139SAPE  H10Y15192   3.738   1.312   8.913 -0.6143  0.0633 -0.7429
  139SAPE  C31115193   3.530   1.262   8.968  0.3448 -0.3785  0.7477
  139SAPE  H11X15194   3.505   1.369   8.987  1.6319  0.6604 -2.6894
  139SAPE  H11Y15195   3.472   1.193   9.033 -2.3872  1.7708  0.7639
  139SAPE  C31215196   3.479   1.235   8.820 -0.6455 -0.0357  0.0815
  139SAPE  H12X15197   3.503   1.127   8.805  0.7810  0.3429 -0.5416
  139SAPE  H12Y15198   3.537   1.290   8.743  1.0702 -0.7542  0.7888
  139SAPE  C31315199   3.333   1.258   8.796  0.0201 -0.3113 -0.0816
  139SAPE  H13X15200   3.301   1.356   8.838  2.4200 -0.2702  1.8651
  139SAPE  H13Y15201   3.264   1.194   8.855 -2.8473  0.4762 -2.3183
  139SAPE  C31415202   3.293   1.250   8.652 -0.4878  0.1867  0.1462
  139SAPE  H14X15203   3.333   1.155   8.612  1.0207  0.3445  1.2049
  139SAPE  H14Y15204   3.349   1.327   8.595  0.3125 -0.5473 -0.0682
  139SAPE  C31515205   3.143   1.269   8.639 -0.2049 -0.2823 -0.2635
  139SAPE  H15X15206   3.091   1.205   8.712  0.5073  0.5173  0.9864
  139SAPE  H15Y15207   3.124   1.220   8.541 -1.1436 -0.9771  0.2597
  139SAPE  C31615208   3.090   1.414   8.656  0.8118 -0.8535 -0.3306
  139SAPE  H16X15209   3.088   1.447   8.762 -1.9819  1.5713 -0.9887
  139SAPE  H16Y15210   3.160   1.476   8.596  0.4046 -0.2736 -0.2155
  139SAPE  C31715211   2.952   1.447   8.595 -0.2599  0.3772  0.3635
  139SAPE  H17X15212   2.929   1.556   8.589 -2.1109  0.0051 -0.1782
  139SAPE  H17Y15213   2.882   1.383   8.652  0.7408 -0.9205  0.1772
  139SAPE  C31815214   2.949   1.404   8.442 -0.0090 -0.8752 -0.4531
  139SAPE  H18X15215   3.037   1.443   8.388 -0.0378  0.1627  0.2224
  139SAPE  H18Y15216   2.847   1.425   8.403 -0.0201 -0.3785 -0.1657
  139SAPE  H18Z15217   2.956   1.293   8.437 -0.0921 -0.9209  0.3094
  140SAPE     N15218   5.174   6.164  11.173 -0.0771 -0.2217 -0.4699
  140SAPE   HN115219   5.222   6.189  11.084 -0.4481 -0.6477 -0.7910
  140SAPE   HN215220   5.096   6.233  11.173  0.9775  1.0219 -0.1440
  140SAPE   HN315221   5.229   6.189  11.258 -1.7059 -2.0298  1.2060
  140SAPE   C1215222   5.132   6.021  11.158 -0.0857  0.4198 -0.2276
  140SAPE  H12A15223   5.054   6.027  11.236 -1.1984  2.4709 -1.4100
  140SAPE  H12B15224   5.216   5.950  11.174 -1.4163 -1.3452 -0.7662
  140SAPE   C1115225   5.075   5.996  11.021  0.3015  0.2303  0.2748
  140SAPE  H11A15226   4.986   6.059  11.003  0.2368 -0.5960 -3.0160
  140SAPE  H11B15227   5.043   5.889  11.015 -0.1787  0.3086  1.3206
  140SAPE     P15228   5.116   6.078  10.782  0.4002 -0.6867  0.2646
  140SAPE   O1315229   4.994   6.165  10.805 -0.6796  0.3178  0.7685
  140SAPE   O1415230   5.227   6.140  10.703  0.4862  0.1543 -0.7975
  140SAPE   O1215231   5.169   6.026  10.922 -0.5096 -0.2925 -0.2523
  140SAPE   O1115232   5.066   5.943  10.714 -0.0811 -0.0397 -0.5082
  140SAPE    C115233   5.154   5.826  10.713  0.9267 -1.3834 -0.1756
  140SAPE    HA15234   5.247   5.855  10.766 -0.6170  1.7398  1.0621
  140SAPE    HB15235   5.112   5.752  10.784  0.1085  1.1190  2.0863
  140SAPE    C215236   5.164   5.762  10.575 -0.2543  0.0892  0.4783
  140SAPE    HS15237   5.256   5.699  10.582  0.6129  1.4765  2.3212
  140SAPE   O2115238   5.185   5.859  10.469 -0.7342 -0.3920  0.5179
  140SAPE   C2115239   5.311   5.905  10.454  0.3146 -0.3046  0.5146
  140SAPE   O2215240   5.403   5.856  10.510  0.2697  0.6323 -0.2857
  140SAPE   C2215241   5.324   6.029  10.346 -0.6276 -0.4597 -1.2418
  140SAPE   H2R15242   5.273   5.987  10.257  0.1386 -1.0805 -1.4033
  140SAPE   H2S15243   5.271   6.108  10.402 -0.4566  0.1366 -1.9036
  140SAPE    C315244   5.042   5.690  10.541 -0.8503  0.3424  0.7401
  140SAPE    HX15245   4.956   5.760  10.538  0.1053  1.5770 -2.9621
  140SAPE    HY15246   5.032   5.615  10.623  4.5979  0.4800  1.9132
  140SAPE   O3115247   5.052   5.622  10.415  0.0687 -0.3462  0.2141
  140SAPE   C3115248   4.991   5.689  10.316  0.1867 -0.3414  0.0719
  140SAPE   O3215249   4.921   5.785  10.332 -0.1173 -0.3387 -0.5185
  140SAPE   C3215250   5.021   5.625  10.186  0.4701  0.5857 -0.0507
  140SAPE   H2X15251   4.956   5.671  10.108 -1.4029 -0.5423  0.7831
  140SAPE   H2Y15252   4.985   5.520  10.194 -1.2346  0.9998 -1.6064
  140SAPE   C2315253   5.466   6.070  10.311  0.4530  0.3205 -0.1912
  140SAPE   H3R15254   5.521   5.974  10.296 -0.5377 -0.1637 -0.7982
  140SAPE   H3S15255   5.520   6.128  10.389 -0.0047  2.2965 -1.2799
  140SAPE   C2415256   5.480   6.141  10.177  0.1003 -0.1448 -0.7973
  140SAPE   H4R15257   5.420   6.083  10.103 -0.7711  1.1076 -1.1040
  140SAPE   H4S15258   5.588   6.138  10.152 -0.2731 -1.2462 -2.4624
  140SAPE   C2515259   5.419   6.268  10.193  0.1031  0.5040  0.1361
  140SAPE   H5R15260   5.370   6.292  10.289 -1.2383 -0.9775 -0.1351
  140SAPE   C2615261   5.415   6.369  10.104  0.8037  0.4126 -0.5703
  140SAPE   H6R15262   5.362   6.460  10.135  0.8387  0.1437  0.3338
  140SAPE   C2715263   5.485   6.369   9.975 -0.0241 -0.0347  0.6288
  140SAPE   H7R15264   5.432   6.432   9.900 -4.2735 -0.7674  2.6986
  140SAPE   H7S15265   5.484   6.268   9.930  0.8885  1.1360 -2.2294
  140SAPE   C2815266   5.622   6.424   9.992  0.1776 -0.9457  0.6490
  140SAPE   H8R15267   5.631   6.491  10.078 -0.8157  1.4622 -1.0237
  140SAPE   C2915268   5.719   6.403   9.905 -0.5807  0.2139  0.1886
  140SAPE   H9R15269   5.816   6.453   9.922 -1.8168  2.2250  1.9790
  140SAPE  C21015270   5.713   6.329   9.773  0.1322  1.1885  0.8058
  140SAPE  H10R15271   5.611   6.321   9.731  0.6941  0.1530 -0.4111
  140SAPE  H10S15272   5.753   6.227   9.790  1.4717  1.3222 -1.1586
  140SAPE  C21115273   5.791   6.408   9.668  0.1473  0.3564 -0.1670
  140SAPE  H11R15274   5.821   6.510   9.697 -1.0950  0.6523  0.1414
  140SAPE  C21215275   5.798   6.372   9.539 -0.0133 -0.1401 -0.0133
  140SAPE  H12R15276   5.839   6.436   9.459 -0.4149 -0.0628 -0.1622
  140SAPE  C21315277   5.727   6.256   9.471  0.0229  0.4661  0.6915
  140SAPE  H13R15278   5.667   6.300   9.388  1.4844  0.2162 -0.5396
  140SAPE  H13S15279   5.667   6.192   9.538 -0.6454  1.6611  1.2686
  140SAPE  C21415280   5.829   6.168   9.396 -0.1208 -0.4044  0.3817
  140SAPE  H14R15281   5.931   6.169   9.436 -0.6373  1.2032  1.7514
  140SAPE  C21515282   5.801   6.101   9.281 -0.1963  0.3438 -0.1486
  140SAPE  H15R15283   5.877   6.058   9.214  0.2943  1.6970 -0.4902
  140SAPE  C21615284   5.665   6.080   9.222 -0.4141  0.0565  0.2374
  140SAPE  H16R15285   5.631   6.182   9.195  0.7767 -0.1270 -2.2035
  140SAPE  H16S15286   5.596   6.036   9.299 -0.3657  0.9991  0.8337
  140SAPE  C21715287   5.650   5.992   9.092  0.1389 -0.3326 -0.6071
  140SAPE  H17R15288   5.548   5.951   9.104  0.2576 -0.4870 -0.1155
  140SAPE  H17S15289   5.734   5.919   9.088  1.6416  1.0716  2.2329
  140SAPE  C21815290   5.671   6.078   8.970  0.3776  0.3315  0.5019
  140SAPE  H18R15291   5.780   6.098   8.975  0.5848 -1.0424  2.7879
  140SAPE  H18S15292   5.617   6.175   8.978  1.8511  1.2674 -0.6279
  140SAPE  C21915293   5.647   6.006   8.837 -0.1407  0.8257 -0.4126
  140SAPE  H19R15294   5.560   5.937   8.835 -1.9402  2.8595 -4.2446
  140SAPE  H19S15295   5.733   5.936   8.829 -0.5537  0.1788  0.7199
  140SAPE  C22015296   5.637   6.092   8.715  0.2540  0.1307 -0.7490
  140SAPE  H20R15297   5.580   6.185   8.740  0.5699 -0.7358  4.5198
  140SAPE  H20S15298   5.589   6.031   8.636  0.9061  0.2079 -1.2113
  140SAPE  H20T15299   5.738   6.117   8.677  1.0379 -1.6940 -0.0070
  140SAPE   C3315300   5.176   5.640  10.149  0.1583  0.1863  0.0404
  140SAPE   H3X15301   5.243   5.589  10.222 -0.1146  2.0044  1.6437
  140SAPE   H3Y15302   5.205   5.747  10.149  0.8148  0.0449  1.9934
  140SAPE   C3415303   5.213   5.595  10.005 -0.0467 -0.3902 -0.3491
  140SAPE   H4X15304   5.117   5.564   9.958  0.4725 -0.0656 -1.6614
  140SAPE   H4Y15305   5.286   5.512  10.007  1.7450  1.0652  2.6601
  140SAPE   C3515306   5.263   5.709   9.913  0.3512 -0.9539 -0.6043
  140SAPE   H5X15307   5.360   5.753   9.945  0.5321 -2.6363  1.3116
  140SAPE   H5Y15308   5.186   5.788   9.927  0.9453 -0.3535 -0.6744
  140SAPE   C3615309   5.258   5.684   9.766  0.0471  0.4058 -0.4037
  140SAPE   H6X15310   5.317   5.769   9.724  1.0889 -0.1835 -0.1815
  140SAPE   H6Y15311   5.159   5.685   9.715 -0.7166  2.2600  1.0221
  140SAPE   C3715312   5.327   5.552   9.735  0.0047  0.5894 -0.0561
  140SAPE   H7X15313   5.269   5.463   9.768  0.0035  1.2698  1.9416
  140SAPE   H7Y15314   5.426   5.563   9.786 -0.4637 -0.4718  1.1430
  140SAPE   C3815315   5.351   5.533   9.584  0.6689 -0.0895  0.3277
  140SAPE   H8X15316   5.451   5.490   9.561  0.9083 -0.1843  1.4993
  140SAPE   H8Y15317   5.350   5.636   9.542 -2.1219  0.3273  1.1859
  140SAPE   C3915318   5.245   5.437   9.525 -0.0278 -1.0924 -0.3989
  140SAPE   H9X15319   5.150   5.492   9.542 -0.2715 -1.5458 -0.2708
  140SAPE   H9Y15320   5.237   5.341   9.580 -2.4769  0.5768  2.4768
  140SAPE  C31015321   5.266   5.402   9.371 -0.0979 -0.2759  1.2775
  140SAPE  H10X15322   5.195   5.326   9.333  0.5272 -0.0672 -0.3821
  140SAPE  H10Y15323   5.362   5.347   9.357  0.0683 -0.3031  2.4214
  140SAPE  C31115324   5.267   5.518   9.268 -0.3027  0.4069  0.5166
  140SAPE  H11X15325   5.322   5.605   9.310  0.1635 -0.2142  1.2249
  140SAPE  H11Y15326   5.172   5.575   9.258  0.6132  1.6388 -1.8702
  140SAPE  C31215327   5.333   5.490   9.137 -0.3698 -0.2499  0.5426
  140SAPE  H12X15328   5.292   5.396   9.095  1.8431 -0.5037 -1.2243
  140SAPE  H12Y15329   5.439   5.455   9.143  0.0283  0.7897 -0.1451
  140SAPE  C31315330   5.318   5.603   9.037  0.3822  0.0254  1.0282
  140SAPE  H13X15331   5.355   5.701   9.075 -0.3759  1.6298 -2.0104
  140SAPE  H13Y15332   5.209   5.613   9.018  1.0503  1.5530 -2.9344
  140SAPE  C31415333   5.388   5.596   8.902 -0.1356  0.5604 -0.5804
  140SAPE  H14X15334   5.353   5.686   8.848 -2.0943  1.2686  1.7185
  140SAPE  H14Y15335   5.368   5.500   8.850  3.9819 -0.3061 -0.9706
  140SAPE  C31515336   5.543   5.590   8.914 -0.3324 -0.0804 -0.6362
  140SAPE  H15X15337   5.575   5.505   8.978  0.5929  2.2771  2.2369
  140SAPE  H15Y15338   5.575   5.682   8.968  0.2900 -1.0986  0.7795
  140SAPE  C31615339   5.624   5.596   8.784  0.1559  0.3651  0.0535
  140SAPE  H16X15340   5.584   5.682   8.727 -2.6961 -0.3576  0.7783
  140SAPE  H16Y15341   5.604   5.501   8.731 -1.8926  1.5372 -1.4114
  140SAPE  C31715342   5.774   5.610   8.809  0.1137 -0.3960 -1.0203
  140SAPE  H17X15343   5.808   5.528   8.876  2.0251 -0.6945 -2.2692
  140SAPE  H17Y15344   5.776   5.705   8.866 -3.4297 -1.3988  1.0794
  140SAPE  C31815345   5.866   5.615   8.685  0.1478 -0.6861 -0.3924
  140SAPE  H18X15346   5.832   5.528   8.623  0.2105 -0.2453 -1.0592
  140SAPE  H18Y15347   5.971   5.614   8.721 -0.9070  3.0144  3.5246
  140SAPE  H18Z15348   5.856   5.713   8.633  4.2814  0.1421  0.0746
  141SAPE     N15349   6.766   0.925  10.896 -0.3761 -0.2713  0.3291
  141SAPE   HN115350   6.698   0.933  10.974  0.5043  1.4606  0.9886
  141SAPE   HN215351   6.849   0.982  10.922  0.1960 -0.9425  0.0108
  141SAPE   HN315352   6.719   0.961  10.811 -1.6801 -0.8333  0.7918
  141SAPE   C1215353   6.803   0.786  10.873  0.3665  1.0482  0.8589
  141SAPE  H12A15354   6.717   0.728  10.833  0.9207 -0.4122  1.7077
  141SAPE  H12B15355   6.823   0.737  10.970  1.8492 -0.2537 -0.0536
  141SAPE   C1115356   6.934   0.759  10.796 -0.3651 -0.3552 -0.1807
  141SAPE  H11A15357   6.921   0.814  10.700 -0.5351 -1.0292 -0.5477
  141SAPE  H11B15358   6.929   0.649  10.780  1.9197 -1.0224  2.8241
  141SAPE     P15359   7.111   0.945  10.855 -0.1216 -0.2877  0.0435
  141SAPE   O1315360   7.002   1.041  10.875 -0.1124  0.1048 -0.3777
  141SAPE   O1415361   7.223   0.956  10.946 -0.6895  0.1672  0.5603
  141SAPE   O1215362   7.053   0.797  10.864  0.1101 -0.5016 -0.0345
  141SAPE   O1115363   7.163   0.968  10.706  0.2147  0.8789  0.1225
  141SAPE    C115364   7.214   0.860  10.632  0.4942 -1.1768  0.5060
  141SAPE    HA15365   7.324   0.865  10.646  0.1012  3.4770  4.3227
  141SAPE    HB15366   7.174   0.758  10.655 -0.7126 -1.2163 -1.5374
  141SAPE    C215367   7.196   0.878  10.478 -0.1631 -0.3671 -0.2018
  141SAPE    HS15368   7.246   0.975  10.456  1.2024 -0.2685  2.8766
  141SAPE   O2115369   7.058   0.875  10.442  0.1487  0.2394  0.3019
  141SAPE   C2115370   7.021   0.948  10.338 -0.0519  0.7216 -0.2901
  141SAPE   O2215371   7.084   1.038  10.287  0.0983  0.4541  0.1042
  141SAPE   C2215372   6.875   0.920  10.300  0.1230 -0.1235  0.2103
  141SAPE   H2R15373   6.817   0.946  10.391  1.4904 -1.7145  1.6099
  141SAPE   H2S15374   6.850   1.000  10.228  2.1962  0.7996  0.4300
  141SAPE    C315375   7.277   0.769  10.404 -0.7684  0.0637 -0.3420
  141SAPE    HX15376   7.250   0.669  10.444  2.8432 -1.2209 -0.7594
  141SAPE    HY15377   7.381   0.777  10.442 -1.5050 -0.9811  2.0410
  141SAPE   O3115378   7.257   0.777  10.260  0.4009 -0.1799  0.1734
  141SAPE   C3115379   7.351   0.833  10.182  0.2181 -0.0016 -0.5543
  141SAPE   O3215380   7.460   0.872  10.223 -0.2093 -0.2252  0.2918
  141SAPE   C3215381   7.303   0.849  10.045  0.8131  0.2501 -0.1029
  141SAPE   H2X15382   7.192   0.855  10.050  0.6294 -2.7567  2.1334
  141SAPE   H2Y15383   7.341   0.763   9.987 -1.0813 -1.3855  0.9835
  141SAPE   C2315384   6.861   0.773  10.246 -0.0489 -0.2391 -0.1709
  141SAPE   H3R15385   6.774   0.725  10.296  1.2914 -0.6667  1.8632
  141SAPE   H3S15386   6.942   0.702  10.269 -1.3570 -2.2249 -1.4189
  141SAPE   C2415387   6.815   0.766  10.100  0.2200 -0.0662 -0.6497
  141SAPE   H4R15388   6.717   0.819  10.102  0.4819  0.4101 -0.1194
  141SAPE   H4S15389   6.789   0.662  10.070  0.2469 -0.5926  1.0537
  141SAPE   C2515390   6.898   0.844  10.007  0.2409 -0.2945  0.9756
  141SAPE   H5R15391   6.904   0.952  10.031 -0.3941  0.1128 -0.6042
  141SAPE   C2615392   6.972   0.794   9.908  0.5507  0.1074  0.4559
  141SAPE   H6R15393   7.025   0.861   9.839  0.1167  0.0892  0.0994
  141SAPE   C2715394   6.978   0.647   9.882 -0.1051  0.1474 -0.3054
  141SAPE   H7R15395   6.909   0.632   9.797 -0.6474 -2.3031  0.4922
  141SAPE   H7S15396   6.937   0.583   9.962  0.8618  0.0022  0.0907
  141SAPE   C2815397   7.117   0.601   9.837  0.6681 -0.1102  0.6000
  141SAPE   H8R15398   7.190   0.583   9.917  2.6680  0.3752 -1.0126
  141SAPE   C2915399   7.155   0.595   9.704  0.2171 -0.9941  0.3377
  141SAPE   H9R15400   7.258   0.559   9.692  0.7158  0.8045 -1.0058
  141SAPE  C21015401   7.075   0.636   9.584  0.2791  0.3644  0.2492
  141SAPE  H10R15402   6.967   0.655   9.601 -0.2005 -0.7450 -1.3168
  141SAPE  H10S15403   7.069   0.551   9.513 -1.0637 -0.0509  0.8296
  141SAPE  C21115404   7.148   0.745   9.506  0.2895 -0.4511 -1.2517
  141SAPE  H11R15405   7.167   0.837   9.563  0.8003  0.1315 -2.3313
  141SAPE  C21215406   7.181   0.740   9.370 -0.2331 -0.2774 -0.3899
  141SAPE  H12R15407   7.215   0.837   9.331 -0.8316  1.1415  2.3774
  141SAPE  C21315408   7.152   0.632   9.269 -0.0009  0.3010 -0.1040
  141SAPE  H13R15409   7.116   0.677   9.173  1.8893  0.0882 -0.9543
  141SAPE  H13S15410   7.077   0.557   9.303  1.2997 -1.5346 -1.0954
  141SAPE  C21415411   7.274   0.557   9.241 -0.0319 -0.0311  0.5947
  141SAPE  H14R15412   7.375   0.587   9.272  0.9184 -2.0101 -0.3252
  141SAPE  C21515413   7.277   0.428   9.201 -0.4066 -1.2949  0.5029
  141SAPE  H15R15414   7.376   0.380   9.198 -0.2614 -0.9577 -1.0590
  141SAPE  C21615415   7.164   0.339   9.163 -0.2439 -0.1295  0.0972
  141SAPE  H16R15416   7.074   0.403   9.158  1.1475  1.8705 -0.7469
  141SAPE  H16S15417   7.151   0.265   9.245 -0.4677  2.7872  2.9069
  141SAPE  C21715418   7.182   0.273   9.030  0.1278 -0.3706 -0.0955
  141SAPE  H17R15419   7.271   0.206   9.030  0.8484  0.5693 -0.3849
  141SAPE  H17S15420   7.217   0.355   8.964 -0.8708 -0.1846 -0.4228
  141SAPE  C21815421   7.051   0.212   8.979 -0.2419 -0.5340 -0.3680
  141SAPE  H18R15422   6.972   0.290   8.978  1.6164  1.4867  0.6334
  141SAPE  H18S15423   7.021   0.141   9.059 -0.6612  0.3475  0.2680
  141SAPE  C21915424   7.068   0.151   8.835  0.5164  0.0923  0.7626
  141SAPE  H19R15425   6.967   0.119   8.803  1.4652  0.4444 -3.1172
  141SAPE  H19S15426   7.140   0.067   8.842  0.7313  0.4218  3.4865
  141SAPE  C22015427   7.113   0.253   8.729 -0.2100 -0.0086  0.6581
  141SAPE  H20R15428   7.205   0.298   8.771  0.5177 -0.6519 -0.2067
  141SAPE  H20S15429   7.036   0.332   8.715  0.1781  0.3371  0.4478
  141SAPE  H20T15430   7.131   0.202   8.631  0.4025  0.6248  0.4291
  141SAPE   C3315431   7.340   0.983   9.984 -0.4795 -0.4504 -0.7060
  141SAPE   H3X15432   7.450   0.997   9.989 -0.6505  0.5646  1.3322
  141SAPE   H3Y15433   7.306   1.071  10.042  1.0632  0.6960 -1.4667
  141SAPE   C3415434   7.317   0.997   9.833 -0.2693 -0.2879  0.2291
  141SAPE   H4X15435   7.210   0.993   9.805 -0.3589 -2.2078  0.7360
  141SAPE   H4Y15436   7.367   0.925   9.764 -3.6740 -2.7330  0.0689
  141SAPE   C3515437   7.377   1.139   9.786  0.5051 -0.9633 -0.3794
  141SAPE   H5X15438   7.486   1.155   9.800  0.2879  1.2095 -0.9315
  141SAPE   H5Y15439   7.327   1.215   9.849  0.0560 -0.4604 -1.3281
  141SAPE   C3615440   7.353   1.174   9.641 -0.7042 -0.2969  0.2660
  141SAPE   H6X15441   7.389   1.279   9.633  1.4479 -1.1261 -2.0643
  141SAPE   H6Y15442   7.244   1.182   9.620 -0.4285  0.5860 -1.0056
  141SAPE   C3715443   7.434   1.081   9.544 -0.3248  0.0385 -0.1528
  141SAPE   H7X15444   7.409   0.974   9.563  1.9249 -0.5347 -0.1832
  141SAPE   H7Y15445   7.542   1.094   9.566  0.1935 -1.5371 -1.5632
  141SAPE   C3815446   7.413   1.113   9.399 -0.0593 -0.5894  0.9145
  141SAPE   H8X15447   7.450   1.217   9.387  0.9059 -0.7450  2.3638
  141SAPE   H8Y15448   7.303   1.106   9.382  0.1140 -4.8593  0.2813
  141SAPE   C3915449   7.490   1.026   9.304  0.1330 -0.3467 -0.4079
  141SAPE   H9X15450   7.457   0.922   9.325 -2.1032  0.1933 -1.0353
  141SAPE   H9Y15451   7.600   1.036   9.321 -0.2474  1.2417  1.5674
  141SAPE  C31015452   7.449   1.046   9.158 -0.3793  0.0962  0.0107
  141SAPE  H10X15453   7.341   1.026   9.142 -0.3551 -0.3161  0.3479
  141SAPE  H10Y15454   7.512   0.971   9.105 -0.5794  0.6825 -1.0764
  141SAPE  C31115455   7.487   1.186   9.103  0.2111 -0.1301 -0.0201
  141SAPE  H11X15456   7.593   1.197   9.134  0.7222  1.6793 -2.1443
  141SAPE  H11Y15457   7.432   1.272   9.147  0.8556  0.4170 -0.2639
  141SAPE  C31215458   7.496   1.205   8.953  0.1330 -0.4339  0.3946
  141SAPE  H12X15459   7.559   1.127   8.905  0.3905  1.0602 -1.9017
  141SAPE  H12Y15460   7.541   1.303   8.925 -1.1137 -0.2429 -1.0845
  141SAPE  C31315461   7.360   1.196   8.878  0.2699 -0.2230  0.2238
  141SAPE  H13X15462   7.286   1.269   8.918  0.8146  1.5512 -1.7996
  141SAPE  H13Y15463   7.312   1.096   8.881  0.5423 -0.3944 -0.7751
  141SAPE  C31415464   7.377   1.226   8.727 -0.2837  0.3772  0.4598
  141SAPE  H14X15465   7.402   1.334   8.720  1.4402 -0.0285 -0.1410
  141SAPE  H14Y15466   7.277   1.225   8.680 -0.3143  1.8141  0.4366
  141SAPE  C31515467   7.478   1.134   8.653  0.0259 -0.1932 -0.0889
  141SAPE  H15X15468   7.444   1.028   8.656 -1.9711  0.3646 -1.2963
  141SAPE  H15Y15469   7.581   1.159   8.687  0.3478  1.5492 -2.1806
  141SAPE  C31615470   7.481   1.176   8.506 -0.1846  0.4478 -0.8116
  141SAPE  H16X15471   7.497   1.286   8.495 -2.7032  0.9650  0.0560
  141SAPE  H16Y15472   7.376   1.162   8.471 -0.0767 -0.1192 -0.9208
  141SAPE  C31715473   7.568   1.093   8.414 -0.1691  0.4330  0.4792
  141SAPE  H17X15474   7.531   0.989   8.416 -2.5799  1.2043 -0.2231
  141SAPE  H17Y15475   7.672   1.097   8.453  0.5974 -0.5538 -1.3484
  141SAPE  C31815476   7.578   1.153   8.278 -0.4562  0.5551  0.1860
  141SAPE  H18X15477   7.479   1.139   8.230  0.5242 -1.4417 -1.4359
  141SAPE  H18Y15478   7.640   1.086   8.214 -1.2288 -1.5609  1.5587
  141SAPE  H18Z15479   7.615   1.257   8.289 -0.8579  0.6039  1.1156
  142SAPE     N15480   0.050   4.970  11.282  0.0913 -0.0656  0.6318
  142SAPE   HN115481   0.060   4.927  11.188 -2.4758 -0.6598  0.5440
  142SAPE   HN215482   0.025   4.895  11.349  2.1456 -1.7737 -0.4066
  142SAPE   HN315483  -0.028   5.039  11.271  1.0676  0.6963 -2.9009
  142SAPE   C1215484   0.175   5.045  11.320  0.7813  0.0360  0.5725
  142SAPE  H12A15485   0.258   4.971  11.330  0.1536 -0.6550  0.7602
  142SAPE  H12B15486   0.161   5.075  11.426 -1.2696  0.1048  0.3109
  142SAPE   C1115487   0.205   5.162  11.236  0.0155  0.5909 -0.1540
  142SAPE  H11A15488   0.297   5.210  11.275 -0.7539  1.7481  0.3025
  142SAPE  H11B15489   0.130   5.240  11.259 -1.4179 -0.2297 -1.7988
  142SAPE     P15490   0.346   5.135  11.016 -0.1767 -0.0046 -0.0741
  142SAPE   O1315491   0.368   5.273  10.963  0.5167  0.2781  0.1491
  142SAPE   O1415492   0.455   5.082  11.100  0.0742  0.2947  0.0535
  142SAPE   O1215493   0.211   5.129  11.098  0.3030 -0.1426  0.2224
  142SAPE   O1115494   0.330   5.035  10.892  0.1320  0.3598 -0.0661
  142SAPE    C115495   0.205   5.017  10.821 -0.1237 -0.2974  0.1150
  142SAPE    HA15496   0.180   4.909  10.813 -0.0358 -0.2032 -2.1838
  142SAPE    HB15497   0.121   5.071  10.868  0.1408 -0.4260  0.7383
  142SAPE    C215498   0.214   5.055  10.674  0.4342  0.6912  0.4600
  142SAPE    HS15499   0.291   4.996  10.620 -1.2187 -1.2342  0.0679
  142SAPE   O2115500   0.237   5.192  10.666 -0.2301  0.8267  0.5333
  142SAPE   C2115501   0.349   5.234  10.617 -0.5832 -0.1271  0.4705
  142SAPE   O2215502   0.441   5.163  10.574  0.6825 -0.2727 -0.4075
  142SAPE   C2215503   0.345   5.391  10.622  0.2915  0.0425 -0.3629
  142SAPE   H2R15504   0.260   5.418  10.557 -0.8805 -1.4449  0.4934
  142SAPE   H2S15505   0.317   5.410  10.727 -1.1511 -1.6439 -0.3974
  142SAPE    C315506   0.087   5.015  10.594  0.1622 -0.2734 -0.7202
  142SAPE    HX15507  -0.003   5.078  10.613 -0.1751 -1.0619  0.3542
  142SAPE    HY15508   0.054   4.916  10.631 -1.0973  0.2687 -0.3380
  142SAPE   O3115509   0.117   5.001  10.454  0.2460  0.2435 -0.9301
  142SAPE   C3115510   0.107   5.107  10.375  1.0293 -0.5027 -0.0045
  142SAPE   O3215511   0.065   5.215  10.412  0.3178 -0.0138 -0.5126
  142SAPE   C3215512   0.165   5.085  10.233  0.6358  0.0703  0.2247
  142SAPE   H2X15513   0.272   5.054  10.243  1.1879  1.2873 -1.5024
  142SAPE   H2Y15514   0.154   5.184  10.184 -0.4630 -1.6735 -3.4116
  142SAPE   C2315515   0.485   5.449  10.587 -1.1276  0.1508  0.7875
  142SAPE   H3R15516   0.560   5.373  10.620 -0.0661  1.8530  2.5332
  142SAPE   H3S15517   0.505   5.545  10.639 -0.7372 -0.6375  2.1447
  142SAPE   C2415518   0.519   5.478  10.441 -0.1030 -1.1477  0.1940
  142SAPE   H4R15519   0.508   5.384  10.383  0.4440 -2.0585  1.5069
  142SAPE   H4S15520   0.627   5.507  10.441 -0.3098 -0.2390 -2.0146
  142SAPE   C2515521   0.430   5.589  10.393 -0.1311  0.5936  0.3211
  142SAPE   H5R15522   0.440   5.681  10.453  1.7225  0.5156  0.1762
  142SAPE   C2615523   0.342   5.573  10.291  0.1065 -0.3963  0.0758
  142SAPE   H6R15524   0.279   5.661  10.272  0.2601 -0.3569 -0.2409
  142SAPE   C2715525   0.307   5.443  10.222 -0.0769  0.4496  0.0258
  142SAPE   H7R15526   0.293   5.360  10.295  0.6295  1.2515  1.0930
  142SAPE   H7S15527   0.396   5.409  10.165  0.3437 -0.1163  0.9911
  142SAPE   C2815528   0.181   5.460  10.136  0.0731 -1.3707  1.2074
  142SAPE   H8R15529   0.083   5.439  10.180 -1.8147 -0.8891 -2.3929
  142SAPE   C2915530   0.178   5.488  10.001  0.4446  0.2133  0.7230
  142SAPE   H9R15531   0.083   5.494   9.945  0.8927 -0.0743 -0.0848
  142SAPE  C21015532   0.295   5.513   9.912  1.0340  0.0148 -0.0512
  142SAPE  H10R15533   0.283   5.450   9.822 -1.8668  0.0627  0.2355
  142SAPE  H10S15534   0.393   5.487   9.958  0.5570 -1.3605  0.2502
  142SAPE  C21115535   0.304   5.655   9.865  0.6591 -0.0796 -0.0784
  142SAPE  H11R15536   0.362   5.726   9.926 -1.0149  0.8556  0.4824
  142SAPE  C21215537   0.259   5.723   9.759  0.4846 -0.1768 -0.6398
  142SAPE  H12R15538   0.276   5.831   9.746  2.0075 -0.4565 -1.1222
  142SAPE  C21315539   0.181   5.667   9.644 -0.2880  0.1495 -0.1464
  142SAPE  H13R15540   0.080   5.711   9.636 -0.0251  1.2391  1.8791
  142SAPE  H13S15541   0.150   5.561   9.656  1.7045 -0.3575  1.1867
  142SAPE  C21415542   0.255   5.674   9.514 -0.1907  0.1907  0.3795
  142SAPE  H14R15543   0.359   5.638   9.518 -0.0351  0.3976 -1.1991
  142SAPE  C21515544   0.212   5.700   9.390 -0.5958  0.3901 -0.0294
  142SAPE  H15R15545   0.288   5.692   9.311  1.2449  1.2887  1.5608
  142SAPE  C21615546   0.068   5.728   9.356  0.8111  0.7953 -0.0467
  142SAPE  H16R15547   0.065   5.837   9.333  3.5550  0.5515 -2.0976
  142SAPE  H16S15548  -0.011   5.719   9.434  0.9748  0.5357  0.0921
  142SAPE  C21715549   0.004   5.650   9.238 -0.0788  0.7541  0.1147
  142SAPE  H17R15550  -0.025   5.544   9.252 -2.5636  1.2879 -0.5263
  142SAPE  H17S15551   0.082   5.644   9.159  0.4564 -1.3283  0.7354
  142SAPE  C21815552  -0.104   5.734   9.169  0.7763 -0.0456  0.1040
  142SAPE  H18R15553  -0.079   5.838   9.140 -0.3870  0.3611  0.4831
  142SAPE  H18S15554  -0.190   5.737   9.240  0.0938  1.6424 -0.7295
  142SAPE  C21915555  -0.147   5.668   9.041  0.1258 -0.4701 -0.2281
  142SAPE  H19R15556  -0.196   5.571   9.063 -0.9144  0.1764  0.3577
  142SAPE  H19S15557  -0.064   5.649   8.969 -1.0323  2.5242 -2.5533
  142SAPE  C22015558  -0.248   5.759   8.964 -0.1005  0.5792 -0.2964
  142SAPE  H20R15559  -0.266   5.711   8.866  0.9422 -2.0101  0.7012
  142SAPE  H20S15560  -0.202   5.857   8.938  1.0348  0.1252 -0.0778
  142SAPE  H20T15561  -0.343   5.772   9.020  0.4014  2.3207  0.2365
  142SAPE   C3315562   0.092   4.984  10.136 -0.0840 -0.3075 -0.3830
  142SAPE   H3X15563  -0.016   5.008  10.141  0.1811  0.7415  0.8345
  142SAPE   H3Y15564   0.104   4.880  10.172  2.3067 -0.2044 -0.7134
  142SAPE   C3415565   0.147   4.996   9.988  0.1733  0.6008 -0.3327
  142SAPE   H4X15566   0.253   4.964   9.987  0.3896  1.2148 -2.0964
  142SAPE   H4Y15567   0.147   5.105   9.964 -0.2923  0.2643 -2.0029
  142SAPE   C3515568   0.054   4.929   9.887 -0.2972  0.8019 -0.3556
  142SAPE   H5X15569  -0.039   4.989   9.883 -0.5400  0.6287  1.4857
  142SAPE   H5Y15570   0.030   4.821   9.895  1.7535  0.3122 -0.3110
  142SAPE   C3615571   0.125   4.924   9.750  0.6260  0.0273 -0.2785
  142SAPE   H6X15572   0.213   4.858   9.766 -0.1742 -0.4474  2.7130
  142SAPE   H6Y15573   0.172   5.023   9.735  2.0408 -0.7124 -0.8971
  142SAPE   C3715574   0.035   4.886   9.632 -0.2791 -0.1707 -0.3311
  142SAPE   H7X15575  -0.065   4.933   9.640 -0.3379 -0.6569  3.3080
  142SAPE   H7Y15576   0.013   4.777   9.632 -1.5491  0.0603 -0.9473
  142SAPE   C3815577   0.090   4.914   9.487  0.1763 -0.1277 -0.1638
  142SAPE   H8X15578   0.190   4.867   9.470  0.6356  0.9104 -0.4143
  142SAPE   H8Y15579   0.117   5.021   9.489 -1.5791  0.3405  0.8444
  142SAPE   C3915580   0.008   4.884   9.366  0.2649  1.5165 -0.0375
  142SAPE   H9X15581  -0.096   4.915   9.388 -0.4959 -1.0220  0.2389
  142SAPE   H9Y15582   0.008   4.774   9.350 -1.1947  1.3766  0.8043
  142SAPE  C31015583   0.056   4.955   9.242  0.8337  0.1272  0.4422
  142SAPE  H10X15584   0.164   4.944   9.220  1.0224 -2.2283  2.2246
  142SAPE  H10Y15585   0.035   5.063   9.261 -0.5237  0.1980 -1.1456
  142SAPE  C31115586  -0.011   4.912   9.115 -0.6063 -0.0538  0.6779
  142SAPE  H11X15587  -0.119   4.924   9.134 -0.4687  0.1833  1.3554
  142SAPE  H11Y15588   0.010   4.806   9.089  2.3025  0.3901  0.7876
  142SAPE  C31215589   0.023   5.000   8.995 -0.4150  0.7829 -0.0593
  142SAPE  H12X15590   0.128   4.987   8.958 -1.6124 -0.5997 -3.3940
  142SAPE  H12Y15591   0.006   5.102   9.035  1.0458  0.4630  1.5094
  142SAPE  C31315592  -0.058   4.972   8.864  0.0405  0.1068 -0.3256
  142SAPE  H13X15593  -0.072   4.862   8.857 -0.3407  0.2324 -2.0957
  142SAPE  H13Y15594   0.002   5.003   8.776  2.0969  0.8342  1.2567
  142SAPE  C31415595  -0.190   5.035   8.857  0.2086 -0.6788  0.4326
  142SAPE  H14X15596  -0.181   5.145   8.847  0.8346 -0.8405 -0.9508
  142SAPE  H14Y15597  -0.246   5.029   8.953 -0.0718 -0.6892  0.2706
  142SAPE  C31515598  -0.278   4.983   8.737  0.1474  0.1163  0.2256
  142SAPE  H15X15599  -0.358   4.912   8.768  0.5481 -0.9549 -1.1130
  142SAPE  H15Y15600  -0.209   4.923   8.674 -0.3175 -1.0079  0.7637
  142SAPE  C31615601  -0.334   5.096   8.650 -0.1723  0.0720  0.0675
  142SAPE  H16X15602  -0.260   5.176   8.629 -1.1222  1.4232  1.6164
  142SAPE  H16Y15603  -0.420   5.138   8.706 -0.1626 -0.5152  0.5264
  142SAPE  C31715604  -0.396   5.049   8.517 -0.5938 -0.4428 -0.1861
  142SAPE  H17X15605  -0.466   4.969   8.550 -2.0178  1.0353  0.4518
  142SAPE  H17Y15606  -0.309   5.016   8.455 -0.1233 -1.8244  1.1343
  142SAPE  C31815607  -0.473   5.152   8.436  0.1075  0.3848  0.1872
  142SAPE  H18X15608  -0.406   5.207   8.366 -0.4014  1.9079  0.8528
  142SAPE  H18Y15609  -0.510   5.230   8.505  0.0906  1.9896 -1.5558
  142SAPE  H18Z15610  -0.562   5.116   8.379 -0.8122  2.9285 -0.1086
  143SAPE     N15611   0.061   6.461  10.864 -0.3266 -0.0907  0.0012
  143SAPE   HN115612   0.021   6.441  10.958  0.1975  1.3522  0.5556
  143SAPE   HN215613   0.163   6.468  10.883 -0.5870  0.3030  1.4147
  143SAPE   HN315614   0.037   6.556  10.828 -1.7088 -0.1881  0.5890
  143SAPE   C1215615   0.030   6.365  10.753 -0.1398 -0.3094 -0.2355
  143SAPE  H12A15616   0.116   6.378  10.684  0.3134 -0.6738  0.2504
  143SAPE  H12B15617  -0.063   6.406  10.707  0.6397  1.8128 -0.0004
  143SAPE   C1115618   0.026   6.219  10.797 -0.5137  0.1765  0.1518
  143SAPE  H11A15619   0.015   6.157  10.705  0.1851  0.8305 -0.3871
  143SAPE  H11B15620  -0.067   6.204  10.856 -1.3069  0.1732 -1.0651
  143SAPE     P15621   0.285   6.126  10.806 -0.2839 -0.1785  0.0324
  143SAPE   O1315622   0.398   6.180  10.882 -0.2789  0.0825 -0.1809
  143SAPE   O1415623   0.265   5.983  10.792 -0.2485  0.4850  0.2546
  143SAPE   O1215624   0.149   6.183  10.868 -0.1350  0.2657 -0.1285
  143SAPE   O1115625   0.291   6.190  10.659 -0.4536  0.0578 -0.1193
  143SAPE    C115626   0.397   6.276  10.617 -0.2344 -0.0337 -0.5985
  143SAPE    HA15627   0.427   6.350  10.694 -0.1639 -2.8996  2.3581
  143SAPE    HB15628   0.485   6.211  10.598  0.4218 -0.1112  2.3073
  143SAPE    C215629   0.359   6.328  10.482 -0.9116  0.2697  0.0709
  143SAPE    HS15630   0.271   6.395  10.490 -1.8216 -0.7179 -1.2950
  143SAPE   O2115631   0.326   6.222  10.395  0.5207 -0.3230 -0.2491
  143SAPE   C2115632   0.246   6.251  10.294  0.4500  0.1498  0.1790
  143SAPE   O2215633   0.183   6.355  10.285  0.1559 -0.0923  0.6003
  143SAPE   C2215634   0.236   6.133  10.201  0.4631 -0.3113  0.4298
  143SAPE   H2R15635   0.335   6.084  10.185  0.6807  0.7670 -1.9272
  143SAPE   H2S15636   0.159   6.060  10.235  3.4797 -2.3296  3.5358
  143SAPE    C315637   0.490   6.404  10.413  0.2014  0.2062 -1.0334
  143SAPE    HX15638   0.582   6.353  10.448  0.3615  0.5988 -0.8755
  143SAPE    HY15639   0.496   6.507  10.456  2.5905 -1.7245  4.1331
  143SAPE   O3115640   0.485   6.404  10.270 -0.0613  0.2345 -0.2485
  143SAPE   C3115641   0.530   6.506  10.209 -0.0968 -0.1504  0.0544
  143SAPE   O3215642   0.581   6.603  10.264 -0.0112 -0.1765 -0.2254
  143SAPE   C3215643   0.528   6.470  10.058 -0.8254 -0.3957 -0.4158
  143SAPE   H2X15644   0.432   6.417  10.040 -1.5094 -0.6687  3.1288
  143SAPE   H2Y15645   0.613   6.402  10.041  0.0001  0.4778  0.1085
  143SAPE   C2315646   0.206   6.182  10.056  0.3802 -0.7331  1.1403
  143SAPE   H3R15647   0.269   6.264  10.014 -0.4012 -1.6021 -1.9366
  143SAPE   H3S15648   0.101   6.217  10.051  0.9859  1.4288  2.3485
  143SAPE   C2415649   0.201   6.063   9.950  0.2997 -0.8170 -0.5681
  143SAPE   H4R15650   0.148   5.988  10.012 -0.0500 -1.0344 -1.1296
  143SAPE   H4S15651   0.304   6.020   9.956 -0.0166 -1.3835  1.7046
  143SAPE   C2515652   0.148   6.082   9.816 -0.1434  0.3880  0.1071
  143SAPE   H5R15653   0.043   6.057   9.793 -0.8916  2.9974  0.4292
  143SAPE   C2615654   0.236   6.119   9.723 -0.0035  0.1549 -0.0571
  143SAPE   H6R15655   0.202   6.138   9.621  0.2256 -2.1397 -0.6224
  143SAPE   C2715656   0.386   6.142   9.734  0.0849 -0.6925  0.0639
  143SAPE   H7R15657   0.450   6.052   9.725  0.2496 -0.5554 -0.1449
  143SAPE   H7S15658   0.390   6.172   9.842 -1.8810  0.3549 -0.1168
  143SAPE   C2815659   0.438   6.240   9.633  0.3870 -0.6058  0.2600
  143SAPE   H8R15660   0.465   6.340   9.671 -0.1259  0.0453 -1.0303
  143SAPE   C2915661   0.477   6.204   9.514 -1.2850  0.2778  0.1460
  143SAPE   H9R15662   0.536   6.276   9.455 -1.1746 -1.1688 -1.6126
  143SAPE  C21015663   0.472   6.069   9.446  0.6267 -0.0397  0.1416
  143SAPE  H10R15664   0.506   5.986   9.512 -0.3335  0.3945  1.2018
  143SAPE  H10S15665   0.559   6.069   9.376  1.1790 -0.7262  0.8073
  143SAPE  C21115666   0.345   6.039   9.368 -0.4158 -0.4263 -0.5999
  143SAPE  H11R15667   0.272   5.985   9.431 -1.5936  0.4854 -1.1412
  143SAPE  C21215668   0.307   6.058   9.242 -0.4192 -0.3217  0.1388
  143SAPE  H12R15669   0.204   6.029   9.214 -1.2575  0.6432  2.0187
  143SAPE  C21315670   0.386   6.114   9.136  0.0688  0.6549  0.6178
  143SAPE  H13R15671   0.455   6.186   9.185  0.2574 -0.7076  2.4540
  143SAPE  H13S15672   0.320   6.169   9.067 -1.1377 -2.5004 -0.9490
  143SAPE  C21415673   0.475   6.023   9.052 -0.0917  0.1262  0.0636
  143SAPE  H14R15674   0.583   6.023   9.072  0.3932  0.1458 -2.2807
  143SAPE  C21515675   0.436   5.933   8.959  0.4351  0.0855 -0.1504
  143SAPE  H15R15676   0.515   5.867   8.918  1.4238  0.2044  1.4737
  143SAPE  C21615677   0.290   5.895   8.920  0.2900  0.6690 -0.2676
  143SAPE  H16R15678   0.251   5.996   8.896  1.2157  1.5743  1.7594
  143SAPE  H16S15679   0.222   5.854   8.998  0.3618  1.9858  0.5094
  143SAPE  C21715680   0.273   5.810   8.789 -0.1643  0.4818 -1.1685
  143SAPE  H17R15681   0.323   5.713   8.811  0.9538  1.0873 -0.9863
  143SAPE  H17S15682   0.323   5.857   8.702 -0.6808 -2.0125 -2.9393
  143SAPE  C21815683   0.126   5.787   8.741  0.0572  0.3949 -0.1173
  143SAPE  H18R15684   0.065   5.719   8.805  1.2536 -0.0032  0.6222
  143SAPE  H18S15685   0.137   5.754   8.636  0.4809 -0.8536  0.3010
  143SAPE  C21915686   0.047   5.915   8.732 -0.1992 -0.9290  0.1416
  143SAPE  H19R15687   0.034   5.954   8.836  0.4847 -0.8772  0.2094
  143SAPE  H19S15688  -0.055   5.898   8.692  0.5603  0.6999 -2.7661
  143SAPE  C22015689   0.109   6.028   8.636 -0.0121  0.5277 -0.9007
  143SAPE  H20R15690   0.127   5.984   8.536  1.1501  0.1274 -0.5325
  143SAPE  H20S15691   0.203   6.070   8.679  0.7455 -1.5086 -0.4420
  143SAPE  H20T15692   0.045   6.118   8.622  1.3087  1.7273  0.4233
  143SAPE   C3315693   0.528   6.598   9.969  0.1889  0.5641  0.1880
  143SAPE   H3X15694   0.632   6.639   9.967  0.3277  0.2498  0.7177
  143SAPE   H3Y15695   0.462   6.672  10.019 -0.6884  1.0993 -1.6816
  143SAPE   C3415696   0.481   6.571   9.821 -0.6217  0.5514 -1.0284
  143SAPE   H4X15697   0.380   6.532   9.842  0.6674 -2.0305  0.9189
  143SAPE   H4Y15698   0.542   6.487   9.781 -0.4730 -0.2967  0.8707
  143SAPE   C3515699   0.479   6.687   9.723 -1.2220  0.2818 -0.1472
  143SAPE   H5X15700   0.586   6.702   9.698 -0.6870 -3.7338 -0.9345
  143SAPE   H5Y15701   0.441   6.777   9.777 -0.3632  0.3401  0.3751
  143SAPE   C3615702   0.405   6.653   9.591 -0.0137  0.3477  0.0209
  143SAPE   H6X15703   0.474   6.576   9.549  0.4068 -0.0836  1.4200
  143SAPE   H6Y15704   0.404   6.743   9.526  0.2020 -0.4145 -1.0582
  143SAPE   C3715705   0.268   6.596   9.607  0.2636 -0.1023  1.0290
  143SAPE   H7X15706   0.201   6.652   9.675 -2.9279 -1.1014 -1.0791
  143SAPE   H7Y15707   0.263   6.487   9.628 -1.7429 -0.1313  0.6327
  143SAPE   C3815708   0.191   6.603   9.470 -0.2718 -0.2437  0.0775
  143SAPE   H8X15709   0.214   6.706   9.435 -1.4734 -0.3329 -1.0607
  143SAPE   H8Y15710   0.081   6.606   9.483 -0.4245 -0.4425 -1.0227
  143SAPE   C3915711   0.227   6.501   9.353  0.8163  0.9017 -0.5032
  143SAPE   H9X15712   0.198   6.397   9.380  1.1559  1.0826  0.6000
  143SAPE   H9Y15713   0.337   6.497   9.364  0.6481  1.4157  1.9675
  143SAPE  C31015714   0.170   6.546   9.219 -0.4170  0.4593 -0.5912
  143SAPE  H10X15715   0.197   6.651   9.194  2.0317 -0.1736 -0.8589
  143SAPE  H10Y15716   0.059   6.546   9.222 -0.4923 -2.8343  1.6450
  143SAPE  C31115717   0.195   6.460   9.091  0.8766  0.1385 -1.1099
  143SAPE  H11X15718   0.144   6.362   9.091  1.2668 -0.0721 -1.5737
  143SAPE  H11Y15719   0.305   6.444   9.100  0.7286  0.2538  3.0163
  143SAPE  C31215720   0.176   6.543   8.970  0.2623  0.2015 -0.4162
  143SAPE  H12X15721   0.247   6.627   8.959  2.3647 -1.2127  1.4490
  143SAPE  H12Y15722   0.075   6.588   8.963 -0.0054 -0.4057 -0.5715
  143SAPE  C31315723   0.181   6.458   8.844  0.0111 -0.1052 -0.1436
  143SAPE  H13X15724   0.090   6.394   8.845  1.4761 -2.3754  2.2614
  143SAPE  H13Y15725   0.263   6.384   8.832 -0.5772 -0.7231 -0.4227
  143SAPE  C31415726   0.183   6.543   8.721 -0.2655 -0.4169  0.7700
  143SAPE  H14X15727   0.186   6.480   8.630 -1.3267  0.4179  0.1397
  143SAPE  H14Y15728   0.274   6.606   8.719 -0.0695 -0.7094 -0.6808
  143SAPE  C31515729   0.063   6.626   8.703  0.1580 -0.3945 -0.0681
  143SAPE  H15X15730   0.073   6.710   8.775 -1.7177  0.2192 -0.4630
  143SAPE  H15Y15731  -0.031   6.572   8.728  0.3971 -0.9302 -0.3281
  143SAPE  C31615732   0.042   6.691   8.562  0.3545  0.0433 -0.5041
  143SAPE  H16X15733  -0.040   6.766   8.567 -1.1641 -1.3804 -2.4600
  143SAPE  H16Y15734   0.011   6.617   8.485 -2.0038  2.0412 -1.6079
  143SAPE  C31715735   0.163   6.765   8.510  0.3329 -0.0728  0.1497
  143SAPE  H17X15736   0.235   6.705   8.450  2.3544 -0.4567  2.7706
  143SAPE  H17Y15737   0.217   6.799   8.601  0.6542  1.6032 -0.6141
  143SAPE  C31815738   0.124   6.886   8.424 -0.2509  0.7805  0.4361
  143SAPE  H18X15739   0.215   6.948   8.412  1.2940 -1.4107  0.0054
  143SAPE  H18Y15740   0.048   6.952   8.470 -0.3783  1.2393 -0.4089
  143SAPE  H18Z15741   0.086   6.857   8.324  1.7851 -1.0629  0.0999
  144SAPE     N15742   5.404   3.316  10.641 -0.0655 -0.5176  0.0540
  144SAPE   HN115743   5.332   3.369  10.590 -0.5195 -2.2784 -1.2205
  144SAPE   HN215744   5.496   3.312  10.593  0.3407 -0.2723  0.7843
  144SAPE   HN315745   5.362   3.221  10.633  0.8533 -0.9438  0.1202
  144SAPE   C1215746   5.411   3.368  10.784  0.4231  0.4095  0.6309
  144SAPE  H12A15747   5.428   3.277  10.845 -1.7461 -1.4944 -1.4186
  144SAPE  H12B15748   5.308   3.406  10.801 -0.1684 -1.3281  1.1115
  144SAPE   C1115749   5.517   3.482  10.788 -0.2633  1.0400  0.1476
  144SAPE  H11A15750   5.526   3.521  10.892 -1.9569  0.0360  0.7080
  144SAPE  H11B15751   5.486   3.571  10.730  1.1123  0.4642 -1.5483
  144SAPE     P15752   5.742   3.364  10.807 -0.4157  0.2166 -0.0223
  144SAPE   O1315753   5.818   3.448  10.905 -0.0407 -0.0183  0.2022
  144SAPE   O1415754   5.701   3.232  10.856  0.4784 -0.1028 -0.8525
  144SAPE   O1215755   5.641   3.446  10.727  0.0231  0.1481 -0.6190
  144SAPE   O1115756   5.847   3.333  10.694  0.3045 -0.1320  0.3626
  144SAPE    C115757   5.906   3.435  10.615 -0.2007 -0.7571 -0.0915
  144SAPE    HA15758   5.923   3.531  10.669  1.9398 -1.2307  0.1830
  144SAPE    HB15759   6.009   3.395  10.612  0.4080  0.4527  2.0310
  144SAPE    C215760   5.854   3.446  10.471  0.4777  0.1491 -0.0377
  144SAPE    HS15761   5.755   3.496  10.474  1.2368  1.9627 -2.2627
  144SAPE   O2115762   5.838   3.317  10.405  0.1734  0.8690 -0.6570
  144SAPE   C2115763   5.720   3.263  10.415 -0.1520 -0.1851  0.3362
  144SAPE   O2215764   5.620   3.307  10.469 -0.0703  0.4885 -0.3297
  144SAPE   C2215765   5.722   3.141  10.326 -0.5340 -0.0231  0.4301
  144SAPE   H2R15766   5.627   3.087  10.348  0.4045 -1.5814  0.7990
  144SAPE   H2S15767   5.721   3.179  10.222  2.4800 -1.2774 -0.1481
  144SAPE    C315768   5.942   3.541  10.383 -0.1801 -0.2099  0.4679
  144SAPE    HX15769   6.041   3.491  10.383  0.0783  0.2829 -0.7034
  144SAPE    HY15770   5.944   3.636  10.441 -0.6977 -0.2336  0.5374
  144SAPE   O3115771   5.887   3.558  10.248  0.4895 -0.3311 -0.3060
  144SAPE   C3115772   5.799   3.656  10.240 -0.4745 -0.7161  0.8653
  144SAPE   O3215773   5.770   3.733  10.333 -0.6322  0.2691  0.4064
  144SAPE   C3215774   5.730   3.667  10.102  0.1087  0.3082 -0.0206
  144SAPE   H2X15775   5.801   3.711  10.028  0.7825  0.3181  0.6145
  144SAPE   H2Y15776   5.645   3.738  10.113  0.6092  1.0055 -0.5481
  144SAPE   C2315777   5.842   3.041  10.340  0.4140 -0.1174  0.7116
  144SAPE   H3R15778   5.848   2.985  10.436  1.0216 -0.2874  0.5786
  144SAPE   H3S15779   5.931   3.108  10.340  0.8171 -0.6313  1.6660
  144SAPE   C2415780   5.861   2.942  10.226  0.6108  0.1964  0.8747
  144SAPE   H4R15781   5.784   2.864  10.242  0.4292  0.4550  1.2659
  144SAPE   H4S15782   5.956   2.885  10.237  0.8183  0.5248  0.8044
  144SAPE   C2515783   5.858   3.006  10.085  0.2500 -0.6110 -0.7899
  144SAPE   H5R15784   5.906   3.105  10.088  1.0755 -0.9284 -2.4133
  144SAPE   C2615785   5.794   2.964   9.976 -0.6435 -0.4210  0.3643
  144SAPE   H6R15786   5.816   3.012   9.879 -0.5925  0.8065  0.9556
  144SAPE   C2715787   5.716   2.839   9.961  0.1792 -0.4207  0.1359
  144SAPE   H7R15788   5.723   2.781  10.055 -0.1009 -0.9559 -0.1665
  144SAPE   H7S15789   5.756   2.773   9.881  0.2108 -1.7293  1.1897
  144SAPE   C2815790   5.565   2.873   9.938  0.3598  0.4292 -0.8363
  144SAPE   H8R15791   5.513   2.904  10.030  2.2362 -3.0296  1.6106
  144SAPE   C2915792   5.501   2.881   9.821  0.2329 -0.1383 -0.4550
  144SAPE   H9R15793   5.403   2.931   9.814  0.9873  1.1783 -2.7915
  144SAPE  C21015794   5.542   2.857   9.678 -0.8171  0.3793 -0.5682
  144SAPE  H10R15795   5.471   2.801   9.614  0.9555 -2.0075 -0.5829
  144SAPE  H10S15796   5.620   2.778   9.686 -2.2178 -0.8533  1.8838
  144SAPE  C21115797   5.588   2.988   9.602 -0.6268  0.1141  0.4562
  144SAPE  H11R15798   5.655   3.050   9.663 -1.6660  0.8842  0.8533
  144SAPE  C21215799   5.554   3.025   9.475  0.5647  0.2021 -0.0296
  144SAPE  H12R15800   5.595   3.121   9.439 -0.9226  1.2866  1.0826
  144SAPE  C21315801   5.467   2.944   9.382  0.4139  0.4778 -0.3391
  144SAPE  H13R15802   5.400   2.869   9.429 -1.0228  1.2633 -1.0805
  144SAPE  H13S15803   5.533   2.894   9.308 -0.9635  2.6003 -3.1758
  144SAPE  C21415804   5.385   3.033   9.301 -0.1504 -0.2044  0.0807
  144SAPE  H14R15805   5.316   3.100   9.353  0.3270  1.4383 -1.3213
  144SAPE  C21515806   5.395   3.059   9.172 -0.0485 -0.3787 -0.0245
  144SAPE  H15R15807   5.327   3.136   9.133  0.7182  0.6146  0.5611
  144SAPE  C21615808   5.475   2.983   9.064 -0.1581 -0.7551  0.5249
  144SAPE  H16R15809   5.554   2.917   9.105  1.3819 -0.1898 -1.4151
  144SAPE  H16S15810   5.536   3.059   9.012 -0.4228  0.3818  1.8055
  144SAPE  C21715811   5.385   2.899   8.966 -0.8002 -0.0633  0.4575
  144SAPE  H17R15812   5.302   2.855   9.026 -0.4125  1.0331  1.8788
  144SAPE  H17S15813   5.454   2.820   8.929 -0.1163  0.0356  1.4709
  144SAPE  C21815814   5.329   2.961   8.839  0.3142 -0.7153  0.7308
  144SAPE  H18R15815   5.411   2.979   8.766  1.1116 -0.1686  1.7234
  144SAPE  H18S15816   5.294   3.061   8.873 -3.4043 -2.2184  1.7818
  144SAPE  C21915817   5.211   2.879   8.782  0.4833 -0.1762 -0.1952
  144SAPE  H19R15818   5.128   2.895   8.854 -0.7919  0.3455 -1.7100
  144SAPE  H19S15819   5.238   2.771   8.783  2.7727  0.3620  0.4726
  144SAPE  C22015820   5.171   2.908   8.641  0.2614  0.2638 -0.3124
  144SAPE  H20R15821   5.103   2.821   8.626  0.1172  0.1414  0.9164
  144SAPE  H20S15822   5.267   2.891   8.589 -0.2984 -1.5177 -0.8304
  144SAPE  H20T15823   5.121   3.003   8.615 -1.4185 -0.7277 -0.8901
  144SAPE   C3315824   5.674   3.539  10.045  0.2236  0.2993  0.0212
  144SAPE   H3X15825   5.606   3.561   9.960 -0.0414 -3.0849 -0.7688
  144SAPE   H3Y15826   5.615   3.474  10.114 -1.6442 -0.9592 -2.6089
  144SAPE   C3415827   5.773   3.442   9.981  0.1304  0.2906 -0.1327
  144SAPE   H4X15828   5.846   3.398  10.052 -3.5944 -2.5322  2.3096
  144SAPE   H4Y15829   5.829   3.498   9.902  1.0499  1.3448  1.2108
  144SAPE   C3515830   5.705   3.313   9.923 -0.0052  0.1776 -0.1253
  144SAPE   H5X15831   5.665   3.257  10.010 -1.8927  3.1777  1.0926
  144SAPE   H5Y15832   5.787   3.248   9.884  0.5386  1.4653 -1.2075
  144SAPE   C3615833   5.596   3.332   9.819 -0.3986  0.2836  0.8299
  144SAPE   H6X15834   5.523   3.407   9.856 -2.0350  1.1687 -3.5223
  144SAPE   H6Y15835   5.546   3.233   9.806 -0.6340  0.4692  0.2863
  144SAPE   C3715836   5.653   3.393   9.688  0.1279  0.0521 -0.7792
  144SAPE   H7X15837   5.746   3.337   9.667  0.2205 -0.5730  1.0767
  144SAPE   H7Y15838   5.694   3.494   9.709  2.6283 -1.0335 -0.0382
  144SAPE   C3815839   5.552   3.388   9.570  0.3490 -0.0239 -0.1777
  144SAPE   H8X15840   5.460   3.449   9.583 -0.7399 -1.3479 -1.4041
  144SAPE   H8Y15841   5.517   3.284   9.560  0.3628  0.0807 -1.4872
  144SAPE   C3915842   5.612   3.442   9.438 -0.0580  0.6565  0.1419
  144SAPE   H9X15843   5.694   3.372   9.413 -2.2007 -1.7492 -0.6405
  144SAPE   H9Y15844   5.640   3.549   9.451  1.9143  0.0994  0.7260
  144SAPE  C31015845   5.518   3.438   9.315  0.2462  0.4230  0.2749
  144SAPE  H10X15846   5.422   3.485   9.347 -0.6831 -0.3622 -1.2691
  144SAPE  H10Y15847   5.496   3.335   9.279 -1.3137  0.9383 -0.3291
  144SAPE  C31115848   5.574   3.516   9.203  1.0610 -0.3956  0.0534
  144SAPE  H11X15849   5.680   3.492   9.178  0.6881 -0.5758 -1.4089
  144SAPE  H11Y15850   5.570   3.624   9.231 -4.2760 -0.6635  1.2979
  144SAPE  C31215851   5.488   3.501   9.072  0.2658  0.4744  0.1416
  144SAPE  H12X15852   5.493   3.598   9.019 -0.2463 -0.8164 -2.4449
  144SAPE  H12Y15853   5.384   3.475   9.099  0.5196 -0.3973  0.3135
  144SAPE  C31315854   5.553   3.399   8.973 -0.6821  0.5558  1.1046
  144SAPE  H13X15855   5.575   3.303   9.024  2.9544  0.5872 -0.1568
  144SAPE  H13Y15856   5.651   3.433   8.935 -0.4788 -1.7743 -0.6978
  144SAPE  C31415857   5.470   3.389   8.842  0.6337 -0.4463  0.5173
  144SAPE  H14X15858   5.456   3.494   8.810 -2.4487 -0.9520 -0.1088
  144SAPE  H14Y15859   5.369   3.354   8.871 -0.4492  0.1612 -2.2093
  144SAPE  C31515860   5.526   3.295   8.738 -0.2971  0.3007  0.1573
  144SAPE  H15X15861   5.480   3.198   8.767 -1.2509  1.2922  2.1493
  144SAPE  H15Y15862   5.636   3.281   8.745 -0.4205  0.1033  2.0773
  144SAPE  C31615863   5.484   3.325   8.597  0.9615 -0.2456 -0.0959
  144SAPE  H16X15864   5.380   3.288   8.598  1.6383 -2.2870  0.1413
  144SAPE  H16Y15865   5.539   3.250   8.536 -0.2047  0.1315 -1.6406
  144SAPE  C31715866   5.493   3.457   8.538  0.1486 -1.5518  0.7668
  144SAPE  H17X15867   5.595   3.500   8.548  0.0273 -0.7768 -1.0067
  144SAPE  H17Y15868   5.423   3.524   8.593  1.5937  1.2004 -0.5624
  144SAPE  C31815869   5.456   3.462   8.387 -0.1548  0.6737 -0.1167
  144SAPE  H18X15870   5.457   3.566   8.349 -0.0206  0.8367  0.3233
  144SAPE  H18Y15871   5.355   3.421   8.365  0.0263  0.5177 -0.6692
  144SAPE  H18Z15872   5.528   3.399   8.330 -0.4671  2.5761 -2.7923
  145SAPE     N15873   1.439   5.442  11.170  0.3793  0.2572  0.3638
  145SAPE   HN115874   1.459   5.341  11.181  0.6244 -0.1936 -3.1298
  145SAPE   HN215875   1.508   5.497  11.115 -0.6736  0.5916 -0.6799
  145SAPE   HN315876   1.433   5.499  11.257  0.6034  0.0443  0.5179
  145SAPE   C1215877   1.310   5.466  11.093  0.1576 -0.0801 -0.2702
  145SAPE  H12A15878   1.299   5.576  11.081  2.0873  0.0383 -1.4254
  145SAPE  H12B15879   1.232   5.430  11.163  0.5174 -1.3384 -0.4889
  145SAPE   C1115880   1.314   5.386  10.964 -0.3785  0.4665 -0.9846
  145SAPE  H11A15881   1.369   5.440  10.884  0.1562  0.1729 -0.8198
  145SAPE  H11B15882   1.209   5.379  10.928 -0.8166  1.5548  0.0545
  145SAPE     P15883   1.276   5.130  11.006 -0.3249  0.0304  0.0385
  145SAPE   O1315884   1.360   5.008  11.033 -0.2591  0.1462 -0.0452
  145SAPE   O1415885   1.169   5.153  11.097  0.2157 -0.0533 -0.1424
  145SAPE   O1215886   1.364   5.259  10.989  0.3154  0.5005 -0.4609
  145SAPE   O1115887   1.220   5.114  10.858  0.2682 -1.1486  0.1166
  145SAPE    C115888   1.281   5.148  10.731  0.0150 -0.6651  0.3872
  145SAPE    HA15889   1.383   5.190  10.742  0.3496 -1.0409 -1.0844
  145SAPE    HB15890   1.298   5.056  10.671  0.0804 -0.9895  0.8931
  145SAPE    C215891   1.190   5.239  10.651 -1.2054 -0.1414  0.0234
  145SAPE    HS15892   1.193   5.338  10.701  4.2896 -0.9047  1.8854
  145SAPE   O2115893   1.054   5.197  10.639  0.6753 -0.2894 -0.2674
  145SAPE   C2115894   1.019   5.094  10.564  0.3477  0.4720 -0.2360
  145SAPE   O2215895   1.093   5.007  10.527 -0.4362  0.4563  0.6069
  145SAPE   C2215896   0.874   5.104  10.538  0.1493 -0.2106  0.7398
  145SAPE   H2R15897   0.816   5.094  10.631 -1.6949 -1.0287 -0.4436
  145SAPE   H2S15898   0.856   5.207  10.501  0.5925 -0.4421 -0.1632
  145SAPE    C315899   1.260   5.257  10.511  0.9706 -0.7377 -0.4072
  145SAPE    HX15900   1.300   5.166  10.461  0.9848 -0.9466 -0.0166
  145SAPE    HY15901   1.349   5.324  10.516 -0.3602  1.0852 -0.2327
  145SAPE   O3115902   1.157   5.302  10.411 -0.6020  0.5388 -0.4279
  145SAPE   C3115903   1.158   5.434  10.388 -0.1460  0.1158  0.6421
  145SAPE   O3215904   1.218   5.514  10.455 -0.6126 -0.3316  0.1662
  145SAPE   C3215905   1.068   5.469  10.267  0.5206 -0.5062 -0.7211
  145SAPE   H2X15906   1.037   5.368  10.231  2.3510 -1.8894  1.2909
  145SAPE   H2Y15907   1.126   5.528  10.193  0.9331  0.8250  0.6235
  145SAPE   C2315908   0.823   5.004  10.429 -0.1280 -0.2947 -0.3187
  145SAPE   H3R15909   0.831   4.901  10.471 -0.1752  0.0553  0.5710
  145SAPE   H3S15910   0.887   5.021  10.340  0.9782  0.4885  0.6073
  145SAPE   C2415911   0.673   5.022  10.392  0.0420 -0.0208  0.2728
  145SAPE   H4R15912   0.612   5.011  10.484  0.5106 -2.7000  0.3558
  145SAPE   H4S15913   0.640   4.932  10.336 -0.7552  0.9095 -0.7921
  145SAPE   C2515914   0.626   5.142  10.319 -0.8975  0.3865 -0.9847
  145SAPE   H5R15915   0.609   5.236  10.374 -0.7055 -2.0293  3.7093
  145SAPE   C2615916   0.590   5.147  10.191  0.3947  1.2389 -0.6450
  145SAPE   H6R15917   0.574   5.246  10.146 -1.2905  1.8174  1.1206
  145SAPE   C2715918   0.591   5.036  10.092 -0.3672  0.5532 -0.2619
  145SAPE   H7R15919   0.494   4.991  10.062 -0.9403 -0.0961  2.3057
  145SAPE   H7S15920   0.646   4.948  10.132  0.3421  0.9746 -0.2975
  145SAPE   C2815921   0.676   5.066   9.966  0.9334  0.1809 -0.1220
  145SAPE   H8R15922   0.785   5.058   9.970  0.9748 -0.6346 -1.7116
  145SAPE   C2915923   0.625   5.087   9.843  0.8401 -0.5970  1.0598
  145SAPE   H9R15924   0.702   5.123   9.774 -0.2364 -1.1578 -0.4792
  145SAPE  C21015925   0.484   5.092   9.793  0.0904  0.7726 -0.3337
  145SAPE  H10R15926   0.446   5.192   9.823  0.1814  0.0042  2.6353
  145SAPE  H10S15927   0.418   5.028   9.856  1.8689 -1.6226 -0.7874
  145SAPE  C21115928   0.482   5.057   9.644  0.0437 -0.4715 -0.9805
  145SAPE  H11R15929   0.549   4.983   9.597  1.4130  0.2426 -0.2082
  145SAPE  C21215930   0.424   5.131   9.550  0.7885  0.5206  0.3446
  145SAPE  H12R15931   0.435   5.097   9.446  1.7242 -2.8218  1.4104
  145SAPE  C21315932   0.347   5.258   9.572  0.3404  0.2267  0.5293
  145SAPE  H13R15933   0.420   5.341   9.563 -1.8505  2.5096  2.4651
  145SAPE  H13S15934   0.299   5.267   9.672  0.9615  1.1646  0.7512
  145SAPE  C21415935   0.231   5.279   9.469 -0.7354  0.2043  0.9972
  145SAPE  H14R15936   0.128   5.253   9.499 -0.0881 -4.1965  0.1358
  145SAPE  C21515937   0.258   5.336   9.350  0.9142  0.5466  0.2965
  145SAPE  H15R15938   0.167   5.357   9.292  1.6914 -0.3732 -1.3242
  145SAPE  C21615939   0.385   5.377   9.298  0.3977 -0.1166  0.1834
  145SAPE  H16R15940   0.473   5.326   9.343  0.5712 -2.7702 -2.8560
  145SAPE  H16S15941   0.413   5.484   9.312  0.7103  0.2229 -2.4648
  145SAPE  C21715942   0.398   5.355   9.146 -0.2709 -0.9452  0.1008
  145SAPE  H17R15943   0.506   5.373   9.127 -0.8633  3.8606 -0.0063
  145SAPE  H17S15944   0.335   5.428   9.091  1.3125 -1.3952 -2.4733
  145SAPE  C21815945   0.360   5.226   9.074  0.0299 -0.9291 -0.4558
  145SAPE  H18R15946   0.252   5.213   9.097  0.9442 -2.1162  4.3778
  145SAPE  H18S15947   0.409   5.144   9.130  0.3676 -0.5616 -0.2092
  145SAPE  C21915948   0.391   5.212   8.924 -0.0598 -0.2530 -1.0491
  145SAPE  H19R15949   0.347   5.117   8.888 -1.4344  0.1091 -0.3927
  145SAPE  H19S15950   0.500   5.203   8.908 -0.3388 -1.5225 -2.5099
  145SAPE  C22015951   0.317   5.319   8.836  0.2586  0.8231 -0.2458
  145SAPE  H20R15952   0.312   5.299   8.727  0.4220 -1.2148  0.0721
  145SAPE  H20S15953   0.354   5.421   8.859 -1.7631  1.3350  1.0003
  145SAPE  H20T15954   0.209   5.307   8.860 -0.1575 -1.4985 -2.7384
  145SAPE   C3315955   0.943   5.553  10.320 -0.1287 -0.0589 -0.4343
  145SAPE   H3X15956   0.973   5.642  10.380 -0.2689 -0.0958 -0.3098
  145SAPE   H3Y15957   0.884   5.492  10.391 -1.0260 -0.4298 -1.4743
  145SAPE   C3415958   0.853   5.588  10.198  0.5617 -0.2145 -0.5113
  145SAPE   H4X15959   0.911   5.636  10.116 -0.5209  3.6212  0.7487
  145SAPE   H4Y15960   0.790   5.675  10.227 -1.3822 -1.2368 -1.4263
  145SAPE   C3515961   0.775   5.474  10.138 -0.2903  1.0721  0.4487
  145SAPE   H5X15962   0.700   5.429  10.206  0.6940 -0.0319  0.8518
  145SAPE   H5Y15963   0.844   5.393  10.105  0.5891  2.6204 -1.7236
  145SAPE   C3615964   0.684   5.521  10.020  0.7295  0.0752  0.0378
  145SAPE   H6X15965   0.613   5.598  10.057 -0.0982 -0.5304 -0.2635
  145SAPE   H6Y15966   0.613   5.443   9.984 -0.2189  1.6675 -1.7395
  145SAPE   C3715967   0.763   5.569   9.895  0.7638 -0.2821  0.4674
  145SAPE   H7X15968   0.832   5.487   9.866 -1.0452 -2.2649  1.4454
  145SAPE   H7Y15969   0.836   5.651   9.912  1.8170 -0.5140 -2.4417
  145SAPE   C3815970   0.682   5.610   9.766  0.0159 -1.0355 -0.4749
  145SAPE   H8X15971   0.644   5.713   9.784 -0.2579 -1.1117 -0.6128
  145SAPE   H8Y15972   0.607   5.532   9.746  0.2457 -0.6432 -3.2001
  145SAPE   C3915973   0.780   5.631   9.653  0.2114  0.3441 -0.2055
  145SAPE   H9X15974   0.833   5.536   9.633 -0.5220 -0.0770 -0.1681
  145SAPE   H9Y15975   0.860   5.708   9.666 -2.5472  3.6403 -1.2485
  145SAPE  C31015976   0.699   5.668   9.528 -1.0139  0.6502 -0.1478
  145SAPE  H10X15977   0.672   5.776   9.531 -1.4835  0.5411  2.5069
  145SAPE  H10Y15978   0.616   5.596   9.517  0.6519 -1.6966  1.5410
  145SAPE  C31115979   0.792   5.639   9.406  0.6282 -0.0861 -0.0153
  145SAPE  H11X15980   0.836   5.538   9.390  0.2264  0.0779 -2.8305
  145SAPE  H11Y15981   0.883   5.703   9.413  3.1391 -3.1736 -1.7469
  145SAPE  C31215982   0.718   5.647   9.274  0.3046  0.9474 -0.3692
  145SAPE  H12X15983   0.670   5.746   9.255 -2.2432 -0.5290 -2.3245
  145SAPE  H12Y15984   0.635   5.573   9.283  0.7798  0.2343 -1.6062
  145SAPE  C31315985   0.789   5.591   9.159  0.0242  0.2623 -0.5932
  145SAPE  H13X15986   0.807   5.483   9.176 -0.8322  0.0050 -1.2456
  145SAPE  H13Y15987   0.893   5.628   9.173 -0.9906  2.5881  1.5187
  145SAPE  C31415988   0.736   5.602   9.019  0.1130 -0.7139  0.4875
  145SAPE  H14X15989   0.736   5.707   8.981 -1.8514 -0.3037  1.4710
  145SAPE  H14Y15990   0.633   5.560   9.024  1.5588 -4.6215  0.9582
  145SAPE  C31515991   0.814   5.518   8.924 -0.2459  0.8670  0.3851
  145SAPE  H15X15992   0.799   5.412   8.955 -0.3364  0.1668 -1.8947
  145SAPE  H15Y15993   0.922   5.545   8.915 -0.3086  0.6070 -1.4944
  145SAPE  C31615994   0.760   5.537   8.788  0.0434  0.2126 -0.0866
  145SAPE  H16X15995   0.771   5.644   8.759  0.1102  0.0210 -0.8073
  145SAPE  H16Y15996   0.656   5.505   8.769  0.2718 -0.7589  0.2616
  145SAPE  C31715997   0.843   5.456   8.684 -0.6180 -0.2117  0.4722
  145SAPE  H17X15998   0.918   5.397   8.740  0.2418 -0.3007 -0.7393
  145SAPE  H17Y15999   0.903   5.522   8.619 -0.9380 -0.2058  0.1744
  145SAPE  C31816000   0.770   5.358   8.586  0.9259 -0.2357 -0.1644
  145SAPE  H18X16001   0.681   5.419   8.556 -0.4644 -1.5200  1.1702
  145SAPE  H18Y16002   0.721   5.269   8.629 -0.6089  0.1750 -0.9779
  145SAPE  H18Z16003   0.839   5.315   8.511  0.7592  0.1104 -0.5204
  146SAPE     N16004   0.083   4.203  10.682  0.6191 -0.5654  0.2668
  146SAPE   HN116005   0.054   4.151  10.767  1.6966 -0.6094  0.6265
  146SAPE   HN216006   0.186   4.200  10.670  0.9596  2.3416  1.6933
  146SAPE   HN316007   0.067   4.304  10.701 -1.5101 -0.8725  0.2933
  146SAPE   C1216008   0.009   4.151  10.562 -0.0526  0.3580  0.4865
  146SAPE  H12A16009   0.033   4.043  10.551 -1.0791  0.3009 -1.6490
  146SAPE  H12B16010   0.048   4.203  10.472  2.6929 -4.2816 -1.3427
  146SAPE   C1116011  -0.141   4.189  10.575  0.3404  0.0612  0.1356
  146SAPE  H11A16012  -0.183   4.139  10.665  0.5237  2.0196  1.3799
  146SAPE  H11B16013  -0.192   4.153  10.483 -1.1160 -0.5515  1.1455
  146SAPE     P16014  -0.164   4.413  10.714  0.0422  0.3316  0.2656
  146SAPE   O1316015  -0.262   4.348  10.800  0.6807  0.6629 -0.4430
  146SAPE   O1416016  -0.029   4.423  10.771  0.1711 -0.3506  0.0862
  146SAPE   O1216017  -0.159   4.335  10.579  0.3754 -0.0076 -0.0408
  146SAPE   O1116018  -0.225   4.552  10.682 -0.1048  0.2705 -0.4281
  146SAPE    C116019  -0.229   4.601  10.550  0.5891 -0.2455 -0.0571
  146SAPE    HA16020  -0.308   4.544  10.497 -1.1244  0.2862  1.7467
  146SAPE    HB16021  -0.264   4.707  10.556  0.3456 -0.3578  0.6303
  146SAPE    C216022  -0.098   4.600  10.470 -0.3422 -0.3864  0.0274
  146SAPE    HS16023  -0.075   4.495  10.442  0.3495 -0.9277  2.4657
  146SAPE   O2116024   0.007   4.664  10.549  0.2472  0.3230  0.1895
  146SAPE   C2116025   0.117   4.591  10.567  1.0348  0.0629  0.0156
  146SAPE   O2216026   0.139   4.483  10.514 -0.8377 -0.4762  0.0619
  146SAPE   C2216027   0.211   4.665  10.669 -0.1305  0.5432 -0.4356
  146SAPE   H2R16028   0.243   4.759  10.619 -0.1143  0.1647 -1.1387
  146SAPE   H2S16029   0.143   4.696  10.752 -0.9113 -0.0344 -0.8499
  146SAPE    C316030  -0.117   4.677  10.330 -0.2593 -0.1173 -1.0796
  146SAPE    HX16031  -0.113   4.785  10.358  2.5981 -0.0620 -1.4268
  146SAPE    HY16032  -0.214   4.645  10.287 -1.4113  1.9572 -0.2106
  146SAPE   O3116033  -0.004   4.649  10.248 -0.1223  0.3157 -0.2296
  146SAPE   C3116034  -0.001   4.544  10.169 -0.6278 -0.4878  0.0361
  146SAPE   O3216035  -0.084   4.457  10.155  0.2611  0.3560  0.1597
  146SAPE   C3216036   0.137   4.538  10.103 -0.4131 -0.2764 -0.3737
  146SAPE   H2X16037   0.212   4.516  10.183  0.8017 -0.0749 -1.4286
  146SAPE   H2Y16038   0.159   4.639  10.061 -3.7852 -0.2412 -2.4705
  146SAPE   C2316039   0.325   4.583  10.725  0.1564  0.7547  0.6339
  146SAPE   H3R16040   0.292   4.491  10.778 -1.7189 -0.3224 -2.1671
  146SAPE   H3S16041   0.373   4.650  10.799 -0.2968  1.0543  0.6630
  146SAPE   C2416042   0.427   4.530  10.619 -0.1589  0.0068 -0.0901
  146SAPE   H4R16043   0.382   4.486  10.528 -2.1527  3.9197 -1.2417
  146SAPE   H4S16044   0.488   4.460  10.679  2.6153  3.1673  1.1466
  146SAPE   C2516045   0.507   4.639  10.571 -1.0456  0.1519  0.5439
  146SAPE   H5R16046   0.555   4.697  10.652  3.1528 -2.2312  0.0394
  146SAPE   C2616047   0.553   4.675  10.450 -0.4862  0.3334 -0.1425
  146SAPE   H6R16048   0.624   4.759  10.445 -1.1966  1.1161  2.2516
  146SAPE   C2716049   0.534   4.615  10.310 -0.3291 -0.4281  0.4514
  146SAPE   H7R16050   0.539   4.703  10.243  0.3857  0.7045  1.9452
  146SAPE   H7S16051   0.440   4.556  10.305  0.0279 -1.1276  1.5390
  146SAPE   C2816052   0.652   4.525  10.270 -0.3280 -0.2757  0.5659
  146SAPE   H8R16053   0.703   4.467  10.348  0.9867  1.2885  0.9273
  146SAPE   C2916054   0.693   4.498  10.144  0.1063 -0.3451  0.9494
  146SAPE   H9R16055   0.764   4.414  10.137  1.3993  0.6515  1.6490
  146SAPE  C21016056   0.634   4.546  10.014  0.3091  0.0836 -0.2653
  146SAPE  H10R16057   0.526   4.517  10.015  0.1165  0.6510 -2.0558
  146SAPE  H10S16058   0.671   4.478   9.935  0.0462 -1.0646  0.5641
  146SAPE  C21116059   0.643   4.689   9.960  0.8335  0.2408 -0.5742
  146SAPE  H11R16060   0.697   4.761  10.022 -0.6776  1.4743 -0.6218
  146SAPE  C21216061   0.621   4.727   9.831  0.0442  0.1500  0.1948
  146SAPE  H12R16062   0.631   4.832   9.799 -0.2304  0.1622  0.1457
  146SAPE  C21316063   0.585   4.639   9.715 -0.3709  0.1164 -0.3907
  146SAPE  H13R16064   0.572   4.536   9.753  1.9452  0.4625  1.5656
  146SAPE  H13S16065   0.672   4.634   9.646  0.4853 -1.1333  0.7370
  146SAPE  C21416066   0.455   4.682   9.648  0.3495 -0.2990 -0.2146
  146SAPE  H14R16067   0.368   4.659   9.712  0.1151  1.8349  0.2987
  146SAPE  C21516068   0.442   4.738   9.526  0.5831 -0.1786 -0.6843
  146SAPE  H15R16069   0.343   4.757   9.483 -0.0982 -0.8330  0.5588
  146SAPE  C21616070   0.544   4.778   9.419  0.0057  0.3876  0.2525
  146SAPE  H16R16071   0.644   4.750   9.459 -0.4396 -1.0764  0.3913
  146SAPE  H16S16072   0.520   4.883   9.392 -0.7853  0.6158  1.7178
  146SAPE  C21716073   0.519   4.706   9.285  0.1765 -0.2002  0.5720
  146SAPE  H17R16074   0.518   4.597   9.310  0.3305 -0.3455 -0.0309
  146SAPE  H17S16075   0.612   4.716   9.225 -0.3079  5.6823  0.2998
  146SAPE  C21816076   0.403   4.757   9.201  0.2592 -1.1494  0.4513
  146SAPE  H18R16077   0.439   4.859   9.175 -0.6819 -0.7852  0.5160
  146SAPE  H18S16078   0.311   4.764   9.263  2.6196  0.0678  4.1254
  146SAPE  C21916079   0.383   4.666   9.075 -0.3245  0.2798 -0.2539
  146SAPE  H19R16080   0.322   4.576   9.097 -1.9018  1.8088  2.0693
  146SAPE  H19S16081   0.489   4.646   9.048  0.0137 -1.6654  2.0753
  146SAPE  C22016082   0.318   4.736   8.953  0.1086 -0.5986  0.9174
  146SAPE  H20R16083   0.365   4.836   8.948  4.3808 -2.2689  2.8188
  146SAPE  H20S16084   0.208   4.748   8.963 -0.0002 -1.7059  1.2296
  146SAPE  H20T16085   0.344   4.677   8.862 -0.1420 -0.7543  0.9430
  146SAPE   C3316086   0.133   4.432   9.987  0.1278  0.8443 -0.1307
  146SAPE   H3X16087   0.105   4.328  10.013  0.5227  1.1173  1.4620
  146SAPE   H3Y16088   0.239   4.418   9.955 -0.7907 -2.2474 -2.2735
  146SAPE   C3416089   0.075   4.483   9.856 -0.0150 -0.1110 -0.3147
  146SAPE   H4X16090   0.104   4.588   9.835 -0.7646 -0.0011 -0.8582
  146SAPE   H4Y16091  -0.036   4.475   9.854 -0.0815  0.5841  0.2407
  146SAPE   C3516092   0.133   4.401   9.735  0.1878  0.6726  0.2565
  146SAPE   H5X16093   0.093   4.297   9.741 -1.5755  1.3653  1.4944
  146SAPE   H5Y16094   0.242   4.385   9.731  0.0525 -0.1212 -0.8185
  146SAPE   C3616095   0.084   4.445   9.594  0.1769 -0.1251 -0.0056
  146SAPE   H6X16096   0.130   4.543   9.569  2.5296 -1.3092 -0.6025
  146SAPE   H6Y16097  -0.026   4.455   9.586  0.2230  1.6806  1.1302
  146SAPE   C3716098   0.139   4.344   9.485  0.3771 -1.0000 -0.0626
  146SAPE   H7X16099   0.099   4.242   9.504  0.6018 -1.0051  0.3775
  146SAPE   H7Y16100   0.248   4.348   9.503  0.2547  0.4059  0.4805
  146SAPE   C3816101   0.109   4.397   9.347  0.6017  0.4922  0.5624
  146SAPE   H8X16102   0.143   4.502   9.338  1.5467  0.1685  0.2522
  146SAPE   H8Y16103  -0.001   4.399   9.332  0.8682 -1.3154 -2.5953
  146SAPE   C3916104   0.173   4.324   9.228  0.0773  0.4072 -0.7550
  146SAPE   H9X16105   0.174   4.215   9.253 -2.5378  0.2079 -1.2442
  146SAPE   H9Y16106   0.274   4.363   9.202  0.2393 -0.1483 -0.9731
  146SAPE  C31016107   0.083   4.340   9.106  0.2188 -0.0628 -0.0445
  146SAPE  H10X16108   0.026   4.436   9.106 -2.1114 -1.3450  1.4908
  146SAPE  H10Y16109   0.008   4.258   9.108 -1.5095  1.4639  0.4308
  146SAPE  C31116110   0.168   4.331   8.983  0.2632 -0.1660 -0.2879
  146SAPE  H11X16111   0.203   4.226   8.986 -0.7820 -0.5038  1.0189
  146SAPE  H11Y16112   0.262   4.391   8.982 -0.7286  1.4422  0.0521
  146SAPE  C31216113   0.093   4.372   8.855  0.4811 -0.0360  0.5486
  146SAPE  H12X16114   0.060   4.478   8.861 -2.4653 -0.8636  0.2936
  146SAPE  H12Y16115   0.002   4.309   8.843 -0.6745  1.4605  1.1232
  146SAPE  C31316116   0.178   4.347   8.725 -0.3750 -0.7783 -0.4130
  146SAPE  H13X16117   0.266   4.415   8.725 -0.7477 -0.2063 -2.6151
  146SAPE  H13Y16118   0.108   4.366   8.641 -2.6542  1.4383  1.8208
  146SAPE  C31416119   0.216   4.205   8.701  0.2892  0.1715  0.2243
  146SAPE  H14X16120   0.126   4.140   8.707  1.0864 -0.8394  1.9522
  146SAPE  H14Y16121   0.280   4.164   8.782 -2.0614 -2.0946  1.0643
  146SAPE  C31516122   0.301   4.197   8.570  0.2788 -0.0793 -0.1815
  146SAPE  H15X16123   0.391   4.260   8.582  0.9492 -0.5517 -2.2348
  146SAPE  H15Y16124   0.236   4.233   8.487  0.9891 -2.9666 -2.1718
  146SAPE  C31616125   0.341   4.053   8.535 -0.3766  0.3237  0.4311
  146SAPE  H16X16126   0.239   4.013   8.520  0.4901 -1.6513 -0.6968
  146SAPE  H16Y16127   0.384   3.993   8.618 -0.8778  1.8694  1.8388
  146SAPE  C31716128   0.425   4.031   8.410 -0.0200 -0.6976 -0.3433
  146SAPE  H17X16129   0.431   3.923   8.384  2.6837 -0.3999 -1.2768
  146SAPE  H17Y16130   0.530   4.065   8.426  0.0943 -0.4082 -1.6047
  146SAPE  C31816131   0.372   4.119   8.294  0.0518  0.3681 -0.5875
  146SAPE  H18X16132   0.261   4.110   8.290 -0.1195  0.6215  1.7948
  146SAPE  H18Y16133   0.418   4.089   8.198 -0.8705 -2.2088 -0.3062
  146SAPE  H18Z16134   0.389   4.227   8.315  0.0586  0.1952  0.3758
  147SAPE     N16135   4.096   6.574   5.928 -0.6939 -0.2366  0.2513
  147SAPE   HN116136   4.160   6.541   5.853  0.3923  1.3532  0.4221
  147SAPE   HN216137   3.999   6.542   5.911 -0.4244 -1.5126  1.0135
  147SAPE   HN316138   4.101   6.678   5.918 -0.7896 -0.3741 -1.7317
  147SAPE   C1216139   4.150   6.565   6.070  0.2279  0.0852 -0.2406
  147SAPE  H12A16140   4.249   6.616   6.073 -0.4706  1.4603  0.5725
  147SAPE  H12B16141   4.159   6.457   6.096  2.0061 -0.0374 -1.1649
  147SAPE   C1116142   4.055   6.629   6.171 -0.7617 -0.8324  0.7965
  147SAPE  H11A16143   4.085   6.608   6.276  0.2723  1.5421  1.0242
  147SAPE  H11B16144   3.958   6.576   6.155 -0.8502 -1.1116  2.1927
  147SAPE     P16145   4.102   6.878   6.222  0.0027  0.1430 -0.3536
  147SAPE   O1316146   4.240   6.888   6.170 -0.9117  0.2208  0.4814
  147SAPE   O1416147   4.022   7.002   6.220 -0.8815  0.2140 -0.4606
  147SAPE   O1216148   4.030   6.764   6.143  0.4820  0.7118 -0.5366
  147SAPE   O1116149   4.110   6.831   6.369 -0.0576 -0.1046  0.0100
  147SAPE    C116150   4.026   6.881   6.473  0.3200 -0.2808 -0.5372
  147SAPE    HA16151   3.927   6.908   6.432  0.6390  1.8769 -0.0081
  147SAPE    HB16152   4.014   6.812   6.560 -0.3756  2.2096  1.4680
  147SAPE    C216153   4.090   7.015   6.539  0.6724  0.9331 -0.4099
  147SAPE    HS16154   4.120   7.085   6.459 -1.4871  2.7397  0.2468
  147SAPE   O2116155   4.201   6.959   6.616 -0.2248 -0.8623 -0.1009
  147SAPE   C2116156   4.295   7.054   6.646 -0.3347  0.0038  0.8856
  147SAPE   O2216157   4.295   7.170   6.609  0.4389  0.2194  0.7713
  147SAPE   C2216158   4.391   6.999   6.745 -0.3120 -0.6001 -0.7226
  147SAPE   H2R16159   4.490   6.981   6.698  1.0552  1.4342  1.1463
  147SAPE   H2S16160   4.403   7.077   6.824 -2.9231 -1.1726  0.3404
  147SAPE    C316161   3.989   7.097   6.627  0.1595  0.0213  0.3878
  147SAPE    HX16162   3.907   7.128   6.559  1.6461  2.1881 -0.5349
  147SAPE    HY16163   4.031   7.189   6.675 -0.3968  2.0341 -2.6818
  147SAPE   O3116164   3.926   7.014   6.721  0.8822 -0.2845 -0.1150
  147SAPE   C3116165   3.979   7.003   6.846  0.7296  0.4810  0.5195
  147SAPE   O3216166   4.081   7.063   6.874  0.3771  0.6258 -0.1575
  147SAPE   C3216167   3.913   6.899   6.934  0.1768 -0.6148 -0.7183
  147SAPE   H2X16168   3.907   6.802   6.882  2.1952 -0.8422 -0.5961
  147SAPE   H2Y16169   3.813   6.942   6.959 -0.3920 -1.0553 -2.1453
  147SAPE   C2316170   4.343   6.875   6.823  0.8840 -0.1564  0.3394
  147SAPE   H3R16171   4.352   6.795   6.745 -0.0205 -0.6972  0.7767
  147SAPE   H3S16172   4.237   6.889   6.852  0.4778 -0.5461 -0.8990
  147SAPE   C2416173   4.439   6.839   6.938  0.6728 -0.3790 -0.4110
  147SAPE   H4R16174   4.543   6.850   6.899  0.9051  1.0646  0.5480
  147SAPE   H4S16175   4.419   6.731   6.955 -0.2751 -0.6100 -2.6098
  147SAPE   C2516176   4.412   6.936   7.052 -0.6213  0.1757  0.6049
  147SAPE   H5R16177   4.314   6.985   7.058 -1.5724 -1.6337  0.6778
  147SAPE   C2616178   4.496   6.956   7.155  0.4123  0.0015 -0.4251
  147SAPE   H6R16179   4.466   7.032   7.228 -0.9238  1.8249 -2.7474
  147SAPE   C2716180   4.633   6.887   7.170 -0.0685 -0.2268 -0.1522
  147SAPE   H7R16181   4.677   6.855   7.073  0.8811  1.0522 -0.1687
  147SAPE   H7S16182   4.621   6.788   7.220 -0.5269 -0.3029 -0.4126
  147SAPE   C2816183   4.742   6.976   7.234  0.3925 -0.2406  0.0572
  147SAPE   H8R16184   4.741   7.079   7.195 -4.1359  0.0450  0.4144
  147SAPE   C2916185   4.847   6.936   7.312  0.5332 -0.0832 -0.2487
  147SAPE   H9R16186   4.902   7.020   7.357 -1.3368 -0.0076  2.0844
  147SAPE  C21016187   4.871   6.800   7.374 -0.6367  1.0672  0.4827
  147SAPE  H10R16188   4.836   6.717   7.310  1.7219  0.7944 -0.5700
  147SAPE  H10S16189   4.820   6.790   7.472  1.6421  0.3562  1.6555
  147SAPE  C21116190   5.017   6.770   7.395  0.2609  0.0105 -0.0795
  147SAPE  H11R16191   5.071   6.734   7.306 -0.2398  0.4731 -0.5796
  147SAPE  C21216192   5.092   6.771   7.509 -0.3436 -0.0429  0.4349
  147SAPE  H12R16193   5.199   6.747   7.515  0.7123  3.8709  0.1354
  147SAPE  C21316194   5.043   6.812   7.642  0.0231 -0.1763  0.3219
  147SAPE  H13R16195   4.988   6.721   7.676 -0.8953  1.1089  2.4860
  147SAPE  H13S16196   4.974   6.895   7.618  1.3544  0.5370 -1.2267
  147SAPE  C21416197   5.151   6.861   7.740 -0.0983  0.2180 -0.2215
  147SAPE  H14R16198   5.236   6.915   7.696 -0.4423  1.2492  0.3472
  147SAPE  C21516199   5.152   6.857   7.874 -0.8864 -0.3409 -0.1619
  147SAPE  H15R16200   5.234   6.901   7.934  0.1468 -2.1699 -0.1433
  147SAPE  C21616201   5.048   6.799   7.965  0.5922  0.5329 -0.0104
  147SAPE  H16R16202   4.956   6.774   7.910  1.3558 -1.0405 -0.6368
  147SAPE  H16S16203   5.021   6.858   8.055  0.5337 -2.0331  1.7848
  147SAPE  C21716204   5.111   6.664   8.017 -0.1665  0.2734  0.5123
  147SAPE  H17R16205   5.193   6.694   8.085 -0.2968  3.0991 -0.4468
  147SAPE  H17S16206   5.143   6.609   7.926 -3.0919  2.8759 -2.3502
  147SAPE  C21816207   4.997   6.582   8.077  0.2149  0.4461 -0.2856
  147SAPE  H18R16208   4.904   6.564   8.018 -1.3421 -0.0784  2.1485
  147SAPE  H18S16209   4.956   6.641   8.162  2.2697  2.0000 -0.3137
  147SAPE  C21916210   5.043   6.446   8.128  0.0144  0.3683 -0.4178
  147SAPE  H19R16211   5.130   6.460   8.195 -1.1883 -2.1014  1.8439
  147SAPE  H19S16212   5.064   6.385   8.037 -1.8800  0.8125 -1.2080
  147SAPE  C22016213   4.936   6.376   8.207 -0.1590  0.3514 -0.6725
  147SAPE  H20R16214   4.960   6.270   8.227 -2.1973  0.1097  0.8684
  147SAPE  H20S16215   4.843   6.369   8.147 -0.1864 -1.6125 -0.4660
  147SAPE  H20T16216   4.916   6.402   8.313  1.8507 -1.2731  0.1609
  147SAPE   C3316217   3.989   6.877   7.068  0.5660 -0.0580  0.3223
  147SAPE   H3X16218   4.098   6.870   7.050  0.3758 -1.5750 -0.3352
  147SAPE   H3Y16219   3.944   6.784   7.108  0.8182 -0.6104 -0.6577
  147SAPE   C3416220   3.970   6.989   7.176 -0.4784 -0.4216 -0.2639
  147SAPE   H4X16221   3.862   7.005   7.198 -0.6865  1.1636 -2.1342
  147SAPE   H4Y16222   3.999   7.083   7.124  0.4643 -1.2442 -1.2776
  147SAPE   C3516223   4.064   6.980   7.296 -0.8509  0.2061  0.6664
  147SAPE   H5X16224   4.161   6.943   7.256 -0.3506  2.1128  0.0233
  147SAPE   H5Y16225   4.017   6.904   7.363 -0.1987 -0.6043  0.2188
  147SAPE   C3616226   4.074   7.122   7.359  0.0416  0.0369  0.4416
  147SAPE   H6X16227   3.988   7.135   7.428  1.1530 -0.7704  2.0499
  147SAPE   H6Y16228   4.081   7.194   7.275  1.2067  0.7698  1.1287
  147SAPE   C3716229   4.191   7.137   7.449  0.6233  0.0844 -0.2895
  147SAPE   H7X16230   4.200   7.245   7.476  0.3927  0.0029  0.1288
  147SAPE   H7Y16231   4.282   7.100   7.397 -0.7997  0.0155 -2.8516
  147SAPE   C3816232   4.175   7.068   7.583  1.0302 -0.0605  0.2976
  147SAPE   H8X16233   4.149   6.960   7.582 -1.1711  0.4009  2.0192
  147SAPE   H8Y16234   4.078   7.109   7.619 -0.7019 -1.6321 -2.2350
  147SAPE   C3916235   4.283   7.083   7.691  0.0036  0.4292  0.1592
  147SAPE   H9X16236   4.222   7.071   7.783 -1.6911  0.6045 -0.9028
  147SAPE   H9Y16237   4.313   7.190   7.683  2.1970 -0.1314  0.1443
  147SAPE  C31016238   4.403   6.992   7.677 -0.4919  0.1904 -0.2728
  147SAPE  H10X16239   4.431   6.971   7.572 -1.6655  0.7517 -0.7194
  147SAPE  H10Y16240   4.371   6.895   7.722 -1.5858  0.4364 -0.4730
  147SAPE  C31116241   4.532   7.035   7.749 -0.3175  0.4997  0.0661
  147SAPE  H11X16242   4.604   6.951   7.754 -0.0290  0.8140  1.9831
  147SAPE  H11Y16243   4.509   7.060   7.855 -0.1503  2.5251 -0.3372
  147SAPE  C31216244   4.618   7.133   7.669 -0.0589  0.6341  0.4786
  147SAPE  H12X16245   4.567   7.231   7.687 -1.3168 -0.3823  3.0481
  147SAPE  H12Y16246   4.617   7.098   7.564 -3.6994 -3.1356  1.4853
  147SAPE  C31316247   4.757   7.163   7.725  1.1125 -0.1373 -0.7163
  147SAPE  H13X16248   4.780   7.255   7.668 -1.0724  1.6114  1.0350
  147SAPE  H13Y16249   4.822   7.075   7.705  1.4518 -0.8319  2.7449
  147SAPE  C31416250   4.754   7.191   7.882  0.2823 -0.4429  0.2670
  147SAPE  H14X16251   4.717   7.098   7.929 -0.1614  0.8666  2.7023
  147SAPE  H14Y16252   4.676   7.268   7.902 -0.5212 -0.9075 -0.9635
  147SAPE  C31516253   4.888   7.241   7.934 -0.4102  0.0588 -0.0445
  147SAPE  H15X16254   4.907   7.343   7.894  0.9153 -0.4595 -0.7813
  147SAPE  H15Y16255   4.973   7.176   7.905  1.0118  1.0219  1.7447
  147SAPE  C31616256   4.903   7.255   8.088 -0.3083 -0.5760  0.1244
  147SAPE  H16X16257   4.907   7.156   8.139 -0.3937  1.1285  3.7476
  147SAPE  H16Y16258   4.821   7.318   8.130  1.1021  2.7178 -1.7172
  147SAPE  C31716259   5.036   7.325   8.129  0.2891  0.4454  1.1701
  147SAPE  H17X16260   5.038   7.427   8.085 -0.0191  0.6133  1.5365
  147SAPE  H17Y16261   5.112   7.259   8.083 -1.9203 -1.7249  0.4307
  147SAPE  C31816262   5.053   7.328   8.279  0.4215 -0.1222  0.6769
  147SAPE  H18X16263   5.148   7.382   8.301  1.1165 -0.6118 -1.0077
  147SAPE  H18Y16264   5.050   7.228   8.326  0.2525  0.9535  3.1598
  147SAPE  H18Z16265   4.965   7.383   8.322 -0.5874 -0.0103 -1.4064
  148SAPE     N16266   2.699   5.745   6.567 -0.5710 -0.7316 -0.0431
  148SAPE   HN116267   2.756   5.732   6.653 -2.4016  0.1835  1.3852
  148SAPE   HN216268   2.671   5.843   6.588  1.7414 -0.3123  1.5208
  148SAPE   HN316269   2.612   5.689   6.557  0.7732 -2.9937  0.3509
  148SAPE   C1216270   2.779   5.755   6.444  0.5360  0.8411  1.2092
  148SAPE  H12A16271   2.708   5.784   6.363  0.8113  2.5407  1.5390
  148SAPE  H12B16272   2.817   5.653   6.421  1.1137  1.5919 -1.6125
  148SAPE   C1116273   2.889   5.869   6.448  1.0163 -0.4302 -0.2276
  148SAPE  H11A16274   2.837   5.967   6.452 -2.5401 -2.1520 -0.6629
  148SAPE  H11B16275   2.944   5.863   6.351 -0.6896 -2.7668 -1.1303
  148SAPE     P16276   3.083   5.756   6.577  0.2220 -0.0379 -0.1364
  148SAPE   O1316277   3.055   5.627   6.513 -0.5271  0.0590 -0.1945
  148SAPE   O1416278   3.204   5.825   6.537 -0.4493 -0.2602 -0.2061
  148SAPE   O1216279   2.965   5.857   6.571 -0.2690  0.0578 -0.3546
  148SAPE   O1116280   3.088   5.734   6.736  0.1997 -0.5607 -0.1568
  148SAPE    C116281   3.118   5.597   6.772 -0.4766 -0.7329 -0.3146
  148SAPE    HA16282   3.036   5.529   6.740 -0.4116 -0.7539 -0.4359
  148SAPE    HB16283   3.220   5.565   6.743  0.4490  1.0685  0.7445
  148SAPE    C216284   3.109   5.593   6.925  0.7958 -0.0668 -0.4365
  148SAPE    HS16285   3.001   5.592   6.951  0.5639 -0.8467 -1.3681
  148SAPE   O2116286   3.187   5.701   6.988 -0.3430  0.5715 -0.0247
  148SAPE   C2116287   3.109   5.804   7.036 -0.2161 -0.5318 -0.2878
  148SAPE   O2216288   2.989   5.809   7.040  0.1646 -0.0862  0.0754
  148SAPE   C2216289   3.198   5.906   7.109 -0.5588  0.1800 -0.7801
  148SAPE   H2R16290   3.297   5.857   7.113 -1.1391 -0.9839  0.1466
  148SAPE   H2S16291   3.217   5.995   7.045  1.1067  0.3229 -0.1104
  148SAPE    C316292   3.157   5.456   6.984 -0.0782 -0.2797  0.5611
  148SAPE    HX16293   3.264   5.434   6.965 -0.4143  0.7769 -3.5510
  148SAPE    HY16294   3.091   5.381   6.934 -2.0873  0.4632  1.9648
  148SAPE   O3116295   3.153   5.439   7.125 -0.0480  0.6079 -0.1545
  148SAPE   C3116296   3.056   5.367   7.173 -1.0732 -0.4055 -0.0202
  148SAPE   O3216297   2.970   5.315   7.108  0.1374  0.0943  0.1782
  148SAPE   C3216298   3.061   5.351   7.329 -0.8736  0.0930  0.3297
  148SAPE   H2X16299   3.068   5.451   7.376  2.3371  1.0551 -1.8428
  148SAPE   H2Y16300   3.147   5.284   7.352 -0.9148 -0.5200 -1.1537
  148SAPE   C2316301   3.147   5.953   7.246  0.5725 -0.6703 -0.3825
  148SAPE   H3R16302   3.131   5.867   7.315  2.8207 -1.0886 -0.2967
  148SAPE   H3S16303   3.049   6.004   7.240 -0.3260 -2.0994  1.2168
  148SAPE   C2416304   3.263   6.037   7.312  0.7699 -0.3466  0.1578
  148SAPE   H4R16305   3.283   6.128   7.252  1.3384 -0.6462 -0.1207
  148SAPE   H4S16306   3.365   5.996   7.295  1.3809  0.8955  0.6642
  148SAPE   C2516307   3.236   6.084   7.449  0.4223 -0.5268  0.7779
  148SAPE   H5R16308   3.162   6.166   7.453  1.9036  1.0886 -2.0926
  148SAPE   C2616309   3.303   6.045   7.558 -0.6158  0.1557  0.1238
  148SAPE   H6R16310   3.277   6.083   7.658 -1.4994  1.3666 -0.5443
  148SAPE   C2716311   3.424   5.950   7.557  0.1624 -0.3851  0.2943
  148SAPE   H7R16312   3.456   5.935   7.452  0.8529 -1.7207  0.6819
  148SAPE   H7S16313   3.408   5.847   7.593  2.0780 -1.4536 -1.6696
  148SAPE   C2816314   3.538   6.012   7.639 -0.6848  0.1437 -0.3120
  148SAPE   H8R16315   3.616   6.078   7.598  1.7073  1.2827  5.1351
  148SAPE   C2916316   3.556   5.996   7.775  0.5924  1.2129  0.1103
  148SAPE   H9R16317   3.643   6.034   7.831  1.5804  0.5708 -0.9424
  148SAPE  C21016318   3.468   5.908   7.868 -0.1305  0.3330  0.4380
  148SAPE  H10R16319   3.391   5.845   7.819  0.2755  0.2567 -0.1030
  148SAPE  H10S16320   3.408   5.980   7.929  0.8285  0.5849  1.0985
  148SAPE  C21116321   3.552   5.824   7.956 -0.4521 -0.7867  0.2137
  148SAPE  H11R16322   3.608   5.750   7.896 -1.3368 -0.4568 -1.0789
  148SAPE  C21216323   3.563   5.818   8.092  0.1892  0.0912  0.3081
  148SAPE  H12R16324   3.643   5.754   8.130  0.6374 -0.7401 -1.8631
  148SAPE  C21316325   3.487   5.894   8.195 -0.8389  0.1279 -0.3000
  148SAPE  H13R16326   3.441   5.823   8.267 -1.2848  0.1295 -0.5781
  148SAPE  H13S16327   3.401   5.952   8.154  0.6208  3.1387  0.5687
  148SAPE  C21416328   3.577   5.985   8.271  0.0010  0.0589 -0.4916
  148SAPE  H14R16329   3.675   5.939   8.289  0.2059  0.5610 -0.2879
  148SAPE  C21516330   3.559   6.110   8.314  0.2085  0.7382  0.8761
  148SAPE  H15R16331   3.638   6.157   8.374 -0.4943  1.3897  1.3080
  148SAPE  C21616332   3.435   6.193   8.285 -0.2936 -0.0715  0.4079
  148SAPE  H16R16333   3.386   6.167   8.189 -0.3097 -1.0795  0.6667
  148SAPE  H16S16334   3.465   6.295   8.254  1.2104  0.7250  3.9665
  148SAPE  C21716335   3.345   6.209   8.415 -0.4389  0.7190  0.4980
  148SAPE  H17R16336   3.274   6.124   8.428 -1.1493  1.5228  2.2260
  148SAPE  H17S16337   3.274   6.292   8.398 -2.3362 -0.8218  0.5985
  148SAPE  C21816338   3.417   6.234   8.542 -1.4104 -0.7602  0.1511
  148SAPE  H18R16339   3.506   6.296   8.519 -2.6975  2.1540  2.3512
  148SAPE  H18S16340   3.464   6.151   8.598  1.6489  0.9966  0.4164
  148SAPE  C21916341   3.326   6.316   8.631 -0.0877 -0.9696 -0.2166
  148SAPE  H19R16342   3.299   6.413   8.583  2.3987 -1.7521 -3.5399
  148SAPE  H19S16343   3.392   6.342   8.716  0.6145 -0.0951 -1.0040
  148SAPE  C22016344   3.205   6.236   8.695 -0.1450 -0.7231 -0.2343
  148SAPE  H20R16345   3.142   6.199   8.612 -1.7552  0.5060  0.3867
  148SAPE  H20S16346   3.138   6.305   8.750 -0.1175 -0.7711 -0.1421
  148SAPE  H20T16347   3.254   6.156   8.755  2.0963  0.8693  0.2000
  148SAPE   C3316348   2.940   5.279   7.394 -0.0887 -0.5380  1.2370
  148SAPE   H3X16349   2.943   5.172   7.364 -2.3023 -0.2398 -0.3404
  148SAPE   H3Y16350   2.843   5.308   7.348  1.3115  0.3996 -1.3315
  148SAPE   C3416351   2.934   5.299   7.545 -0.3888  0.3346  0.1444
  148SAPE   H4X16352   2.914   5.406   7.566 -2.2381  0.3602 -1.4742
  148SAPE   H4Y16353   3.028   5.268   7.595 -0.6533 -0.5865  0.0836
  148SAPE   C3516354   2.824   5.213   7.588  0.1226  0.9760 -0.7068
  148SAPE   H5X16355   2.839   5.105   7.569 -2.0375  0.4127  0.4800
  148SAPE   H5Y16356   2.737   5.247   7.528  0.5699  2.3225 -0.6360
  148SAPE   C3616357   2.786   5.224   7.737 -0.1887 -0.2338 -0.3023
  148SAPE   H6X16358   2.688   5.177   7.762 -2.2292  4.3333  1.5559
  148SAPE   H6Y16359   2.778   5.334   7.753  1.6187 -0.1030 -0.1678
  148SAPE   C3716360   2.891   5.153   7.836  0.0878  0.1438  0.5761
  148SAPE   H7X16361   2.990   5.165   7.788 -1.2130 -1.3639 -2.7873
  148SAPE   H7Y16362   2.871   5.044   7.836 -0.6403  0.2635  1.3329
  148SAPE   C3816363   2.871   5.200   7.977 -0.2216  0.5918 -0.2202
  148SAPE   H8X16364   2.765   5.187   8.007 -0.1741  0.9800  0.1219
  148SAPE   H8Y16365   2.897   5.308   7.978  0.0820  0.5156  0.4874
  148SAPE   C3916366   2.965   5.132   8.088  0.3170 -0.7154  0.1833
  148SAPE   H9X16367   3.071   5.164   8.075  0.0942  1.1019  2.1418
  148SAPE   H9Y16368   2.961   5.022   8.079  0.5975 -1.1036  3.3695
  148SAPE  C31016369   2.914   5.176   8.229 -0.2015  0.3606 -0.3501
  148SAPE  H10X16370   2.864   5.273   8.211  1.2220  0.9633 -1.2311
  148SAPE  H10Y16371   3.006   5.197   8.288  0.0202 -0.9141 -0.2188
  148SAPE  C31116372   2.814   5.075   8.278 -0.6009 -0.1336 -1.4613
  148SAPE  H11X16373   2.868   4.977   8.277  0.4386  0.4235 -1.4147
  148SAPE  H11Y16374   2.725   5.071   8.212 -0.3864 -0.7109 -1.7221
  148SAPE  C31216375   2.770   5.104   8.423 -0.4800  0.6398  0.4912
  148SAPE  H12X16376   2.687   5.033   8.442  0.5355 -0.9306 -0.6478
  148SAPE  H12Y16377   2.732   5.208   8.436 -1.1234  0.7244 -1.6776
  148SAPE  C31316378   2.864   5.073   8.535  0.2300  0.0455  0.7245
  148SAPE  H13X16379   2.942   5.153   8.533 -0.7837  1.0629  0.6136
  148SAPE  H13Y16380   2.919   4.979   8.514  0.3958  0.2037  0.4378
  148SAPE  C31416381   2.805   5.068   8.673 -0.4133 -0.2820 -0.2387
  148SAPE  H14X16382   2.703   5.024   8.666 -1.0587  1.2552 -0.8795
  148SAPE  H14Y16383   2.798   5.167   8.723  0.3356 -0.9040  1.1805
  148SAPE  C31516384   2.887   4.975   8.765 -0.2388 -0.1459 -0.0701
  148SAPE  H15X16385   2.987   5.022   8.783  0.0071  0.5031 -2.7334
  148SAPE  H15Y16386   2.894   4.878   8.712  1.9279  0.1074 -0.3291
  148SAPE  C31616387   2.825   4.942   8.900  0.0679 -0.3116 -0.4964
  148SAPE  H16X16388   2.714   4.931   8.895 -0.0089  0.7847 -1.4137
  148SAPE  H16Y16389   2.837   5.024   8.974 -1.9162 -1.0827  0.7971
  148SAPE  C31716390   2.873   4.810   8.966 -0.6559  0.1490 -0.3277
  148SAPE  H17X16391   2.846   4.728   8.897  1.1344 -1.5566  0.8976
  148SAPE  H17Y16392   2.822   4.800   9.065  1.0807  0.8089  0.6915
  148SAPE  C31816393   3.023   4.800   8.991  0.7458  0.5466 -0.0398
  148SAPE  H18X16394   3.044   4.791   9.100  4.1059 -1.8232 -0.7141
  148SAPE  H18Y16395   3.073   4.894   8.960  3.8729  0.2877  3.4103
  148SAPE  H18Z16396   3.065   4.719   8.927  1.6554  0.5971  0.4609
  149SAPE     N16397   4.518   5.971   6.120  0.5960 -0.3019  0.4453
  149SAPE   HN116398   4.516   5.900   6.044  3.3180 -0.6897  0.6531
  149SAPE   HN216399   4.541   6.065   6.080 -0.6197  1.5363  3.6764
  149SAPE   HN316400   4.585   5.937   6.191  0.0213  0.0732  1.1852
  149SAPE   C1216401   4.398   6.007   6.191  0.5125  0.6050  0.3955
  149SAPE  H12A16402   4.373   5.916   6.249  0.7922 -0.1859 -0.6854
  149SAPE  H12B16403   4.327   6.022   6.107  0.4489 -2.4362 -0.2131
  149SAPE   C1116404   4.408   6.122   6.288 -0.1132 -0.5900  0.0849
  149SAPE  H11A16405   4.497   6.114   6.355  0.8484  0.7682 -0.9597
  149SAPE  H11B16406   4.331   6.118   6.368 -0.1217 -0.0208  0.1109
  149SAPE     P16407   4.511   6.357   6.230  0.2684  0.3907 -0.0297
  149SAPE   O1316408   4.645   6.293   6.215  0.1637  0.2396 -0.3007
  149SAPE   O1416409   4.473   6.466   6.135  0.0447  0.3332  0.5302
  149SAPE   O1216410   4.398   6.247   6.215 -0.7678 -0.0682 -0.0852
  149SAPE   O1116411   4.493   6.415   6.378  0.2986 -0.0401 -0.6624
  149SAPE    C116412   4.565   6.372   6.493 -0.2491 -0.0426 -0.1615
  149SAPE    HA16413   4.621   6.277   6.484 -1.7883 -0.8046 -2.9612
  149SAPE    HB16414   4.627   6.453   6.535 -4.0348  1.5887  2.9835
  149SAPE    C216415   4.467   6.325   6.605 -0.8731 -0.3575 -0.1535
  149SAPE    HS16416   4.405   6.251   6.549  1.3538 -2.0999 -0.4431
  149SAPE   O2116417   4.395   6.442   6.658  0.3260  0.9930 -0.0625
  149SAPE   C2116418   4.271   6.449   6.636 -0.4360  0.0146  0.4971
  149SAPE   O2216419   4.201   6.371   6.569 -0.6160  0.3493 -0.2704
  149SAPE   C2216420   4.218   6.577   6.692 -0.6443 -0.0218  0.4627
  149SAPE   H2R16421   4.269   6.599   6.788 -1.5563  1.4678  0.6301
  149SAPE   H2S16422   4.244   6.655   6.617 -0.7681  0.3641  0.8205
  149SAPE    C316423   4.535   6.238   6.722 -0.0280  0.2367 -0.1411
  149SAPE    HX16424   4.619   6.298   6.765 -0.1937  0.6283 -0.3589
  149SAPE    HY16425   4.587   6.158   6.666  0.2405  0.5865 -0.3995
  149SAPE   O3116426   4.445   6.189   6.826  0.0696  0.3795 -0.2849
  149SAPE   C3116427   4.452   6.061   6.850 -0.0331  0.4182 -0.6182
  149SAPE   O3216428   4.501   5.970   6.782  0.1968  0.1506 -0.6291
  149SAPE   C3216429   4.373   6.032   6.977 -0.0922  0.0094  0.0924
  149SAPE   H2X16430   4.267   6.063   6.969  0.1257  0.8999  0.4272
  149SAPE   H2Y16431   4.427   6.087   7.057  1.3037 -2.3120  0.8543
  149SAPE   C2316432   4.067   6.578   6.711  0.0019 -0.0684 -0.5930
  149SAPE   H3R16433   4.004   6.535   6.631  1.7431 -0.2297 -1.9368
  149SAPE   H3S16434   4.047   6.687   6.703  1.7631  0.2821 -0.7232
  149SAPE   C2416435   4.013   6.525   6.844 -0.4682  0.3186 -0.2404
  149SAPE   H4R16436   3.905   6.551   6.846 -0.6113 -0.2313  1.9044
  149SAPE   H4S16437   4.067   6.571   6.930 -0.3989 -1.2201  0.5820
  149SAPE   C2516438   4.031   6.378   6.849  0.2267  0.6897 -0.0488
  149SAPE   H5R16439   4.009   6.319   6.759 -1.0707  1.4653 -0.2766
  149SAPE   C2616440   4.083   6.310   6.958  0.8362 -0.1443 -0.0217
  149SAPE   H6R16441   4.089   6.201   6.943  0.3472 -0.4744  1.9056
  149SAPE   C2716442   4.135   6.367   7.094  0.4842  0.4519  0.4821
  149SAPE   H7R16443   4.085   6.321   7.183  0.8308 -0.0251  0.4352
  149SAPE   H7S16444   4.104   6.473   7.098 -1.3841 -0.0766  3.3392
  149SAPE   C2816445   4.289   6.375   7.104  0.6150 -0.1773  0.2069
  149SAPE   H8R16446   4.353   6.349   7.019 -0.1995 -0.8054 -0.2362
  149SAPE   C2916447   4.359   6.413   7.212  1.0121  0.7776  0.5044
  149SAPE   H9R16448   4.468   6.400   7.210  1.0183  0.7822 -1.4759
  149SAPE  C21016449   4.322   6.440   7.352 -0.6808  0.1670 -0.4064
  149SAPE  H10R16450   4.368   6.367   7.422 -4.3477 -1.0269  0.9766
  149SAPE  H10S16451   4.217   6.407   7.365 -1.5155  2.4646 -0.8015
  149SAPE  C21116452   4.329   6.583   7.410  0.2435  0.5686  0.2102
  149SAPE  H11R16453   4.291   6.660   7.341  0.5623  1.1193  0.6402
  149SAPE  C21216454   4.363   6.619   7.536  0.3148  0.0988 -0.3818
  149SAPE  H12R16455   4.372   6.726   7.559  3.2106  0.1780 -1.4689
  149SAPE  C21316456   4.410   6.531   7.649  0.6396  0.2092 -0.4644
  149SAPE  H13R16457   4.381   6.424   7.647 -0.3504  0.4096  0.9655
  149SAPE  H13S16458   4.373   6.568   7.747 -0.8369  0.2214 -0.9969
  149SAPE  C21416459   4.558   6.529   7.639  0.7446  0.5668  0.1420
  149SAPE  H14R16460   4.603   6.482   7.550  3.0654  2.5187  0.1701
  149SAPE  C21516461   4.647   6.575   7.731 -0.5809 -1.1096 -0.4653
  149SAPE  H15R16462   4.751   6.542   7.714  0.4162  1.2923  0.4839
  149SAPE  C21616463   4.615   6.643   7.867  0.0145 -0.0890 -0.4553
  149SAPE  H16R16464   4.514   6.688   7.867  0.7301  1.8099  2.7306
  149SAPE  H16S16465   4.683   6.728   7.887 -0.5019  0.3281 -0.4541
  149SAPE  C21716466   4.618   6.552   7.991 -0.6607  0.1336 -0.1281
  149SAPE  H17R16467   4.594   6.616   8.078  0.1042  1.5039 -0.8857
  149SAPE  H17S16468   4.713   6.501   8.013 -0.4173  0.2679 -0.8262
  149SAPE  C21816469   4.504   6.445   7.986  0.4214  0.2634 -0.7409
  149SAPE  H18R16470   4.522   6.367   7.910  1.4065 -0.9505  0.6843
  149SAPE  H18S16471   4.410   6.498   7.957  1.5479  3.1491  0.4464
  149SAPE  C21916472   4.487   6.369   8.118 -0.8577 -0.1581 -0.6207
  149SAPE  H19R16473   4.456   6.439   8.199 -0.8865 -1.3552  0.4311
  149SAPE  H19S16474   4.590   6.337   8.145 -0.9498  1.4729  2.0011
  149SAPE  C22016475   4.387   6.247   8.113 -0.0185 -0.6405 -0.0999
  149SAPE  H20R16476   4.446   6.158   8.082  2.1010 -0.2245  2.3725
  149SAPE  H20S16477   4.307   6.275   8.042 -0.5295  1.1537  1.1125
  149SAPE  H20T16478   4.342   6.215   8.209  1.2553  0.9553  1.1027
  149SAPE   C3316479   4.370   5.891   7.030  0.0417  0.1068 -0.2226
  149SAPE   H3X16480   4.475   5.859   7.042  1.0631  3.0660 -0.5254
  149SAPE   H3Y16481   4.345   5.817   6.951  0.2766 -0.3350  0.1091
  149SAPE   C3416482   4.292   5.888   7.161  0.0534  0.0140 -0.2164
  149SAPE   H4X16483   4.280   5.779   7.181  1.1719  0.2456  2.0195
  149SAPE   H4Y16484   4.196   5.943   7.149  0.5697  1.4041  1.6871
  149SAPE   C3516485   4.366   5.943   7.281 -0.4330  0.5939 -0.4024
  149SAPE   H5X16486   4.397   6.049   7.272 -0.7651  0.5033 -3.3033
  149SAPE   H5Y16487   4.459   5.884   7.298 -0.9791  0.5858  3.6724
  149SAPE   C3616488   4.301   5.897   7.419  0.7008  0.0640  0.6945
  149SAPE   H6X16489   4.274   5.790   7.405  0.1688  0.3542 -0.6471
  149SAPE   H6Y16490   4.200   5.944   7.425  0.0564 -1.3083  1.0726
  149SAPE   C3716491   4.384   5.925   7.543  0.2929  0.2369  0.0549
  149SAPE   H7X16492   4.419   6.029   7.557  1.6356 -0.1700 -0.1311
  149SAPE   H7Y16493   4.470   5.856   7.529 -0.5373 -0.5512 -1.4287
  149SAPE   C3816494   4.315   5.876   7.670 -0.2942  0.1692 -0.3713
  149SAPE   H8X16495   4.271   5.776   7.654  0.3601 -0.2429  0.3598
  149SAPE   H8Y16496   4.229   5.946   7.673 -1.4444 -1.2282  1.2827
  149SAPE   C3916497   4.395   5.891   7.798 -0.1124  0.8639 -0.1922
  149SAPE   H9X16498   4.395   5.997   7.830 -0.1645  1.6045 -2.4656
  149SAPE   H9Y16499   4.501   5.870   7.776 -0.6016 -0.3039 -1.5898
  149SAPE  C31016500   4.354   5.806   7.914 -0.2681  0.4383  0.3694
  149SAPE  H10X16501   4.365   5.702   7.877  0.9125  1.1422 -1.3796
  149SAPE  H10Y16502   4.248   5.829   7.937 -1.3448 -2.7931 -0.8188
  149SAPE  C31116503   4.447   5.835   8.034 -0.3968 -0.3434  0.4960
  149SAPE  H11X16504   4.404   5.930   8.072 -2.1978 -0.6727 -0.5904
  149SAPE  H11Y16505   4.552   5.848   8.001  0.6875 -1.0588  3.3730
  149SAPE  C31216506   4.442   5.729   8.137 -0.4458 -0.1945 -0.6947
  149SAPE  H12X16507   4.499   5.643   8.096 -0.7580 -0.0943 -1.3518
  149SAPE  H12Y16508   4.338   5.690   8.135 -1.4172  2.0716  1.1563
  149SAPE  C31316509   4.479   5.767   8.289 -0.4269  0.3203 -0.3212
  149SAPE  H13X16510   4.409   5.844   8.328 -0.8683  0.0905 -0.6524
  149SAPE  H13Y16511   4.576   5.821   8.275 -1.5207  1.9942 -1.9136
  149SAPE  C31416512   4.478   5.649   8.387 -0.8074 -0.4252  0.1648
  149SAPE  H14X16513   4.515   5.669   8.490 -2.8149 -0.8038  1.0140
  149SAPE  H14Y16514   4.537   5.573   8.332  1.2046  1.5567 -0.5558
  149SAPE  C31516515   4.342   5.588   8.421 -0.1775  0.1552  0.3600
  149SAPE  H15X16516   4.284   5.588   8.327  0.3312  0.0287  0.0426
  149SAPE  H15Y16517   4.275   5.641   8.492 -1.7705 -1.5228  0.1764
  149SAPE  C31616518   4.346   5.446   8.466  0.4922 -0.3101  0.0139
  149SAPE  H16X16519   4.420   5.383   8.411  0.3851 -0.7656  0.3779
  149SAPE  H16Y16520   4.243   5.407   8.447 -0.1738  1.6608 -0.5800
  149SAPE  C31716521   4.362   5.422   8.617 -0.5185  0.0080  0.2311
  149SAPE  H17X16522   4.327   5.321   8.645 -1.3156  0.3207  0.4164
  149SAPE  H17Y16523   4.294   5.496   8.666 -0.4186  0.9121 -0.9487
  149SAPE  C31816524   4.508   5.428   8.674  0.2153 -0.2125 -0.0710
  149SAPE  H18X16525   4.578   5.380   8.603 -1.7673  0.1677 -2.4103
  149SAPE  H18Y16526   4.514   5.382   8.775 -0.6737 -0.2787 -0.0423
  149SAPE  H18Z16527   4.531   5.537   8.684 -2.0374  0.5207 -1.8935
  150SAPE     N16528   2.024   6.525   6.328 -0.2956 -0.6408 -0.0710
  150SAPE   HN116529   2.014   6.583   6.414  1.5906 -1.4018  0.7189
  150SAPE   HN216530   1.950   6.452   6.325 -0.4281 -0.6967  2.3836
  150SAPE   HN316531   2.114   6.473   6.333  0.4091  0.6289  1.0796
  150SAPE   C1216532   2.045   6.620   6.210 -0.3176 -0.2293  0.3747
  150SAPE  H12A16533   1.944   6.664   6.195 -1.1627 -2.1486  0.0077
  150SAPE  H12B16534   2.074   6.558   6.122  2.3810  0.2986  0.8282
  150SAPE   C1116535   2.168   6.715   6.226  0.2262 -0.5736 -0.0510
  150SAPE  H11A16536   2.178   6.771   6.321  1.9446 -0.1170 -0.4648
  150SAPE  H11B16537   2.142   6.792   6.151 -2.2078 -0.6334  0.6324
  150SAPE     P16538   2.370   6.558   6.273  0.1034  0.0761 -0.0786
  150SAPE   O1316539   2.280   6.440   6.275  0.2018 -0.1721 -0.0251
  150SAPE   O1416540   2.505   6.525   6.230  0.0811  0.2365  0.1223
  150SAPE   O1216541   2.295   6.662   6.186 -0.0030 -0.2241 -0.5887
  150SAPE   O1116542   2.374   6.611   6.422 -0.2772  0.0463 -0.1856
  150SAPE    C116543   2.433   6.739   6.453 -0.2346 -0.8489 -0.4029
  150SAPE    HA16544   2.538   6.744   6.417  0.0458  3.5002  0.4137
  150SAPE    HB16545   2.376   6.820   6.402  1.1049 -1.0373 -2.2835
  150SAPE    C216546   2.426   6.768   6.612 -0.3456  0.1025  0.6833
  150SAPE    HS16547   2.434   6.877   6.634  0.2348  0.4589 -1.1306
  150SAPE   O2116548   2.530   6.695   6.682  0.3928 -0.2191  0.1050
  150SAPE   C2116549   2.652   6.744   6.681 -0.3439 -0.4196 -0.2383
  150SAPE   O2216550   2.682   6.853   6.635  0.3175  0.0112  0.0400
  150SAPE   C2216551   2.747   6.627   6.726  0.4746 -0.0241 -0.5924
  150SAPE   H2R16552   2.686   6.551   6.780 -1.0666  2.3199  1.1343
  150SAPE   H2S16553   2.773   6.561   6.640  1.0998 -1.2628  0.5071
  150SAPE    C316554   2.290   6.738   6.664  0.3074 -0.3093 -0.4097
  150SAPE    HX16555   2.271   6.631   6.640  4.7026 -0.9475 -1.9688
  150SAPE    HY16556   2.224   6.810   6.611 -0.3700 -1.2920 -0.9249
  150SAPE   O3116557   2.272   6.763   6.804 -0.7233 -0.1316 -0.3078
  150SAPE   C3116558   2.147   6.752   6.841  0.2584 -0.2888 -0.1368
  150SAPE   O3216559   2.057   6.716   6.766 -0.2868  0.5564 -0.0053
  150SAPE   C3216560   2.125   6.777   6.989 -0.0915 -0.1647  0.1876
  150SAPE   H2X16561   2.218   6.783   7.050 -0.0160  0.3021  0.0329
  150SAPE   H2Y16562   2.082   6.681   7.023 -1.0798  1.0729  2.6948
  150SAPE   C2316563   2.870   6.670   6.797  0.1423 -0.0521 -0.1435
  150SAPE   H3R16564   2.920   6.750   6.738 -0.7612  0.5557 -0.1068
  150SAPE   H3S16565   2.947   6.590   6.803 -2.0495 -2.1781  1.4677
  150SAPE   C2416566   2.824   6.728   6.931 -0.2034 -0.4485  0.1812
  150SAPE   H4R16567   2.754   6.670   6.995  0.5367 -0.7920  0.6975
  150SAPE   H4S16568   2.773   6.825   6.910  2.9567  1.2522 -0.1516
  150SAPE   C2516569   2.948   6.760   7.002 -0.0582  0.1389  0.8130
  150SAPE   H5R16570   3.014   6.826   6.943  0.2516 -1.4182 -0.6514
  150SAPE   C2616571   2.981   6.713   7.120 -0.0141  0.3879 -0.1523
  150SAPE   H6R16572   3.078   6.741   7.163  0.8518 -2.8608  0.2873
  150SAPE   C2716573   2.915   6.611   7.206  0.2921  0.5549 -0.2522
  150SAPE   H7R16574   2.936   6.511   7.161 -2.3567 -0.4676  0.5718
  150SAPE   H7S16575   2.805   6.627   7.206  0.5405  3.2032  2.4392
  150SAPE   C2816576   2.959   6.609   7.351  0.5449 -0.6066 -0.1783
  150SAPE   H8R16577   2.914   6.678   7.426 -0.3968  0.4071 -1.6195
  150SAPE   C2916578   3.070   6.538   7.393  1.3295 -0.2733 -0.0132
  150SAPE   H9R16579   3.106   6.559   7.495 -0.3511  0.2114  0.5118
  150SAPE  C21016580   3.161   6.441   7.313 -0.3757 -0.3570 -0.2223
  150SAPE  H10R16581   3.115   6.401   7.220  0.0878 -1.7272  0.1163
  150SAPE  H10S16582   3.185   6.354   7.378  0.7303  1.1300  1.4799
  150SAPE  C21116583   3.301   6.493   7.281  1.1644 -0.3172  0.1749
  150SAPE  H11R16584   3.316   6.539   7.183  0.3751  1.0541  0.6669
  150SAPE  C21216585   3.410   6.481   7.356 -0.1046 -0.3164  0.0691
  150SAPE  H12R16586   3.514   6.505   7.329  0.4748 -0.5148  1.9533
  150SAPE  C21316587   3.422   6.430   7.496  0.2011  0.2881  0.5021
  150SAPE  H13R16588   3.513   6.366   7.501 -0.4260 -0.5202  2.7385
  150SAPE  H13S16589   3.332   6.367   7.511 -0.5424  0.7442 -1.7277
  150SAPE  C21416590   3.438   6.542   7.589 -0.4457  0.8251 -0.9810
  150SAPE  H14R16591   3.420   6.648   7.563 -0.5680  1.7428  2.3584
  150SAPE  C21516592   3.473   6.518   7.715 -0.2500  0.0014  0.2114
  150SAPE  H15R16593   3.469   6.598   7.791  0.9717  2.3410 -2.0354
  150SAPE  C21616594   3.499   6.383   7.782  0.0295  0.0611  0.1404
  150SAPE  H16R16595   3.531   6.309   7.706  1.0651  1.0411 -0.4153
  150SAPE  H16S16596   3.411   6.355   7.843 -0.3578 -0.9912 -0.8747
  150SAPE  C21716597   3.625   6.374   7.880 -0.5822 -0.0814 -0.6250
  150SAPE  H17R16598   3.720   6.417   7.844 -0.1814  0.7431  1.2925
  150SAPE  H17S16599   3.644   6.267   7.904  0.2096  0.6681  2.6635
  150SAPE  C21816600   3.593   6.443   8.018  0.8731  0.1265  0.0475
  150SAPE  H18R16601   3.500   6.397   8.058  0.3570  2.1269  1.3535
  150SAPE  H18S16602   3.566   6.544   7.981 -0.9438 -0.5182 -0.4914
  150SAPE  C21916603   3.714   6.426   8.100 -0.1351 -0.1419 -0.0495
  150SAPE  H19R16604   3.815   6.455   8.062  0.4121 -0.8538  0.8083
  150SAPE  H19S16605   3.730   6.317   8.111  2.9775  0.3729  2.0856
  150SAPE  C22016606   3.699   6.494   8.231  0.2825  0.7241 -0.0733
  150SAPE  H20R16607   3.600   6.473   8.276  0.8217 -0.7249  0.5082
  150SAPE  H20S16608   3.721   6.603   8.231  0.9620  0.5959 -0.2649
  150SAPE  H20T16609   3.767   6.446   8.305  0.4870  2.2681  0.7793
  150SAPE   C3316610   2.036   6.901   7.018 -0.4370  0.0875  0.3386
  150SAPE   H3X16611   1.942   6.900   6.959 -0.1410 -0.1501 -0.1332
  150SAPE   H3Y16612   2.094   6.994   6.997  2.9047 -1.9634 -0.2758
  150SAPE   C3416613   2.019   6.911   7.175 -0.3980  0.6393  0.6274
  150SAPE   H4X16614   1.953   7.000   7.189 -0.5804  0.4972  0.6675
  150SAPE   H4Y16615   2.107   6.950   7.230  0.6122 -1.0873  0.3008
  150SAPE   C3516616   1.961   6.784   7.237  0.2059  0.7647  0.1735
  150SAPE   H5X16617   2.034   6.701   7.236  1.0131  1.4585 -0.8522
  150SAPE   H5Y16618   1.879   6.756   7.167  1.6386  0.8442 -1.6023
  150SAPE   C3616619   1.923   6.818   7.387  1.0879 -0.1617  0.0739
  150SAPE   H6X16620   1.839   6.889   7.397  0.8645 -0.2134 -1.2300
  150SAPE   H6Y16621   2.016   6.849   7.440  2.1220 -3.2490  0.2470
  150SAPE   C3716622   1.880   6.693   7.470 -0.8467 -1.3425  0.0799
  150SAPE   H7X16623   1.966   6.628   7.495  0.8913  2.0171  3.9634
  150SAPE   H7Y16624   1.805   6.645   7.403 -0.3275  0.3708 -1.8410
  150SAPE   C3816625   1.815   6.734   7.600 -0.2905  0.4051 -0.6359
  150SAPE   H8X16626   1.725   6.794   7.577 -0.7129  1.5708  3.3432
  150SAPE   H8Y16627   1.881   6.795   7.666 -1.5576 -1.1263  2.2170
  150SAPE   C3916628   1.781   6.616   7.695 -0.6184 -0.3845 -0.3224
  150SAPE   H9X16629   1.872   6.554   7.707  0.6507  1.7975  2.8392
  150SAPE   H9Y16630   1.708   6.545   7.650 -0.3641 -0.6411 -0.3319
  150SAPE  C31016631   1.724   6.669   7.828  0.3163  0.3571  0.0281
  150SAPE  H10X16632   1.620   6.698   7.799  1.0120  3.7878  0.6458
  150SAPE  H10Y16633   1.776   6.762   7.857  1.6657 -0.7194  1.2196
  150SAPE  C31116634   1.727   6.567   7.946 -0.6795 -0.6097 -0.1670
  150SAPE  H11X16635   1.830   6.528   7.954 -0.4074  0.5303  3.0795
  150SAPE  H11Y16636   1.658   6.486   7.913  0.6828 -1.8928  0.0580
  150SAPE  C31216637   1.668   6.629   8.073  0.5967 -0.3184 -0.0332
  150SAPE  H12X16638   1.558   6.640   8.079  0.6584 -0.3379  1.5612
  150SAPE  H12Y16639   1.699   6.736   8.077 -1.7968  0.4276  0.4721
  150SAPE  C31316640   1.708   6.540   8.194  0.0153  0.5491 -0.7553
  150SAPE  H13X16641   1.816   6.543   8.219 -0.2451 -2.0674  0.9595
  150SAPE  H13Y16642   1.692   6.434   8.166  2.1944 -1.0471  3.2331
  150SAPE  C31416643   1.617   6.550   8.320  0.2748  0.1481 -0.0422
  150SAPE  H14X16644   1.644   6.467   8.389  2.4000  0.3758 -0.5344
  150SAPE  H14Y16645   1.509   6.534   8.298  0.8661 -1.6818 -1.8873
  150SAPE  C31516646   1.626   6.686   8.377 -0.7244  0.5084 -0.5778
  150SAPE  H15X16647   1.586   6.751   8.297  1.6520  0.2777 -2.0361
  150SAPE  H15Y16648   1.731   6.718   8.393 -0.0428 -1.3001 -1.1988
  150SAPE  C31616649   1.523   6.702   8.492 -0.2227  0.2580 -0.2015
  150SAPE  H16X16650   1.567   6.651   8.580 -1.8458 -0.5563  0.1726
  150SAPE  H16Y16651   1.428   6.650   8.468  0.3446 -0.2273 -1.5155
  150SAPE  C31716652   1.477   6.849   8.511  0.7828  0.0387  0.1405
  150SAPE  H17X16653   1.406   6.866   8.428 -0.2356 -0.4073  0.8941
  150SAPE  H17Y16654   1.563   6.917   8.495 -0.0875  0.3070 -4.8765
  150SAPE  C31816655   1.408   6.885   8.645 -0.0851 -0.6699  0.0100
  150SAPE  H18X16656   1.480   6.857   8.725 -0.2162  0.7146  0.6439
  150SAPE  H18Y16657   1.311   6.831   8.646 -0.0003 -0.8347  1.5889
  150SAPE  H18Z16658   1.393   6.995   8.647  0.9351 -0.4942 -0.9282
  151SAPE     N16659   4.487   5.285   6.090 -0.3284  0.0590 -1.0137
  151SAPE   HN116660   4.567   5.346   6.062  0.6354 -1.6527 -2.1583
  151SAPE   HN216661   4.496   5.202   6.029 -0.0946 -1.6520  1.2250
  151SAPE   HN316662   4.402   5.338   6.060  1.3925  2.5338 -1.9223
  151SAPE   C1216663   4.488   5.244   6.237 -0.2899 -0.2057 -0.0355
  151SAPE  H12A16664   4.392   5.192   6.259 -0.2054  0.2288  1.4967
  151SAPE  H12B16665   4.489   5.332   6.306  0.1254  0.0707 -0.3893
  151SAPE   C1116666   4.611   5.155   6.269 -0.0551 -0.2860  0.3900
  151SAPE  H11A16667   4.591   5.063   6.209  0.4061 -1.4411  1.9403
  151SAPE  H11B16668   4.619   5.109   6.370  1.4830  2.4665  1.6135
  151SAPE     P16669   4.869   5.227   6.306  0.0500  0.8373 -0.1762
  151SAPE   O1316670   4.941   5.100   6.296  0.0586  0.4118 -0.4775
  151SAPE   O1416671   4.940   5.347   6.257 -0.3528 -0.7273 -0.2812
  151SAPE   O1216672   4.732   5.220   6.227  0.3535  0.2621  0.7100
  151SAPE   O1116673   4.818   5.248   6.448 -0.1110 -0.2101  0.1600
  151SAPE    C116674   4.897   5.332   6.537  0.0936  0.1704 -0.5500
  151SAPE    HA16675   4.951   5.419   6.495  0.3629  0.7594  0.9595
  151SAPE    HB16676   4.829   5.377   6.612 -1.1925  0.8752 -2.0733
  151SAPE    C216677   4.997   5.250   6.624  0.0124 -0.5420 -0.3037
  151SAPE    HS16678   5.046   5.181   6.552  1.0448 -0.7372  0.5668
  151SAPE   O2116679   4.939   5.179   6.728 -0.1219  0.4476  0.5682
  151SAPE   C2116680   4.995   5.058   6.756 -0.0332 -0.0003 -0.6478
  151SAPE   O2216681   5.102   5.021   6.710 -0.0657 -0.7403 -0.3556
  151SAPE   C2216682   4.913   4.972   6.854 -0.3782 -0.1302  0.4062
  151SAPE   H2R16683   4.804   4.970   6.831  0.1392 -2.9243 -2.5595
  151SAPE   H2S16684   4.943   4.866   6.840 -1.4356 -0.4990  0.7910
  151SAPE    C316685   5.108   5.336   6.685 -0.6088  0.5377  0.0055
  151SAPE    HX16686   5.162   5.392   6.606  0.5110 -1.1581 -0.5068
  151SAPE    HY16687   5.189   5.270   6.724 -0.6055 -0.0215 -0.9176
  151SAPE   O3116688   5.049   5.421   6.788 -0.3065  0.2631 -0.6377
  151SAPE   C3116689   5.047   5.556   6.780  0.6720 -0.1003  0.5952
  151SAPE   O3216690   5.097   5.612   6.683  0.3505 -0.4205 -0.3685
  151SAPE   C3216691   4.996   5.615   6.905 -0.3808  1.1271 -0.3560
  151SAPE   H2X16692   4.892   5.656   6.899 -0.5649  0.8536  0.7937
  151SAPE   H2Y16693   5.072   5.690   6.932  0.8011 -0.0660 -0.2875
  151SAPE   C2316694   4.949   5.015   6.996 -0.4319  0.5137  0.3784
  151SAPE   H3R16695   5.057   4.990   7.011 -0.4461  0.3585  0.2130
  151SAPE   H3S16696   4.899   4.942   7.062  1.1563  0.4243  1.5547
  151SAPE   C2416697   4.906   5.160   7.032 -0.0981  0.7624 -0.3976
  151SAPE   H4R16698   4.972   5.234   6.983  0.4358  2.1030  2.1409
  151SAPE   H4S16699   4.933   5.173   7.139  1.0686 -1.9971 -0.2869
  151SAPE   C2516700   4.759   5.198   7.006 -0.4337  0.7920  0.2014
  151SAPE   H5R16701   4.734   5.214   6.900  2.0438 -0.5321 -0.6714
  151SAPE   C2616702   4.658   5.173   7.092  0.8447  0.0157  0.7892
  151SAPE   H6R16703   4.554   5.194   7.063  1.1988  1.7569  0.6816
  151SAPE   C2716704   4.667   5.108   7.230 -0.1127 -0.5407 -0.2850
  151SAPE   H7R16705   4.759   5.046   7.238  2.7971  3.5679  1.1957
  151SAPE   H7S16706   4.579   5.039   7.232 -0.4190 -0.2167 -1.5142
  151SAPE   C2816707   4.676   5.223   7.331  0.1005 -0.2054  0.4991
  151SAPE   H8R16708   4.742   5.305   7.301 -0.7480  0.4255  0.3380
  151SAPE   C2916709   4.622   5.225   7.455  0.5979 -0.1402 -0.2130
  151SAPE   H9R16710   4.639   5.318   7.510 -0.4096 -0.8633  1.3935
  151SAPE  C21016711   4.525   5.123   7.512  0.5465 -0.1379 -0.0579
  151SAPE  H10R16712   4.529   5.022   7.465  4.1338  0.1519 -0.6247
  151SAPE  H10S16713   4.431   5.176   7.487  0.3009  0.5713  2.1809
  151SAPE  C21116714   4.559   5.112   7.662 -0.9054  0.3769 -0.1659
  151SAPE  H11R16715   4.667   5.099   7.680 -1.2045 -0.0179  1.5568
  151SAPE  C21216716   4.468   5.119   7.763 -0.3609  0.2627  0.7062
  151SAPE  H12R16717   4.505   5.122   7.866  2.2755 -1.8376 -0.0565
  151SAPE  C21316718   4.322   5.140   7.744  0.2171  0.0620  0.2197
  151SAPE  H13R16719   4.265   5.131   7.649 -3.3411  3.0604  1.8011
  151SAPE  H13S16720   4.307   5.248   7.769  0.2153  0.2157 -0.4243
  151SAPE  C21416721   4.262   5.038   7.836  0.5300 -1.0637 -0.0608
  151SAPE  H14R16722   4.264   4.931   7.811 -0.9641 -1.4436  1.2379
  151SAPE  C21516723   4.227   5.066   7.963 -1.0168 -0.2727  0.0985
  151SAPE  H15R16724   4.170   4.986   8.013  1.9502 -2.4768  0.2382
  151SAPE  C21616725   4.236   5.197   8.038  0.2984 -0.4075 -0.2718
  151SAPE  H16R16726   4.134   5.211   8.079 -1.6066  2.0073 -5.0311
  151SAPE  H16S16727   4.256   5.276   7.962  0.9209  0.6933  0.9809
  151SAPE  C21716728   4.343   5.196   8.148  0.7368  0.2582  0.9248
  151SAPE  H17R16729   4.343   5.299   8.189 -2.6012  0.5548  0.4874
  151SAPE  H17S16730   4.441   5.176   8.100  1.0823  2.2322  0.7289
  151SAPE  C21816731   4.322   5.101   8.262 -0.4341  0.0187  0.5959
  151SAPE  H18R16732   4.212   5.089   8.276 -0.2424 -2.6709  0.2498
  151SAPE  H18S16733   4.382   5.135   8.349  0.9401 -0.5257 -0.1199
  151SAPE  C21916734   4.357   4.949   8.240  0.0182 -0.6497 -0.2901
  151SAPE  H19R16735   4.285   4.903   8.169 -0.5284  1.8588 -1.4755
  151SAPE  H19S16736   4.344   4.898   8.338  0.3758 -2.2312 -1.0282
  151SAPE  C22016737   4.498   4.939   8.183 -0.2473  0.2298 -0.2566
  151SAPE  H20R16738   4.489   4.949   8.072 -0.4317 -1.8127 -0.4776
  151SAPE  H20S16739   4.574   5.003   8.231  0.5192  0.7202 -2.0584
  151SAPE  H20T16740   4.537   4.835   8.184 -1.7674 -0.3913  1.7026
  151SAPE   C3316741   5.003   5.529   7.033 -0.3782 -0.6747 -0.7053
  151SAPE   H3X16742   4.936   5.440   7.028  0.4845 -1.3572 -0.3430
  151SAPE   H3Y16743   4.963   5.585   7.121 -1.8057 -1.8022 -0.5801
  151SAPE   C3416744   5.139   5.480   7.072 -0.2441  0.0315 -0.1194
  151SAPE   H4X16745   5.215   5.562   7.069 -1.1969  0.9070 -1.8098
  151SAPE   H4Y16746   5.165   5.393   7.009 -2.0287 -0.3897 -0.3257
  151SAPE   C3516747   5.131   5.423   7.213 -0.2436  0.0039  0.3755
  151SAPE   H5X16748   5.199   5.339   7.236  0.7740  1.4691  3.2573
  151SAPE   H5Y16749   5.035   5.372   7.236  0.3726 -1.3336  0.0801
  151SAPE   C3616750   5.161   5.524   7.330 -0.2334  0.1644  0.3152
  151SAPE   H6X16751   5.084   5.604   7.338  1.0124  1.4691 -0.2361
  151SAPE   H6Y16752   5.252   5.583   7.305  0.9530 -1.7655 -0.0442
  151SAPE   C3716753   5.162   5.451   7.461 -0.3410  0.1559  0.9538
  151SAPE   H7X16754   5.234   5.366   7.467  0.2939  0.6492  0.4464
  151SAPE   H7Y16755   5.064   5.403   7.479  0.8040 -1.9697  1.9812
  151SAPE   C3816756   5.179   5.551   7.582 -0.6924  0.8150 -0.0077
  151SAPE   H8X16757   5.133   5.650   7.561 -1.6112  0.1653 -1.2194
  151SAPE   H8Y16758   5.285   5.578   7.602 -0.1885 -0.6214 -0.6074
  151SAPE   C3916759   5.115   5.507   7.713 -0.4313 -0.3544 -0.0758
  151SAPE   H9X16760   5.151   5.403   7.733 -0.0424 -0.0512  0.9038
  151SAPE   H9Y16761   5.005   5.492   7.705 -0.5839 -1.1991  2.4941
  151SAPE  C31016762   5.139   5.604   7.829 -0.0459 -0.1069  0.5840
  151SAPE  H10X16763   5.070   5.582   7.913 -1.6283  0.0092 -0.6270
  151SAPE  H10Y16764   5.124   5.712   7.805 -1.7486 -0.4076  0.1155
  151SAPE  C31116765   5.273   5.583   7.903  0.0023 -0.2759 -0.0838
  151SAPE  H11X16766   5.318   5.481   7.897  0.1403 -0.2918  0.9646
  151SAPE  H11Y16767   5.256   5.593   8.012  1.4783 -0.2260  0.1701
  151SAPE  C31216768   5.378   5.689   7.868  0.0916  0.2275  0.6200
  151SAPE  H12X16769   5.336   5.789   7.894 -0.4801 -0.2327  1.5223
  151SAPE  H12Y16770   5.409   5.695   7.762  2.2833  0.1912  1.2204
  151SAPE  C31316771   5.503   5.693   7.958 -0.1554 -0.5672 -0.4134
  151SAPE  H13X16772   5.546   5.591   7.957  1.6384  0.1539  0.0386
  151SAPE  H13Y16773   5.480   5.722   8.063  1.5687 -0.0922 -0.1401
  151SAPE  C31416774   5.616   5.790   7.907  0.2266 -0.4160 -0.7772
  151SAPE  H14X16775   5.580   5.895   7.896  1.5584  0.2774  1.0261
  151SAPE  H14Y16776   5.642   5.754   7.805 -1.7996 -1.3359 -1.0078
  151SAPE  C31516777   5.740   5.803   8.005  0.6263 -0.3038  0.2861
  151SAPE  H15X16778   5.710   5.883   8.076  0.0086  0.5214 -0.8647
  151SAPE  H15Y16779   5.831   5.835   7.950 -0.6180 -1.0064 -2.3386
  151SAPE  C31616780   5.768   5.679   8.091 -0.4825  0.1192 -0.2138
  151SAPE  H16X16781   5.811   5.602   8.024 -0.8823  0.9329 -1.4496
  151SAPE  H16Y16782   5.679   5.632   8.139 -0.6700 -0.5342 -1.1664
  151SAPE  C31716783   5.866   5.707   8.205 -0.4845 -0.6118 -0.0481
  151SAPE  H17X16784   5.944   5.781   8.177  0.3010 -0.8173  1.4754
  151SAPE  H17Y16785   5.917   5.610   8.227 -0.7629 -0.4946  1.1962
  151SAPE  C31816786   5.796   5.749   8.330  0.6312 -0.0034 -0.8316
  151SAPE  H18X16787   5.878   5.770   8.402  0.1106  2.7017 -0.9183
  151SAPE  H18Y16788   5.728   5.675   8.377 -1.0034  2.2515  0.5749
  151SAPE  H18Z16789   5.731   5.839   8.326 -1.9807 -1.6787  0.8829
  152SAPE     N16790   1.638   3.378   6.523 -0.1724 -0.0456 -0.1761
  152SAPE   HN116791   1.645   3.277   6.545  0.4037 -0.2948 -1.3981
  152SAPE   HN216792   1.722   3.436   6.543  0.2047 -1.2849  2.1834
  152SAPE   HN316793   1.548   3.410   6.564 -0.3160  2.3176 -2.0945
  152SAPE   C1216794   1.607   3.361   6.374 -0.0875 -0.2667  1.0801
  152SAPE  H12A16795   1.698   3.311   6.336 -1.3463 -0.7193 -1.5596
  152SAPE  H12B16796   1.590   3.463   6.334  1.6349 -0.7504 -1.0293
  152SAPE   C1116797   1.470   3.292   6.355 -0.5009  0.1151 -0.4311
  152SAPE  H11A16798   1.431   3.329   6.258 -0.9555  0.2670 -0.1948
  152SAPE  H11B16799   1.397   3.327   6.430  0.7210  2.1876 -0.1517
  152SAPE     P16800   1.492   3.056   6.233 -0.2689  0.3718  0.3303
  152SAPE   O1316801   1.362   3.031   6.168  0.4883 -0.6319  0.1276
  152SAPE   O1416802   1.605   3.113   6.156  0.6639  0.1969  0.5027
  152SAPE   O1216803   1.478   3.149   6.366 -0.2777 -0.0882  0.1673
  152SAPE   O1116804   1.540   2.916   6.311  0.5478 -0.4524  0.2376
  152SAPE    C116805   1.637   2.920   6.415 -0.2565 -0.1501 -0.2038
  152SAPE    HA16806   1.702   2.830   6.411 -1.1615 -0.7700 -1.9787
  152SAPE    HB16807   1.704   3.009   6.423  0.7615 -0.7634 -1.4555
  152SAPE    C216808   1.553   2.900   6.550 -0.0642 -0.8739  0.3103
  152SAPE    HS16809   1.471   2.975   6.553  1.7348  1.2233  0.0970
  152SAPE   O2116810   1.636   2.905   6.663 -0.0327 -0.0745 -0.1786
  152SAPE   C2116811   1.680   3.015   6.705  0.5582 -0.0474  0.0403
  152SAPE   O2216812   1.674   3.125   6.647 -0.1884  0.0189  0.4704
  152SAPE   C2216813   1.728   3.001   6.845 -0.5731  0.3128 -0.4647
  152SAPE   H2R16814   1.643   2.977   6.912 -0.3497  0.7971  0.0036
  152SAPE   H2S16815   1.793   2.912   6.847  1.5319  1.7061 -2.0231
  152SAPE    C316816   1.492   2.754   6.545  0.4956  1.2514  0.4611
  152SAPE    HX16817   1.575   2.684   6.522 -2.6686 -2.4244 -1.0119
  152SAPE    HY16818   1.427   2.730   6.458  2.6719 -2.5620 -0.3452
  152SAPE   O3116819   1.417   2.724   6.667 -0.1273  0.5662  0.0888
  152SAPE   C3116820   1.463   2.628   6.746  0.3831 -0.1225 -0.1645
  152SAPE   O3216821   1.575   2.571   6.740  0.3122  0.6331 -0.4648
  152SAPE   C3216822   1.352   2.587   6.839  0.2827 -0.2561 -0.6737
  152SAPE   H2X16823   1.250   2.598   6.795 -0.1475 -3.1237 -0.6239
  152SAPE   H2Y16824   1.363   2.660   6.921  0.1540  0.6496 -1.4484
  152SAPE   C2316825   1.805   3.127   6.895 -0.1297 -0.1820  0.0975
  152SAPE   H3R16826   1.805   3.111   7.005 -1.5247  1.6445  0.4248
  152SAPE   H3S16827   1.746   3.220   6.875 -0.7702 -0.8863 -1.4393
  152SAPE   C2416828   1.950   3.139   6.840  0.1083 -0.1379  0.7562
  152SAPE   H4R16829   1.994   3.236   6.869  0.0961 -0.1788  0.9137
  152SAPE   H4S16830   1.949   3.131   6.730  1.8035 -0.5154  0.7444
  152SAPE   C2516831   2.030   3.026   6.906  0.6795  0.4034 -0.1110
  152SAPE   H5R16832   2.029   2.934   6.846  0.1508 -0.0285  0.5507
  152SAPE   C2616833   2.099   3.034   7.023  0.4092  0.3935  0.0547
  152SAPE   H6R16834   2.152   2.947   7.064  1.8394  0.6156 -1.2340
  152SAPE   C2716835   2.098   3.158   7.113 -0.3140 -0.1175  0.6271
  152SAPE   H7R16836   2.030   3.236   7.073  1.1131  0.1227 -1.5199
  152SAPE   H7S16837   2.204   3.190   7.103 -0.8438  1.0395 -2.3096
  152SAPE   C2816838   2.068   3.136   7.256 -0.2131 -0.0214  0.0393
  152SAPE   H8R16839   1.964   3.161   7.282 -1.0683 -2.8995 -0.2779
  152SAPE   C2916840   2.145   3.072   7.351  0.3349 -0.0311 -0.7611
  152SAPE   H9R16841   2.109   3.043   7.451  2.4288 -4.3425 -1.0144
  152SAPE  C21016842   2.275   3.002   7.337  0.0429 -0.2220  0.1695
  152SAPE  H10R16843   2.347   3.054   7.403  0.7320 -0.8621 -0.0568
  152SAPE  H10S16844   2.311   2.986   7.233  0.2106 -0.5075  0.2702
  152SAPE  C21116845   2.272   2.866   7.394 -0.2313  1.3914  0.2849
  152SAPE  H11R16846   2.248   2.790   7.318 -0.2055  0.2007  1.4230
  152SAPE  C21216847   2.306   2.832   7.524  0.1146  0.6313  1.2269
  152SAPE  H12R16848   2.303   2.727   7.555 -0.7518  0.3297  0.1850
  152SAPE  C21316849   2.342   2.923   7.635 -0.3670  1.1187 -0.3604
  152SAPE  H13R16850   2.329   3.032   7.616 -2.0590  1.4409  2.1561
  152SAPE  H13S16851   2.452   2.915   7.644 -0.4188  0.3462 -0.3217
  152SAPE  C21416852   2.287   2.891   7.777 -0.0846  0.0885  0.6680
  152SAPE  H14R16853   2.180   2.914   7.790 -0.4016 -0.5652 -0.5604
  152SAPE  C21516854   2.356   2.829   7.877  0.1262 -0.4825 -0.3190
  152SAPE  H15R16855   2.295   2.813   7.967 -0.9882 -1.0704 -1.1535
  152SAPE  C21616856   2.494   2.762   7.856  0.3022  0.7564  0.1534
  152SAPE  H16R16857   2.563   2.818   7.923 -0.1477  0.4483  0.8971
  152SAPE  H16S16858   2.522   2.768   7.749  0.4517 -0.3369  0.1287
  152SAPE  C21716859   2.504   2.616   7.905  0.6389 -0.3335  0.6438
  152SAPE  H17R16860   2.605   2.587   7.941  0.2630 -0.8523  1.3016
  152SAPE  H17S16861   2.481   2.558   7.813  2.8023  1.1057 -0.9262
  152SAPE  C21816862   2.406   2.577   8.016  0.3093  0.2263  0.2515
  152SAPE  H18R16863   2.302   2.574   7.976  0.7085 -0.5008 -0.7600
  152SAPE  H18S16864   2.407   2.649   8.101 -2.0282  0.0784  0.4773
  152SAPE  C21916865   2.448   2.446   8.081  0.7381 -1.0144 -0.2709
  152SAPE  H19R16866   2.371   2.440   8.161 -0.1502  0.1075 -1.0162
  152SAPE  H19S16867   2.545   2.452   8.136  0.0910  0.3681  0.7906
  152SAPE  C22016868   2.438   2.324   7.987  0.2729 -0.6458  0.4461
  152SAPE  H20R16869   2.466   2.233   8.044  0.6981 -0.5380  0.4181
  152SAPE  H20S16870   2.504   2.338   7.899 -2.3051 -2.2988 -1.8862
  152SAPE  H20T16871   2.332   2.318   7.955  0.3583 -0.9443  0.2139
  152SAPE   C3316872   1.369   2.448   6.895  1.0117  0.0112  0.1123
  152SAPE   H3X16873   1.455   2.457   6.964  1.4050  0.2343 -0.4037
  152SAPE   H3Y16874   1.383   2.371   6.816 -0.4381 -0.6576  0.4648
  152SAPE   C3416875   1.250   2.404   6.980  0.1104  0.3373  0.4547
  152SAPE   H4X16876   1.176   2.385   6.899  2.0350 -1.0784 -1.1056
  152SAPE   H4Y16877   1.221   2.481   7.054  0.8482  0.8547  0.2217
  152SAPE   C3516878   1.283   2.277   7.071  0.2859  0.3106  0.2693
  152SAPE   H5X16879   1.369   2.299   7.138  0.5235 -1.1152  0.4551
  152SAPE   H5Y16880   1.315   2.192   7.008 -2.3594  0.1399 -0.9896
  152SAPE   C3616881   1.153   2.243   7.147 -0.3563 -0.3430  0.5072
  152SAPE   H6X16882   1.077   2.212   7.072 -2.1899  1.7637  1.4062
  152SAPE   H6Y16883   1.121   2.336   7.197  0.6014  0.7333 -0.8171
  152SAPE   C3716884   1.166   2.130   7.251  0.2831 -0.9135  0.3054
  152SAPE   H7X16885   1.247   2.060   7.220  1.2173 -0.1233  0.8891
  152SAPE   H7Y16886   1.071   2.074   7.263 -0.4937  0.3185  0.1668
  152SAPE   C3816887   1.190   2.196   7.391  0.2921  0.2091 -0.0144
  152SAPE   H8X16888   1.094   2.245   7.420 -1.0282 -1.7555 -0.8316
  152SAPE   H8Y16889   1.259   2.280   7.371 -1.7084  1.6430 -1.3521
  152SAPE   C3916890   1.240   2.113   7.512  0.1306 -0.4648  0.7275
  152SAPE   H9X16891   1.337   2.075   7.475 -0.8897 -0.3786 -2.3258
  152SAPE   H9Y16892   1.162   2.037   7.536 -0.3589 -0.3308 -0.3574
  152SAPE  C31016893   1.265   2.194   7.638 -0.3801 -0.9070  0.4466
  152SAPE  H10X16894   1.169   2.222   7.685  0.1360 -0.8388  1.4674
  152SAPE  H10Y16895   1.322   2.286   7.614 -0.3714 -0.3995  2.2909
  152SAPE  C31116896   1.353   2.109   7.741  0.1584  0.2997  0.0530
  152SAPE  H11X16897   1.453   2.085   7.699 -1.1746 -1.5735 -2.3132
  152SAPE  H11Y16898   1.291   2.016   7.743 -1.6493  1.4441  1.6534
  152SAPE  C31216899   1.361   2.168   7.875 -0.1720  0.2860  0.1460
  152SAPE  H12X16900   1.266   2.211   7.914  0.7380  0.5353  2.1908
  152SAPE  H12Y16901   1.428   2.257   7.873 -2.3418  2.0014 -0.0676
  152SAPE  C31316902   1.397   2.061   7.978  0.3743  0.1851  0.2895
  152SAPE  H13X16903   1.498   2.017   7.964 -1.3059 -3.8235 -0.5695
  152SAPE  H13Y16904   1.322   1.980   7.970  1.4991 -0.8727  0.1708
  152SAPE  C31416905   1.386   2.118   8.124 -0.0673 -0.1601  0.3537
  152SAPE  H14X16906   1.284   2.158   8.138 -0.8165 -1.5168 -0.9066
  152SAPE  H14Y16907   1.460   2.200   8.135  1.3200 -1.5308  1.8293
  152SAPE  C31516908   1.424   2.015   8.235 -0.0272 -0.2960  0.3998
  152SAPE  H15X16909   1.384   2.058   8.329 -1.9237  0.6880 -0.7815
  152SAPE  H15Y16910   1.533   1.997   8.241  0.0479  0.4845  1.6490
  152SAPE  C31616911   1.358   1.874   8.243  0.0580  0.2004  0.2156
  152SAPE  H16X16912   1.394   1.836   8.341  1.6325  0.7105 -0.1402
  152SAPE  H16Y16913   1.415   1.823   8.162  0.0626 -0.8755  0.8646
  152SAPE  C31716914   1.209   1.867   8.243  0.2361 -0.2273  0.4859
  152SAPE  H17X16915   1.148   1.937   8.182 -3.8369 -3.3995  0.4891
  152SAPE  H17Y16916   1.177   1.903   8.343  0.5819  2.7523 -0.3699
  152SAPE  C31816917   1.160   1.726   8.229  0.6704  0.1889 -0.0973
  152SAPE  H18X16918   1.180   1.678   8.131  0.9272  0.0580  0.0222
  152SAPE  H18Y16919   1.050   1.740   8.214  0.2599  2.0356  3.4565
  152SAPE  H18Z16920   1.171   1.655   8.313 -0.7695 -0.8713 -0.7620
  153SAPE     N16921   5.521   1.064   6.307 -0.9550 -0.6644 -0.3530
  153SAPE   HN116922   5.454   0.988   6.331 -1.9797 -0.3232 -1.9568
  153SAPE   HN216923   5.593   1.014   6.251 -0.1587 -0.8539  0.8166
  153SAPE   HN316924   5.566   1.104   6.392  0.0387 -1.6613 -0.3954
  153SAPE   C1216925   5.440   1.173   6.223 -0.4017  0.2992  0.1415
  153SAPE  H12A16926   5.515   1.233   6.168  0.0109 -2.9698 -3.3547
  153SAPE  H12B16927   5.384   1.229   6.300  1.4342  0.6748  1.2590
  153SAPE   C1116928   5.350   1.107   6.115 -0.5528 -0.5821  0.8516
  153SAPE  H11A16929   5.410   1.028   6.067 -0.2858 -0.5424  1.1186
  153SAPE  H11B16930   5.319   1.185   6.042 -2.5826 -1.6061  0.5272
  153SAPE     P16931   5.111   0.992   6.139  0.2517  0.2381  0.2244
  153SAPE   O1316932   5.080   1.030   6.000 -0.0544 -0.4364  0.9877
  153SAPE   O1416933   5.112   0.851   6.167  0.3527  0.0446 -0.7035
  153SAPE   O1216934   5.249   1.043   6.187  0.1076 -0.5344  0.2538
  153SAPE   O1116935   5.011   1.067   6.230  0.0200 -0.3559  0.2510
  153SAPE    C116936   5.064   1.162   6.330 -0.4800  0.0485  0.2738
  153SAPE    HA16937   5.166   1.202   6.309 -0.2767  0.4987  1.9360
  153SAPE    HB16938   4.999   1.252   6.317  0.1202  0.4782  0.2138
  153SAPE    C216939   5.046   1.112   6.470 -0.1018  0.5297 -0.2462
  153SAPE    HS16940   5.050   1.001   6.474 -1.3527  0.4503 -0.8370
  153SAPE   O2116941   4.924   1.162   6.522 -0.0280 -0.0440  0.2153
  153SAPE   C2116942   4.868   1.087   6.617 -1.0115  0.2899 -0.2927
  153SAPE   O2216943   4.909   0.977   6.660  0.0627  0.6233  0.4465
  153SAPE   C2216944   4.732   1.148   6.651 -0.1626  0.1735 -0.9869
  153SAPE   H2R16945   4.747   1.243   6.706  0.2254 -0.9274  0.8826
  153SAPE   H2S16946   4.699   1.167   6.547  0.4021  1.7904 -0.8963
  153SAPE    C316947   5.161   1.177   6.551  0.8421  0.1351 -0.7338
  153SAPE    HX16948   5.139   1.286   6.544  1.9850  0.4535  0.1675
  153SAPE    HY16949   5.264   1.162   6.512  1.8855  0.5541  1.6334
  153SAPE   O3116950   5.148   1.145   6.690 -0.2590 -0.6017 -0.4843
  153SAPE   C3116951   5.194   1.025   6.735 -0.7748 -0.3211  0.0297
  153SAPE   O3216952   5.264   0.949   6.670 -0.2354 -0.0783  0.2958
  153SAPE   C3216953   5.145   0.999   6.877  0.0408  0.2133  0.0064
  153SAPE   H2X16954   5.096   0.899   6.884 -0.1011  0.1564 -1.4195
  153SAPE   H2Y16955   5.065   1.071   6.901  1.1980  1.9911 -1.1837
  153SAPE   C2316956   4.642   1.041   6.718  1.0390 -0.8084 -0.5110
  153SAPE   H3R16957   4.646   0.944   6.665  1.0540 -1.0135 -0.1367
  153SAPE   H3S16958   4.537   1.072   6.705  1.0374 -0.8285 -0.5464
  153SAPE   C2416959   4.675   1.006   6.872 -0.3377  0.3891  0.0822
  153SAPE   H4R16960   4.785   0.999   6.882 -0.4269 -0.9451  0.3512
  153SAPE   H4S16961   4.634   0.906   6.897 -0.2465  0.5403  0.8908
  153SAPE   C2516962   4.622   1.102   6.968 -0.5890  0.1934  0.4106
  153SAPE   H5R16963   4.514   1.085   6.980 -0.3350 -0.7220  1.7050
  153SAPE   C2616964   4.699   1.185   7.044  0.7121  0.0979 -0.6965
  153SAPE   H6R16965   4.655   1.245   7.125  1.8149 -0.1457  0.0946
  153SAPE   C2716966   4.849   1.213   7.026 -0.1895  0.4952 -0.5852
  153SAPE   H7R16967   4.847   1.324   7.017 -1.0455  0.6016  0.6389
  153SAPE   H7S16968   4.892   1.163   6.936  0.3719  0.3180 -0.2177
  153SAPE   C2816969   4.933   1.166   7.144  0.3005 -0.0483  0.6367
  153SAPE   H8R16970   4.993   1.077   7.120 -1.0547 -0.2806 -2.2468
  153SAPE   C2916971   4.950   1.222   7.268 -0.3812 -0.7950 -0.0859
  153SAPE   H9R16972   5.018   1.178   7.343  2.0253  1.0297 -1.0555
  153SAPE  C21016973   4.879   1.350   7.323  0.4830  0.8552  0.1195
  153SAPE  H10R16974   4.846   1.411   7.235 -0.8150 -0.2694 -0.2059
  153SAPE  H10S16975   4.956   1.408   7.377 -0.5840 -0.5567  3.3951
  153SAPE  C21116976   4.770   1.306   7.422 -0.3221 -0.8775  0.1018
  153SAPE  H11R16977   4.672   1.294   7.373 -0.3969 -0.6714  0.2007
  153SAPE  C21216978   4.778   1.283   7.559  0.0706  0.0795  0.1203
  153SAPE  H12R16979   4.681   1.282   7.611  0.5829 -0.3799  1.0974
  153SAPE  C21316980   4.896   1.283   7.647 -0.7286 -0.4649 -0.3159
  153SAPE  H13R16981   4.869   1.326   7.745 -0.5738  0.1916 -0.5519
  153SAPE  H13S16982   4.960   1.365   7.606 -1.3779  1.1105  1.6736
  153SAPE  C21416983   4.969   1.158   7.663 -1.0379  0.6221 -0.1254
  153SAPE  H14R16984   4.972   1.089   7.577  0.2605  1.3867 -0.7311
  153SAPE  C21516985   5.037   1.114   7.774  0.5219 -0.1796  0.7177
  153SAPE  H15R16986   5.083   1.014   7.778 -2.2403 -1.5420  1.6225
  153SAPE  C21616987   5.041   1.203   7.899  0.1366  0.4276  0.2405
  153SAPE  H16R16988   4.985   1.156   7.983 -0.5403  0.5229 -0.1487
  153SAPE  H16S16989   4.987   1.300   7.895 -0.6054  0.0680  1.1251
  153SAPE  C21716990   5.188   1.231   7.951 -0.2415  0.3036 -0.8203
  153SAPE  H17R16991   5.242   1.297   7.879 -0.0834  1.4640  0.3311
  153SAPE  H17S16992   5.225   1.127   7.964  0.1288  0.3792 -1.2317
  153SAPE  C21816993   5.199   1.275   8.100 -0.0813  0.0456 -0.1411
  153SAPE  H18R16994   5.163   1.187   8.156 -0.2596 -0.9040 -1.6852
  153SAPE  H18S16995   5.135   1.366   8.104 -2.3042 -1.4941  1.7850
  153SAPE  C21916996   5.338   1.308   8.146  0.0078  0.7368 -0.5579
  153SAPE  H19R16997   5.392   1.374   8.075 -0.6835 -1.4347 -3.2727
  153SAPE  H19S16998   5.401   1.217   8.140 -1.1159 -0.0748 -0.3684
  153SAPE  C22016999   5.334   1.352   8.292  0.1073  0.4809  0.2983
  153SAPE  H20R17000   5.277   1.278   8.352 -0.4426 -0.5987 -1.4469
  153SAPE  H20S17001   5.283   1.450   8.301  1.0303  0.7701  3.1849
  153SAPE  H20T17002   5.430   1.364   8.345  0.4737 -2.7249  0.5511
  153SAPE   C3317003   5.264   1.017   6.983  0.3139  0.0024 -0.2535
  153SAPE   H3X17004   5.272   1.128   6.988  1.9571  0.0036 -1.6860
  153SAPE   H3Y17005   5.356   0.977   6.935  0.3760  0.9562 -0.9725
  153SAPE   C3417006   5.238   0.945   7.107  0.2290 -0.4802  0.3588
  153SAPE   H4X17007   5.295   0.849   7.110  0.3457 -0.4364 -0.3496
  153SAPE   H4Y17008   5.133   0.918   7.134  0.3021  1.5453  3.1145
  153SAPE   C3517009   5.280   1.033   7.223  0.2608  0.1941  0.5320
  153SAPE   H5X17010   5.207   1.116   7.220  1.9516  1.7067 -0.7860
  153SAPE   H5Y17011   5.383   1.071   7.209  0.5917 -0.5874  0.8074
  153SAPE   C3617012   5.269   0.961   7.358 -0.4399  0.3381 -0.1801
  153SAPE   H6X17013   5.321   0.863   7.363  1.6846  1.4585  1.5538
  153SAPE   H6Y17014   5.161   0.947   7.380 -0.4543  1.1189  0.2820
  153SAPE   C3717015   5.329   1.040   7.470 -0.4959 -0.4228  1.1115
  153SAPE   H7X17016   5.278   1.138   7.480 -2.6241 -1.3147 -0.2363
  153SAPE   H7Y17017   5.438   1.059   7.463 -0.6714  0.5776  0.8452
  153SAPE   C3817018   5.302   0.960   7.599 -0.3837  0.9205 -0.3490
  153SAPE   H8X17019   5.203   0.911   7.598 -0.5695  1.3041 -0.5530
  153SAPE   H8Y17020   5.297   1.032   7.684 -0.5581  0.0897  0.3554
  153SAPE   C3917021   5.426   0.868   7.628  0.2424 -0.0528 -0.1500
  153SAPE   H9X17022   5.507   0.938   7.660 -0.9782  0.3044  2.4787
  153SAPE   H9Y17023   5.459   0.823   7.532  0.7130 -0.0057 -0.0135
  153SAPE  C31017024   5.402   0.775   7.745  0.7652  0.1268 -0.2086
  153SAPE  H10X17025   5.497   0.721   7.769  0.1104  0.0350  2.5666
  153SAPE  H10Y17026   5.336   0.700   7.697  3.3831 -2.8923  0.5602
  153SAPE  C31117027   5.344   0.824   7.881  0.3230  0.4069 -0.0868
  153SAPE  H11X17028   5.312   0.736   7.943  1.5807  0.1427  0.2209
  153SAPE  H11Y17029   5.252   0.882   7.862 -1.0687 -1.7685 -0.4452
  153SAPE  C31217030   5.437   0.895   7.983  0.4037  0.1107  0.5414
  153SAPE  H12X17031   5.468   0.986   7.927 -2.1157 -0.3204 -1.7322
  153SAPE  H12Y17032   5.521   0.823   7.986 -0.1943 -0.5745  2.7666
  153SAPE  C31317033   5.365   0.919   8.118  0.2354  0.3309  0.4508
  153SAPE  H13X17034   5.265   0.952   8.082  0.8115 -0.3330 -1.8841
  153SAPE  H13Y17035   5.421   1.007   8.156  1.4613  0.7624 -2.1293
  153SAPE  C31417036   5.352   0.805   8.223  0.2011 -0.1989 -0.1560
  153SAPE  H14X17037   5.454   0.768   8.247 -0.8825 -2.5627  1.0937
  153SAPE  H14Y17038   5.320   0.705   8.189  1.5574 -0.4237 -0.8352
  153SAPE  C31517039   5.273   0.837   8.347  0.3651 -0.1828  0.1462
  153SAPE  H15X17040   5.166   0.823   8.321  0.3003  1.9386 -0.8885
  153SAPE  H15Y17041   5.279   0.941   8.385 -0.1438 -0.2336  0.3835
  153SAPE  C31617042   5.304   0.741   8.468  0.4882  0.4875  0.0723
  153SAPE  H16X17043   5.407   0.765   8.501  0.4824 -0.0725  0.5213
  153SAPE  H16Y17044   5.292   0.637   8.430 -1.7611  0.8329 -0.3045
  153SAPE  C31717045   5.196   0.765   8.575 -0.5194  0.4121 -0.4319
  153SAPE  H17X17046   5.093   0.752   8.535 -0.6499  1.0180 -0.2979
  153SAPE  H17Y17047   5.213   0.871   8.603  4.0656 -0.4840  0.8802
  153SAPE  C31817048   5.231   0.677   8.700 -0.3385 -0.7157 -0.4791
  153SAPE  H18X17049   5.338   0.691   8.723  0.7939 -1.1376 -4.5687
  153SAPE  H18Y17050   5.218   0.567   8.685 -0.1140 -0.9898  1.1907
  153SAPE  H18Z17051   5.175   0.718   8.787  3.1975  2.6095  0.4719
  154SAPE     N17052   2.926   2.611   6.350 -0.4297 -0.0191  0.6651
  154SAPE   HN117053   2.994   2.663   6.408  1.5613 -1.4671 -0.2628
  154SAPE   HN217054   2.906   2.677   6.271  0.0013  3.2487  3.0726
  154SAPE   HN317055   2.830   2.604   6.389 -0.5325 -1.2333  0.2380
  154SAPE   C1217056   2.975   2.482   6.295 -0.7017 -0.4202 -0.8313
  154SAPE  H12A17057   2.897   2.436   6.231  0.4521 -1.5889 -1.4625
  154SAPE  H12B17058   2.997   2.414   6.380  0.8250 -2.1748 -2.5207
  154SAPE   C1117059   3.102   2.490   6.209  0.3857 -0.3510  0.2889
  154SAPE  H11A17060   3.074   2.548   6.119  0.6730  0.6369  0.8145
  154SAPE  H11B17061   3.113   2.380   6.201 -0.0747 -0.4502  0.9469
  154SAPE     P17062   3.357   2.531   6.227 -0.0650 -0.2317 -0.3268
  154SAPE   O1317063   3.358   2.427   6.124 -0.6281  0.0912 -0.1043
  154SAPE   O1417064   3.408   2.663   6.172 -0.2532 -0.3721  0.3165
  154SAPE   O1217065   3.203   2.559   6.274 -0.1276 -0.5653  0.3080
  154SAPE   O1117066   3.434   2.487   6.350  0.3419  0.3561 -0.1781
  154SAPE    C117067   3.371   2.386   6.443  0.2549 -0.2202  0.1872
  154SAPE    HA17068   3.288   2.328   6.396 -1.1234  0.3365  1.7975
  154SAPE    HB17069   3.448   2.312   6.471 -1.1480 -2.1910 -0.9293
  154SAPE    C217070   3.309   2.436   6.576 -0.2116  0.2325  0.3681
  154SAPE    HS17071   3.231   2.512   6.552  0.0018  0.8409  1.5261
  154SAPE   O2117072   3.415   2.488   6.655 -0.2324 -0.2252  1.2680
  154SAPE   C2117073   3.386   2.603   6.722 -0.5491  0.2908  0.1093
  154SAPE   O2217074   3.283   2.660   6.727  0.0942  0.1696 -0.7511
  154SAPE   C2217075   3.516   2.656   6.780 -0.5518 -0.4580  0.0742
  154SAPE   H2R17076   3.586   2.687   6.700  1.6683 -1.6453  1.4601
  154SAPE   H2S17077   3.484   2.748   6.832 -1.7275 -1.3046  0.9132
  154SAPE    C317078   3.234   2.328   6.653 -0.5870 -0.5440 -0.1568
  154SAPE    HX17079   3.306   2.246   6.673  1.3063  0.6610 -1.6282
  154SAPE    HY17080   3.154   2.268   6.605 -1.6889  1.9825 -1.7054
  154SAPE   O3117081   3.183   2.373   6.780 -0.6626 -0.4276  0.0257
  154SAPE   C3117082   3.055   2.427   6.792  0.0566 -0.5501 -0.1537
  154SAPE   O3217083   2.994   2.457   6.689 -0.0638  0.8691  0.8706
  154SAPE   C3217084   3.001   2.427   6.929  0.1576 -0.1204 -0.1724
  154SAPE   H2X17085   2.936   2.337   6.933  0.8771 -0.6008  0.9113
  154SAPE   H2Y17086   2.931   2.513   6.936  0.6876  0.5870 -2.6156
  154SAPE   C2317087   3.584   2.559   6.886 -0.2498 -0.5203  0.6060
  154SAPE   H3R17088   3.672   2.607   6.934  0.1572 -0.1233 -0.4992
  154SAPE   H3S17089   3.626   2.470   6.833  3.6431  1.1638  0.5149
  154SAPE   C2417090   3.494   2.517   6.996 -0.0477 -0.2944 -0.5256
  154SAPE   H4R17091   3.390   2.498   6.961 -1.3075 -1.8147  3.5068
  154SAPE   H4S17092   3.491   2.594   7.075  1.3786 -1.0962  0.3587
  154SAPE   C2517093   3.532   2.387   7.061 -0.5900  1.0781 -0.9862
  154SAPE   H5R17094   3.525   2.294   7.004  0.3275 -0.3400  1.0727
  154SAPE   C2617095   3.568   2.349   7.193 -0.8695 -0.1947 -0.3358
  154SAPE   H6R17096   3.579   2.242   7.215 -2.6373 -0.1775  0.8379
  154SAPE   C2717097   3.585   2.441   7.311 -0.0470 -0.1721  0.4411
  154SAPE   H7R17098   3.582   2.377   7.401 -1.6337 -1.7421 -0.6549
  154SAPE   H7S17099   3.500   2.512   7.313  0.2212  0.1375  0.8917
  154SAPE   C2817100   3.712   2.520   7.319  0.2243  0.3567  0.1728
  154SAPE   H8R17101   3.770   2.520   7.225  0.8757 -0.9741  0.5370
  154SAPE   C2917102   3.763   2.569   7.424 -0.2209  0.6900 -0.1397
  154SAPE   H9R17103   3.860   2.618   7.405 -0.8650  1.2644 -2.2189
  154SAPE  C21017104   3.695   2.572   7.564  0.0090  0.0386 -0.3233
  154SAPE  H10R17105   3.585   2.566   7.554  0.1008 -1.2042 -0.7337
  154SAPE  H10S17106   3.711   2.671   7.611 -0.4107 -0.5789  1.1564
  154SAPE  C21117107   3.739   2.472   7.666 -0.8638 -0.0771  0.5213
  154SAPE  H11R17108   3.698   2.370   7.662  0.9072 -0.8329  0.8104
  154SAPE  C21217109   3.837   2.489   7.756 -0.3525 -0.9998 -0.2400
  154SAPE  H12R17110   3.862   2.399   7.815  1.9904  0.7278  1.6002
  154SAPE  C21317111   3.924   2.604   7.788  0.3423  0.6651 -0.0131
  154SAPE  H13R17112   3.936   2.669   7.699  2.2647 -1.0883 -1.1224
  154SAPE  H13S17113   4.024   2.563   7.811  0.0418 -0.4218 -0.5702
  154SAPE  C21417114   3.876   2.683   7.903  0.6707 -0.0742  0.0828
  154SAPE  H14R17115   3.769   2.708   7.897  0.8589  0.3450 -2.1409
  154SAPE  C21517116   3.948   2.737   8.004  0.4603 -0.3572 -0.0932
  154SAPE  H15R17117   3.895   2.809   8.068 -0.2446  0.8368 -1.9306
  154SAPE  C21617118   4.098   2.741   8.017 -1.0879  0.0084 -0.1621
  154SAPE  H16R17119   4.136   2.845   8.013  0.1510 -0.4615 -2.5346
  154SAPE  H16S17120   4.158   2.686   7.941 -0.3120  0.7135 -0.0710
  154SAPE  C21717121   4.119   2.692   8.155  0.1419 -0.0706  0.5525
  154SAPE  H17R17122   4.082   2.587   8.156  2.8907 -1.1202  0.5707
  154SAPE  H17S17123   4.065   2.753   8.231  0.6578 -0.0024  0.8703
  154SAPE  C21817124   4.269   2.686   8.204 -0.2526  0.0698 -0.5981
  154SAPE  H18R17125   4.340   2.629   8.141  2.5577  2.4090  0.2371
  154SAPE  H18S17126   4.268   2.630   8.300  1.3680 -0.8444 -1.0824
  154SAPE  C21917127   4.332   2.824   8.231 -0.2747  0.2619 -0.0045
  154SAPE  H19R17128   4.268   2.873   8.308 -0.2537  0.5788 -0.1902
  154SAPE  H19S17129   4.327   2.889   8.142  3.0481  1.2364  0.4155
  154SAPE  C22017130   4.480   2.819   8.272  0.7457 -0.0236  0.0492
  154SAPE  H20R17131   4.509   2.742   8.346  0.0335 -0.4612 -0.1137
  154SAPE  H20S17132   4.500   2.915   8.323 -2.7943  0.9585 -0.1768
  154SAPE  H20T17133   4.539   2.812   8.178 -0.5757  0.9323 -0.8845
  154SAPE   C3317134   3.113   2.418   7.039  0.0334  0.0297  0.0729
  154SAPE   H3X17135   3.161   2.518   7.033 -0.7445  0.5662  1.9571
  154SAPE   H3Y17136   3.181   2.333   7.017  0.7852 -0.1414  2.6783
  154SAPE   C3417137   3.056   2.381   7.180 -0.7123  0.3241  0.5025
  154SAPE   H4X17138   2.997   2.287   7.170 -0.6864  0.3605 -0.0089
  154SAPE   H4Y17139   3.000   2.466   7.225 -0.2668  2.4292 -2.5698
  154SAPE   C3517140   3.173   2.369   7.273  0.0854  0.6616  0.5535
  154SAPE   H5X17141   3.224   2.467   7.266  0.8882  0.1612 -3.4896
  154SAPE   H5Y17142   3.245   2.291   7.239  2.3470  1.8534  2.3487
  154SAPE   C3617143   3.141   2.338   7.412 -0.1704 -0.5019  0.0043
  154SAPE   H6X17144   3.082   2.245   7.427  0.8470 -1.1237  0.2435
  154SAPE   H6Y17145   3.075   2.419   7.450 -0.6224 -1.4017  1.2492
  154SAPE   C3717146   3.265   2.326   7.502  0.1143 -0.0348 -0.3356
  154SAPE   H7X17147   3.340   2.401   7.469  1.1877 -1.0135 -0.2002
  154SAPE   H7Y17148   3.313   2.228   7.480  0.0554  0.2889 -2.0254
  154SAPE   C3817149   3.227   2.319   7.650  0.3376 -0.1908  0.1137
  154SAPE   H8X17150   3.167   2.229   7.677  0.7109 -0.4723  0.0163
  154SAPE   H8Y17151   3.164   2.411   7.658  1.0468  0.2524  0.6659
  154SAPE   C3917152   3.350   2.337   7.733  0.2428 -0.0268  0.8905
  154SAPE   H9X17153   3.392   2.435   7.703 -0.3782  0.2362  0.8756
  154SAPE   H9Y17154   3.422   2.254   7.720  0.9484  0.6441  0.4910
  154SAPE  C31017155   3.316   2.352   7.882  0.2785  0.1818 -0.1559
  154SAPE  H10X17156   3.248   2.275   7.924  0.9487 -0.2085  0.2333
  154SAPE  H10Y17157   3.265   2.450   7.893 -0.8631 -0.5056  0.9361
  154SAPE  C31117158   3.441   2.346   7.973 -0.1099 -0.8870  0.2153
  154SAPE  H11X17159   3.426   2.376   8.079 -0.0401 -1.1148  0.2895
  154SAPE  H11Y17160   3.514   2.416   7.927 -3.2385  3.1745  0.8092
  154SAPE  C31217161   3.502   2.204   7.973 -0.1697 -0.1400  0.1024
  154SAPE  H12X17162   3.542   2.187   7.871 -1.3673  1.0637 -0.5987
  154SAPE  H12Y17163   3.422   2.132   7.999 -0.2834 -0.6013 -1.4695
  154SAPE  C31317164   3.600   2.169   8.089  0.2602  0.3180 -0.2279
  154SAPE  H13X17165   3.599   2.060   8.109 -0.7868  0.2596 -0.5500
  154SAPE  H13Y17166   3.560   2.207   8.185 -0.0838 -1.4340  0.3426
  154SAPE  C31417167   3.744   2.223   8.071 -0.4758  0.4712  0.5439
  154SAPE  H14X17168   3.757   2.331   8.090 -0.7760  0.5559  0.2833
  154SAPE  H14Y17169   3.784   2.198   7.971 -0.9558 -2.3119  0.9555
  154SAPE  C31517170   3.837   2.144   8.170 -0.4916 -0.4359  0.4318
  154SAPE  H15X17171   3.937   2.143   8.122 -0.7328  2.1869 -0.2836
  154SAPE  H15Y17172   3.807   2.040   8.194 -0.3771 -0.4757  0.3991
  154SAPE  C31617173   3.868   2.206   8.314  0.1453 -0.7577  0.3371
  154SAPE  H16X17174   3.908   2.127   8.381  1.4096 -1.1425 -0.8377
  154SAPE  H16Y17175   3.774   2.251   8.353  0.5722  0.7887 -0.3495
  154SAPE  C31717176   3.970   2.324   8.303 -0.1474 -0.6143  0.4389
  154SAPE  H17X17177   3.920   2.421   8.279 -0.7927 -0.7512  1.1619
  154SAPE  H17Y17178   4.056   2.290   8.243 -0.0126 -2.7192  1.7210
  154SAPE  C31817179   4.052   2.338   8.432  0.2784 -0.1619  0.1745
  154SAPE  H18X17180   4.106   2.241   8.440  0.9068  0.1033 -0.7114
  154SAPE  H18Y17181   3.989   2.359   8.522  1.3297  2.8186  0.3430
  154SAPE  H18Z17182   4.134   2.412   8.429  0.2572 -0.1616 -2.1616
  155SAPE     N17183   4.280   2.737   5.859  0.2703  0.3440  0.0067
  155SAPE   HN117184   4.277   2.812   5.787  1.6046 -0.4914 -0.9585
  155SAPE   HN217185   4.379   2.722   5.888  0.4835 -1.4337 -1.4602
  155SAPE   HN317186   4.255   2.642   5.824  2.0723 -1.6131  3.5360
  155SAPE   C1217187   4.192   2.764   5.981 -0.5816  0.2424  0.0607
  155SAPE  H12A17188   4.180   2.661   6.022  2.2199  0.5783  1.9721
  155SAPE  H12B17189   4.094   2.808   5.953 -0.8169  1.4338  2.4710
  155SAPE   C1117190   4.253   2.848   6.090 -0.2520  0.3105  0.3131
  155SAPE  H11A17191   4.258   2.955   6.061 -0.5935  0.0916 -0.5717
  155SAPE  H11B17192   4.351   2.795   6.098 -0.4501 -0.3508 -1.2588
  155SAPE     P17193   4.245   2.845   6.361  0.2765 -0.2287  0.2488
  155SAPE   O1317194   4.133   2.816   6.456  0.4488 -0.5561 -0.5780
  155SAPE   O1417195   4.356   2.754   6.369  0.4594  0.2290  0.0681
  155SAPE   O1217196   4.183   2.833   6.216 -0.4764 -0.2283 -0.4768
  155SAPE   O1117197   4.300   2.996   6.363  0.6015 -0.4892 -0.2621
  155SAPE    C117198   4.199   3.094   6.404  0.6190 -0.0723  0.0439
  155SAPE    HA17199   4.191   3.178   6.332 -0.9964  0.0202  0.3050
  155SAPE    HB17200   4.095   3.057   6.404  0.6128 -0.0747  1.0123
  155SAPE    C217201   4.220   3.161   6.542  0.2095 -0.4097 -0.2439
  155SAPE    HS17202   4.318   3.212   6.551  0.1863  0.4666 -3.6201
  155SAPE   O2117203   4.209   3.058   6.636  0.2952 -0.2011 -0.4522
  155SAPE   C2117204   4.272   3.071   6.752  0.5667  0.2243  0.9987
  155SAPE   O2217205   4.343   3.163   6.784  0.1497  0.1930 -0.0282
  155SAPE   C2217206   4.224   2.952   6.836 -0.1593 -0.1610  0.4308
  155SAPE   H2R17207   4.173   2.879   6.771  1.7661 -1.1810 -0.0017
  155SAPE   H2S17208   4.310   2.892   6.872 -0.2625 -1.1113 -0.8470
  155SAPE    C317209   4.099   3.265   6.560 -0.1108 -0.0006  0.3231
  155SAPE    HX17210   4.001   3.246   6.510  0.5028 -1.2374 -0.4599
  155SAPE    HY17211   4.134   3.357   6.508 -0.8643  0.6441  0.9216
  155SAPE   O3117212   4.083   3.307   6.699  0.1052  0.5852  0.1323
  155SAPE   C3117213   3.972   3.267   6.760  0.1309 -0.1536  0.9604
  155SAPE   O3217214   3.898   3.183   6.718  0.0950 -0.1008  0.3914
  155SAPE   C3217215   3.951   3.322   6.897  0.2985 -0.3809 -0.5490
  155SAPE   H2X17216   3.919   3.243   6.968 -0.0770  2.3355  2.5287
  155SAPE   H2Y17217   3.857   3.380   6.897 -0.0385 -0.9188 -0.4419
  155SAPE   C2317218   4.146   2.984   6.957  1.1156 -0.2612 -0.3104
  155SAPE   H3R17219   4.130   2.889   7.011 -2.3022  0.7617  0.7878
  155SAPE   H3S17220   4.051   3.032   6.924  2.1336  2.8608  0.8623
  155SAPE   C2417221   4.208   3.084   7.053  0.3718 -0.3788 -0.1190
  155SAPE   H4R17222   4.140   3.111   7.137  1.3982 -0.0339  0.6166
  155SAPE   H4S17223   4.220   3.184   7.008  0.4988  0.7127  2.2109
  155SAPE   C2517224   4.344   3.040   7.099 -0.2468 -0.1493  0.8753
  155SAPE   H5R17225   4.422   3.041   7.021  0.0512 -0.0881  1.1735
  155SAPE   C2617226   4.385   2.990   7.214  0.1044 -0.1749 -0.2992
  155SAPE   H6R17227   4.491   2.960   7.221  0.5474  0.5818 -2.8509
  155SAPE   C2717228   4.308   2.966   7.347  0.0133 -0.2258 -0.1226
  155SAPE   H7R17229   4.317   2.864   7.390 -0.1026 -0.1755  0.0223
  155SAPE   H7S17230   4.202   2.976   7.315 -0.7347 -2.0695  1.5975
  155SAPE   C2817231   4.331   3.088   7.431  0.0153  0.8496 -0.5035
  155SAPE   H8R17232   4.287   3.181   7.391  2.5611  3.0588  1.4465
  155SAPE   C2917233   4.404   3.093   7.545  0.0697 -0.2390 -1.1885
  155SAPE   H9R17234   4.419   3.193   7.587 -0.1575 -1.5811  2.4411
  155SAPE  C21017235   4.472   2.977   7.606 -0.1628 -0.4362 -0.8703
  155SAPE  H10R17236   4.569   3.025   7.632 -0.8491 -0.1994  1.5427
  155SAPE  H10S17237   4.486   2.895   7.533 -0.6778 -2.7758  1.5164
  155SAPE  C21117238   4.406   2.906   7.721  0.8379  0.3725 -0.4823
  155SAPE  H11R17239   4.351   2.818   7.686  2.7267  0.0320 -2.8564
  155SAPE  C21217240   4.404   2.931   7.852 -0.1752 -0.1051 -0.5242
  155SAPE  H12R17241   4.353   2.858   7.917  2.0170 -1.3996 -0.1450
  155SAPE  C21317242   4.467   3.052   7.909  0.4829  0.1469 -0.6079
  155SAPE  H13R17243   4.559   3.075   7.851  1.7966 -2.4002  0.3210
  155SAPE  H13S17244   4.504   3.024   8.010  1.7494  1.4302 -0.6771
  155SAPE  C21417245   4.377   3.173   7.922  0.3139  0.5699  0.8309
  155SAPE  H14R17246   4.270   3.150   7.918  0.8596 -2.2870 -2.0520
  155SAPE  C21517247   4.413   3.302   7.926 -0.0583 -0.2272 -0.0601
  155SAPE  H15R17248   4.333   3.377   7.934  0.7742  0.9142 -1.8525
  155SAPE  C21617249   4.552   3.358   7.925 -0.1539  0.5598 -0.6458
  155SAPE  H16R17250   4.581   3.397   7.825 -0.0306  0.4816 -0.6408
  155SAPE  H16S17251   4.625   3.283   7.963 -0.6496  0.7478  0.7485
  155SAPE  C21717252   4.560   3.474   8.033 -0.3106 -0.0154 -0.7541
  155SAPE  H17R17253   4.478   3.544   8.009 -1.1724 -0.7315  0.0448
  155SAPE  H17S17254   4.653   3.531   8.013  0.3894 -0.7412  0.3033
  155SAPE  C21817255   4.541   3.429   8.175 -0.2746 -0.2722  0.5832
  155SAPE  H18R17256   4.619   3.360   8.212  1.2544 -0.5659 -2.8449
  155SAPE  H18S17257   4.451   3.364   8.181  1.0219 -2.1405  0.8013
  155SAPE  C21917258   4.532   3.542   8.275  0.3975 -0.5082 -0.0056
  155SAPE  H19R17259   4.424   3.561   8.295  0.9119  1.3746  1.3013
  155SAPE  H19S17260   4.571   3.643   8.246  0.0066 -0.2155  0.4779
  155SAPE  C22017261   4.601   3.509   8.406 -0.1405  0.9800  0.1270
  155SAPE  H20R17262   4.598   3.596   8.475  0.9180  0.3943  0.9501
  155SAPE  H20S17263   4.707   3.475   8.399 -0.1521  0.8762  0.4508
  155SAPE  H20T17264   4.544   3.425   8.451  1.0115  0.3404  0.4383
  155SAPE   C3317265   4.059   3.421   6.953  0.0773  0.1565 -0.4936
  155SAPE   H3X17266   4.087   3.506   6.888  0.9365  0.5486  0.3556
  155SAPE   H3Y17267   4.158   3.376   6.976  0.7355  0.7429 -2.0516
  155SAPE   C3417268   4.021   3.493   7.093 -0.3906  0.1186 -0.4543
  155SAPE   H4X17269   3.937   3.563   7.074 -1.2695  0.1276  2.8872
  155SAPE   H4Y17270   4.111   3.542   7.135 -0.3440 -2.4056  2.8168
  155SAPE   C3517271   3.974   3.394   7.206 -0.0230  0.1491  0.3540
  155SAPE   H5X17272   4.052   3.336   7.259  0.9576  2.4514  1.5571
  155SAPE   H5Y17273   3.886   3.330   7.182 -0.2031  0.3691  0.4282
  155SAPE   C3617274   3.936   3.477   7.329 -0.1037 -0.3906 -0.0146
  155SAPE   H6X17275   3.826   3.467   7.340  0.1326 -1.2918  1.8797
  155SAPE   H6Y17276   3.971   3.580   7.305 -0.0842 -0.9387 -2.7483
  155SAPE   C3717277   4.021   3.440   7.460  1.0881  0.1925 -0.1896
  155SAPE   H7X17278   4.123   3.480   7.445  1.2125 -0.3506 -0.8299
  155SAPE   H7Y17279   4.025   3.330   7.475  2.3375  0.3415  0.7124
  155SAPE   C3817280   3.954   3.511   7.588  0.3252 -0.3799 -0.6330
  155SAPE   H8X17281   3.854   3.467   7.612  0.7153 -0.6357  0.6031
  155SAPE   H8Y17282   3.948   3.620   7.565  1.3901 -0.2122 -0.1462
  155SAPE   C3917283   4.044   3.519   7.714 -0.8092  0.7478  0.0806
  155SAPE   H9X17284   4.141   3.568   7.693 -0.2336 -0.4000 -0.0069
  155SAPE   H9Y17285   4.062   3.411   7.735 -0.4559  1.3534  3.5597
  155SAPE  C31017286   3.972   3.583   7.838 -0.0591  0.3099  1.2201
  155SAPE  H10X17287   3.864   3.561   7.831 -0.3952  2.3239 -2.1195
  155SAPE  H10Y17288   3.984   3.692   7.818  0.3953 -0.0699 -0.7681
  155SAPE  C31117289   4.035   3.542   7.970  0.1785  0.0395  0.5337
  155SAPE  H11X17290   4.140   3.575   7.982  0.2697 -0.5423  1.3444
  155SAPE  H11Y17291   4.035   3.431   7.979  0.7596  0.0938  1.2213
  155SAPE  C31217292   3.965   3.587   8.098  0.2053  0.6002 -0.6003
  155SAPE  H12X17293   3.892   3.504   8.112  1.0346 -0.1947 -0.9296
  155SAPE  H12Y17294   3.912   3.684   8.079  0.3674  0.5182 -1.5046
  155SAPE  C31317295   4.054   3.599   8.219  0.1635  0.5089 -0.2399
  155SAPE  H13X17296   4.140   3.665   8.194 -0.1480  0.2547 -2.1847
  155SAPE  H13Y17297   4.102   3.500   8.234  0.0586  0.3815 -0.7057
  155SAPE  C31417298   3.980   3.636   8.341 -0.0081 -0.2792  0.7653
  155SAPE  H14X17299   3.904   3.562   8.373 -1.1440  1.1911  1.6102
  155SAPE  H14Y17300   3.924   3.731   8.322 -0.0390 -0.5952 -0.8951
  155SAPE  C31517301   4.052   3.658   8.466 -0.4307 -0.0751 -0.5250
  155SAPE  H15X17302   4.109   3.567   8.493 -0.1656  0.4470  0.7473
  155SAPE  H15Y17303   3.985   3.679   8.553  0.0434 -0.0023 -0.1734
  155SAPE  C31617304   4.152   3.766   8.464 -0.0852  0.0639  0.6451
  155SAPE  H16X17305   4.117   3.861   8.418 -0.7804 -0.4588  0.0885
  155SAPE  H16Y17306   4.234   3.733   8.397 -0.5884  0.9588 -0.4362
  155SAPE  C31717307   4.203   3.817   8.601 -0.0580  0.2210  0.1641
  155SAPE  H17X17308   4.225   3.732   8.669  1.2209 -0.0682 -0.5973
  155SAPE  H17Y17309   4.113   3.873   8.636  0.4506  0.7117  0.7088
  155SAPE  C31817310   4.327   3.912   8.586  0.1214 -0.0509 -0.0297
  155SAPE  H18X17311   4.305   3.996   8.516 -2.0555  0.8342  1.5678
  155SAPE  H18Y17312   4.411   3.854   8.544 -1.0361 -1.3726 -0.5802
  155SAPE  H18Z17313   4.356   3.956   8.684  0.0936 -0.7863  0.3141
  156SAPE     N17314   3.696   3.056   6.559 -0.1250  0.5196 -0.1762
  156SAPE   HN117315   3.630   3.054   6.640 -0.4515  0.5485 -0.4384
  156SAPE   HN217316   3.791   3.026   6.587 -0.1549 -1.5726 -2.1001
  156SAPE   HN317317   3.693   3.158   6.535  0.6772  1.1747  2.2316
  156SAPE   C1217318   3.648   2.986   6.434  0.4787 -0.2645  0.1602
  156SAPE  H12A17319   3.710   2.894   6.423  0.5354 -0.2146  0.0570
  156SAPE  H12B17320   3.656   3.059   6.350 -5.0553 -0.3968 -0.8468
  156SAPE   C1117321   3.497   2.959   6.449  0.1439  0.4325 -0.0251
  156SAPE  H11A17322   3.483   2.908   6.547 -0.4078 -1.4046 -1.0237
  156SAPE  H11B17323   3.474   2.887   6.369  0.1553 -0.4812  0.7724
  156SAPE     P17324   3.269   3.097   6.425 -0.5503  0.4554  0.1889
  156SAPE   O1317325   3.239   3.243   6.427 -0.1275 -0.7038 -0.5693
  156SAPE   O1417326   3.216   3.014   6.313 -0.3213  0.1526  1.3373
  156SAPE   O1217327   3.423   3.083   6.444 -0.3554  0.5245 -0.3177
  156SAPE   O1117328   3.209   3.047   6.555  0.2215  1.0089 -0.0562
  156SAPE    C117329   3.080   3.080   6.605 -0.4141  0.3862 -0.3184
  156SAPE    HA17330   3.028   3.150   6.536  1.2107  0.1766 -1.8127
  156SAPE    HB17331   3.013   2.991   6.599  1.1353 -0.8133 -0.4123
  156SAPE    C217332   3.079   3.138   6.757 -0.0415 -0.4261  0.0806
  156SAPE    HS17333   3.183   3.174   6.773  0.1600 -1.1299  0.4274
  156SAPE   O2117334   3.052   3.025   6.844 -0.7359  0.4079  0.1832
  156SAPE   C2117335   3.169   2.960   6.879 -1.0784 -0.8874 -0.1614
  156SAPE   O2217336   3.278   2.990   6.840 -0.0312 -0.6301 -0.1860
  156SAPE   C2217337   3.126   2.860   6.980 -0.0435  0.4728 -0.5663
  156SAPE   H2R17338   3.055   2.790   6.931 -0.3275 -0.6454  1.3338
  156SAPE   H2S17339   3.212   2.792   7.001  1.0931  2.0245 -0.0092
  156SAPE    C317340   2.972   3.244   6.782  0.1920 -0.3384  0.6106
  156SAPE    HX17341   2.884   3.199   6.732  0.8709 -0.9336 -0.0686
  156SAPE    HY17342   2.992   3.336   6.723  0.2913 -1.0828 -0.5563
  156SAPE   O3117343   2.947   3.270   6.923  0.2056 -0.5368 -0.5960
  156SAPE   C3117344   3.033   3.364   6.970 -0.1659  0.1064 -0.4984
  156SAPE   O3217345   3.108   3.432   6.907 -0.0457  0.0319  0.2174
  156SAPE   C3217346   3.004   3.390   7.124  0.1156  0.4925 -0.4886
  156SAPE   H2X17347   2.894   3.387   7.133 -0.0435  0.8396 -2.0897
  156SAPE   H2Y17348   3.031   3.497   7.137  0.1738  0.4594 -0.3326
  156SAPE   C2317349   3.073   2.918   7.122 -0.3106 -0.0375 -0.0285
  156SAPE   H3R17350   2.972   2.962   7.108  0.3322  1.2916 -0.6750
  156SAPE   H3S17351   3.145   2.992   7.161  1.1187 -1.5410  0.3234
  156SAPE   C2417352   3.064   2.812   7.237  0.4526  0.4626 -0.3813
  156SAPE   H4R17353   2.986   2.737   7.211  1.3883 -0.6436 -0.1138
  156SAPE   H4S17354   3.021   2.857   7.329  0.3216 -1.2512  0.4298
  156SAPE   C2517355   3.193   2.741   7.269 -0.2710  0.4775 -0.2442
  156SAPE   H5R17356   3.232   2.683   7.184 -0.1404  1.1740 -0.6709
  156SAPE   C2617357   3.273   2.742   7.379 -0.2035 -0.5834  0.2146
  156SAPE   H6R17358   3.370   2.689   7.384  1.8490  2.7859 -0.6276
  156SAPE   C2717359   3.237   2.815   7.514 -0.1465 -0.2485  0.3573
  156SAPE   H7R17360   3.156   2.888   7.491  0.3281  0.4016  0.7128
  156SAPE   H7S17361   3.324   2.874   7.551 -0.7883  1.2336 -0.3889
  156SAPE   C2817362   3.188   2.709   7.610 -0.0098 -0.6625  0.4523
  156SAPE   H8R17363   3.129   2.637   7.551  0.8786 -1.3074  0.3303
  156SAPE   C2917364   3.210   2.702   7.742  0.7030 -0.0984  0.2637
  156SAPE   H9R17365   3.150   2.621   7.786 -1.6666  0.5215 -1.6124
  156SAPE  C21017366   3.289   2.796   7.830 -0.2412 -0.2842  0.2064
  156SAPE  H10R17367   3.241   2.842   7.918  0.3143 -1.8597  1.3869
  156SAPE  H10S17368   3.322   2.883   7.770  0.8641  0.8170  2.3104
  156SAPE  C21117369   3.419   2.732   7.876  0.0800  0.1854 -0.3816
  156SAPE  H11R17370   3.456   2.640   7.830  2.5507  1.4390 -1.0926
  156SAPE  C21217371   3.489   2.769   7.981 -0.8166  0.0739 -0.7728
  156SAPE  H12R17372   3.584   2.714   7.990 -1.3206 -0.5398  1.5579
  156SAPE  C21317373   3.471   2.874   8.085 -0.6724 -0.0716 -0.2046
  156SAPE  H13R17374   3.472   2.831   8.188  0.3756  0.7959  0.1696
  156SAPE  H13S17375   3.381   2.933   8.059  0.5633  1.3453 -1.4854
  156SAPE  C21417376   3.575   2.986   8.067  0.3663 -0.3801  0.1569
  156SAPE  H14R17377   3.558   3.048   7.978 -0.0576  0.3588  0.7382
  156SAPE  C21517378   3.665   3.027   8.158  0.1359  0.0410 -0.3800
  156SAPE  H15R17379   3.725   3.115   8.132  0.6185 -0.1246  0.1351
  156SAPE  C21617380   3.682   2.977   8.296  0.2249  0.2680 -0.1890
  156SAPE  H16R17381   3.581   2.978   8.343 -0.4767  3.0711 -1.5513
  156SAPE  H16S17382   3.738   3.056   8.351 -0.6655 -0.1983  1.4556
  156SAPE  C21717383   3.753   2.843   8.321  0.1754  0.3452  0.1765
  156SAPE  H17R17384   3.853   2.847   8.273  0.2634 -1.8684  0.0908
  156SAPE  H17S17385   3.710   2.758   8.265  0.7200  0.2473 -0.0986
  156SAPE  C21817386   3.759   2.813   8.468  0.4976 -0.4703  0.0482
  156SAPE  H18R17387   3.653   2.790   8.494 -0.3993  0.0226 -2.8314
  156SAPE  H18S17388   3.799   2.906   8.513 -2.3695  1.4106 -1.0279
  156SAPE  C21917389   3.842   2.682   8.493  0.1593 -0.1373 -0.0213
  156SAPE  H19R17390   3.939   2.699   8.443  0.5122  2.5183  1.3553
  156SAPE  H19S17391   3.785   2.606   8.436 -0.5355 -0.3621  0.9353
  156SAPE  C22017392   3.860   2.655   8.647 -0.4050  0.1372  0.1370
  156SAPE  H20R17393   3.768   2.617   8.696  0.5358 -0.2084  1.7273
  156SAPE  H20S17394   3.892   2.749   8.697  1.6389 -0.3447 -0.1535
  156SAPE  H20T17395   3.950   2.591   8.659 -0.2835  0.4593  1.0455
  156SAPE   C3317396   3.089   3.298   7.212  0.6392  0.1755  0.7171
  156SAPE   H3X17397   3.191   3.291   7.170  0.7408  0.0230  0.9822
  156SAPE   H3Y17398   3.045   3.197   7.221 -2.0235  1.2325  0.6913
  156SAPE   C3417399   3.118   3.348   7.354  0.3752  0.6269  0.4192
  156SAPE   H4X17400   3.020   3.384   7.390 -0.5062 -2.2695  1.1584
  156SAPE   H4Y17401   3.188   3.434   7.364 -0.7043  1.5385  0.3429
  156SAPE   C3517402   3.175   3.237   7.447  0.0712  0.2195 -0.0602
  156SAPE   H5X17403   3.263   3.197   7.394  1.6336  2.1022  0.9834
  156SAPE   H5Y17404   3.096   3.160   7.459 -2.0977  2.1551 -1.0772
  156SAPE   C3617405   3.198   3.290   7.590 -0.5565  0.4105  0.2773
  156SAPE   H6X17406   3.099   3.318   7.631 -1.2774 -2.4893  0.7298
  156SAPE   H6Y17407   3.261   3.381   7.591 -0.7916  0.5812 -0.1959
  156SAPE   C3717408   3.271   3.189   7.678  0.4476 -0.3141 -0.1901
  156SAPE   H7X17409   3.365   3.157   7.630  0.4541 -1.9229  0.8455
  156SAPE   H7Y17410   3.203   3.102   7.686  0.3514 -0.2292 -0.0730
  156SAPE   C3817411   3.303   3.249   7.816 -0.0790  0.4896  0.8219
  156SAPE   H8X17412   3.352   3.346   7.795  0.9931  0.2321  2.0200
  156SAPE   H8Y17413   3.348   3.171   7.880 -3.2376 -2.2098  0.0610
  156SAPE   C3917414   3.173   3.294   7.890  0.1665 -0.2467 -0.2015
  156SAPE   H9X17415   3.096   3.214   7.885  2.1161 -2.1748 -1.1110
  156SAPE   H9Y17416   3.132   3.386   7.843 -2.0108  0.2016  2.3527
  156SAPE  C31017417   3.173   3.329   8.037  0.1160  0.5143 -0.0600
  156SAPE  H10X17418   3.072   3.343   8.081 -0.6808 -3.5581 -0.2114
  156SAPE  H10Y17419   3.241   3.415   8.055 -0.8994  1.2158  0.5494
  156SAPE  C31117420   3.216   3.203   8.115  0.4835 -0.5129 -0.1215
  156SAPE  H11X17421   3.322   3.183   8.091  0.8738  0.4481  0.7461
  156SAPE  H11Y17422   3.147   3.115   8.108  0.2002 -0.6035  2.6391
  156SAPE  C31217423   3.207   3.216   8.265  0.5497 -0.3290 -0.3689
  156SAPE  H12X17424   3.101   3.234   8.292  1.1496  2.5483  0.3691
  156SAPE  H12Y17425   3.268   3.304   8.295 -1.4759  0.5902  1.2606
  156SAPE  C31317426   3.248   3.082   8.333 -0.6477 -0.5044 -0.1548
  156SAPE  H13X17427   3.357   3.078   8.317 -0.6764  1.1391 -0.9935
  156SAPE  H13Y17428   3.205   2.992   8.283 -0.1135  0.2633 -2.0878
  156SAPE  C31417429   3.218   3.067   8.486 -0.0326  0.6164  0.3188
  156SAPE  H14X17430   3.109   3.060   8.505 -0.0502 -1.1923 -0.2645
  156SAPE  H14Y17431   3.270   3.158   8.523  2.3124 -0.6440  0.3068
  156SAPE  C31517432   3.279   2.938   8.535 -0.2481  0.2625 -0.0122
  156SAPE  H15X17433   3.382   2.931   8.493 -0.4303 -2.0245 -0.2392
  156SAPE  H15Y17434   3.218   2.853   8.496  0.5169  0.0539 -0.7882
  156SAPE  C31617435   3.298   2.940   8.693  0.2263 -0.6406  0.2451
  156SAPE  H16X17436   3.376   3.012   8.723  0.1365 -1.7255  3.4815
  156SAPE  H16Y17437   3.332   2.836   8.714  1.6130 -0.2090  0.2053
  156SAPE  C31717438   3.163   2.967   8.776  0.5774 -0.2558 -0.5088
  156SAPE  H17X17439   3.089   2.886   8.757 -0.1245  0.2315  0.0785
  156SAPE  H17Y17440   3.121   3.061   8.735  1.1706  1.1653  1.9908
  156SAPE  C31817441   3.179   2.987   8.926  0.3583 -0.4095 -0.2244
  156SAPE  H18X17442   3.086   2.982   8.986  0.3597 -1.0434 -0.2682
  156SAPE  H18Y17443   3.243   3.075   8.947 -0.2963 -0.2391  1.1634
  156SAPE  H18Z17444   3.234   2.904   8.975  0.6471 -1.1334 -1.7172
  157SAPE     N17445   5.238   4.018   6.337  0.5888  0.0258 -0.4859
  157SAPE   HN117446   5.163   4.090   6.346  0.7170  0.0427  0.5408
  157SAPE   HN217447   5.199   3.923   6.322 -0.4777  0.4948 -0.7959
  157SAPE   HN317448   5.284   4.030   6.430  1.0620 -0.1490 -0.6931
  157SAPE   C1217449   5.315   4.059   6.210 -0.4039  0.2153 -0.6280
  157SAPE  H12A17450   5.313   4.170   6.210  1.5063  0.3189  1.3690
  157SAPE  H12B17451   5.263   4.019   6.121  2.7386  0.2749 -2.6623
  157SAPE   C1117452   5.454   4.010   6.209 -0.1659 -0.1420  0.4975
  157SAPE  H11A17453   5.499   4.048   6.303 -1.1122 -1.1100  1.3673
  157SAPE  H11B17454   5.518   4.047   6.126  0.0106 -3.0692 -0.7947
  157SAPE     P17455   5.589   3.783   6.195 -0.0608  0.2372 -0.0194
  157SAPE   O1317456   5.628   3.775   6.053  0.6774 -0.1023 -0.3468
  157SAPE   O1417457   5.687   3.845   6.289 -0.6147 -0.8507  0.6015
  157SAPE   O1217458   5.453   3.859   6.217 -0.4734 -0.3674  0.1282
  157SAPE   O1117459   5.552   3.636   6.240  0.3034 -0.1843 -0.5706
  157SAPE    C117460   5.443   3.604   6.332  0.0063  0.1548 -0.4700
  157SAPE    HA17461   5.343   3.634   6.294 -1.2799 -2.4456  0.6202
  157SAPE    HB17462   5.440   3.493   6.338 -1.4021  0.2375  1.0562
  157SAPE    C217463   5.472   3.663   6.471 -1.0715 -0.1224  0.8561
  157SAPE    HS17464   5.482   3.773   6.456 -2.4127  0.4573  3.5795
  157SAPE   O2117465   5.595   3.603   6.516 -0.3368 -0.2882  0.1165
  157SAPE   C2117466   5.661   3.690   6.588  0.0087 -0.0210 -0.2059
  157SAPE   O2217467   5.630   3.800   6.625 -0.0118 -0.2957 -0.7286
  157SAPE   C2217468   5.797   3.629   6.625  0.3246 -0.7645 -0.7481
  157SAPE   H2R17469   5.789   3.518   6.615 -0.2285 -0.7321 -0.6640
  157SAPE   H2S17470   5.873   3.671   6.555  1.1942  2.4223  1.8502
  157SAPE    C317471   5.345   3.641   6.560  0.0163  0.2738  0.2129
  157SAPE    HX17472   5.335   3.530   6.553  0.4024  0.3120 -1.3386
  157SAPE    HY17473   5.255   3.685   6.512  0.1376 -0.9267 -1.1725
  157SAPE   O3117474   5.362   3.684   6.702 -0.5638 -0.9482 -0.8388
  157SAPE   C3117475   5.306   3.804   6.734 -0.3610 -0.4633 -0.2210
  157SAPE   O3217476   5.235   3.871   6.665  0.3072 -0.1036 -0.2720
  157SAPE   C3217477   5.366   3.835   6.868  1.0540 -0.3969 -0.2730
  157SAPE   H2X17478   5.477   3.825   6.870  1.2874  1.7825  0.4097
  157SAPE   H2Y17479   5.330   3.762   6.944  0.4601  1.3528  1.1877
  157SAPE   C2317480   5.826   3.657   6.776  0.4027  0.0867 -0.1130
  157SAPE   H3R17481   5.795   3.760   6.806  0.0646  0.2062 -0.8410
  157SAPE   H3S17482   5.936   3.645   6.788  0.7960 -0.0638 -3.1791
  157SAPE   C2417483   5.767   3.548   6.870 -0.1037 -0.4619 -0.4371
  157SAPE   H4R17484   5.824   3.547   6.966 -0.4279  2.3432 -0.1288
  157SAPE   H4S17485   5.782   3.452   6.816  3.6690 -0.5508  0.4937
  157SAPE   C2517486   5.623   3.568   6.903  0.6482  0.5736 -0.5746
  157SAPE   H5R17487   5.556   3.564   6.816 -1.0303  0.3777  0.6602
  157SAPE   C2617488   5.557   3.586   7.024 -0.9751  0.7190  0.0975
  157SAPE   H6R17489   5.454   3.622   7.032 -1.3828 -0.3066 -0.4121
  157SAPE   C2717490   5.628   3.576   7.160  0.2573  0.3327  0.5970
  157SAPE   H7R17491   5.669   3.678   7.174  4.5345 -1.1449  0.2591
  157SAPE   H7S17492   5.716   3.508   7.159  1.3699  1.7340  0.0715
  157SAPE   C2817493   5.518   3.528   7.252 -0.6231  0.0131 -0.2159
  157SAPE   H8R17494   5.432   3.472   7.212 -0.1799  1.1125 -3.0076
  157SAPE   C2917495   5.528   3.546   7.385 -0.2974  0.1795 -0.3915
  157SAPE   H9R17496   5.446   3.514   7.450  0.7775  0.1515  1.0070
  157SAPE  C21017497   5.636   3.608   7.475  0.3581  0.1030 -0.4682
  157SAPE  H10R17498   5.596   3.685   7.544 -1.5897 -0.4031 -0.9564
  157SAPE  H10S17499   5.713   3.656   7.411  0.9250  1.7222  1.3331
  157SAPE  C21117500   5.694   3.494   7.549  0.0798 -0.2757  0.1324
  157SAPE  H11R17501   5.728   3.409   7.488  0.7270  0.8009 -1.0739
  157SAPE  C21217502   5.710   3.487   7.682  0.4111  0.0522 -1.3469
  157SAPE  H12R17503   5.768   3.404   7.724  2.7106  2.7197  1.2527
  157SAPE  C21317504   5.670   3.591   7.786 -0.5940 -0.6457 -0.1423
  157SAPE  H13R17505   5.598   3.665   7.745 -0.7207 -0.1814  0.8772
  157SAPE  H13S17506   5.759   3.653   7.812 -2.3763  1.2415  1.8490
  157SAPE  C21417507   5.615   3.521   7.905  0.1848 -0.1418  0.7220
  157SAPE  H14R17508   5.513   3.484   7.884  0.6653 -0.7119 -0.6880
  157SAPE  C21517509   5.675   3.499   8.019 -0.3631 -0.2395  0.3596
  157SAPE  H15R17510   5.615   3.443   8.093 -4.1434  0.4929 -1.8624
  157SAPE  C21617511   5.815   3.538   8.067  0.0681  0.4339 -0.6970
  157SAPE  H16R17512   5.881   3.562   7.981  0.5246  2.2217  0.1114
  157SAPE  H16S17513   5.865   3.451   8.116  0.8734  0.9981 -0.4991
  157SAPE  C21717514   5.816   3.654   8.171  0.2879  0.8760  0.3794
  157SAPE  H17R17515   5.919   3.675   8.207 -0.0089  1.5179  0.8678
  157SAPE  H17S17516   5.768   3.611   8.261  0.6645  0.2957  0.3044
  157SAPE  C21817517   5.731   3.782   8.137 -0.0888  0.1945  0.3052
  157SAPE  H18R17518   5.623   3.756   8.147 -0.6305  2.7199  1.8372
  157SAPE  H18S17519   5.752   3.807   8.031  0.8787 -1.3410  0.1062
  157SAPE  C21917520   5.758   3.889   8.241 -0.0797  0.3614 -0.0778
  157SAPE  H19R17521   5.670   3.953   8.218 -0.2346 -0.0376 -0.6332
  157SAPE  H19S17522   5.847   3.953   8.223  0.8471 -1.1708 -1.1595
  157SAPE  C22017523   5.739   3.853   8.382  0.2169  0.2121 -0.2267
  157SAPE  H20R17524   5.813   3.774   8.408  0.9851  0.3409 -1.8905
  157SAPE  H20S17525   5.638   3.807   8.382  0.5263 -0.4959 -0.9660
  157SAPE  H20T17526   5.750   3.932   8.459  1.4636 -0.3048  0.1538
  157SAPE   C3317527   5.326   3.968   6.923  1.1913  0.7528  0.5113
  157SAPE   H3X17528   5.215   3.965   6.923  1.2075 -0.0209  1.2596
  157SAPE   H3Y17529   5.348   4.053   6.854 -0.9402  1.3374  0.4775
  157SAPE   C3417530   5.365   4.000   7.060  0.0268 -0.3810 -0.2803
  157SAPE   H4X17531   5.473   3.981   7.078  0.3295  0.4437 -1.1654
  157SAPE   H4Y17532   5.311   3.939   7.135 -0.4489  1.0419  0.5738
  157SAPE   C3517533   5.339   4.142   7.102  0.2404  0.1864  0.0419
  157SAPE   H5X17534   5.232   4.169   7.098  0.1167 -0.3730 -0.7268
  157SAPE   H5Y17535   5.393   4.215   7.038 -1.2293  1.6568  0.4237
  157SAPE   C3617536   5.377   4.172   7.254 -0.7168  0.0683 -0.0222
  157SAPE   H6X17537   5.487   4.166   7.274 -0.9054  1.6406  1.7245
  157SAPE   H6Y17538   5.328   4.103   7.325 -1.4123  0.2836 -0.2900
  157SAPE   C3717539   5.335   4.308   7.303 -0.9961  0.6051 -0.2868
  157SAPE   H7X17540   5.226   4.322   7.285 -0.9380  2.7777  0.7025
  157SAPE   H7Y17541   5.395   4.384   7.249 -0.0351  0.1908  0.1799
  157SAPE   C3817542   5.366   4.326   7.458 -0.5858  0.0905 -0.2677
  157SAPE   H8X17543   5.474   4.308   7.475 -0.3621  0.8558 -0.8295
  157SAPE   H8Y17544   5.320   4.246   7.520  2.4743 -1.3805  0.2980
  157SAPE   C3917545   5.340   4.468   7.503  0.1496 -0.1317 -0.1829
  157SAPE   H9X17546   5.237   4.497   7.472 -0.7540 -3.2259 -0.3529
  157SAPE   H9Y17547   5.416   4.534   7.455  1.2369 -2.2359 -1.5277
  157SAPE  C31017548   5.356   4.492   7.652 -0.3242  0.3343 -0.3490
  157SAPE  H10X17549   5.459   4.464   7.681 -0.5733 -0.9885 -0.6523
  157SAPE  H10Y17550   5.272   4.438   7.703 -0.5441  1.5402  0.6099
  157SAPE  C31117551   5.332   4.646   7.681 -0.0721  0.5374 -0.5626
  157SAPE  H11X17552   5.222   4.651   7.666 -0.0001  2.8848 -0.7179
  157SAPE  H11Y17553   5.389   4.710   7.610  3.4858 -0.5590  1.0394
  157SAPE  C31217554   5.371   4.691   7.822 -0.0536 -0.0900  0.0010
  157SAPE  H12X17555   5.464   4.636   7.851  2.0153  3.1481  0.0788
  157SAPE  H12Y17556   5.297   4.655   7.896 -0.6030 -1.5505 -1.2059
  157SAPE  C31317557   5.392   4.844   7.841  0.2525 -0.3989 -0.0200
  157SAPE  H13X17558   5.292   4.891   7.833  0.2707 -0.5287 -1.4038
  157SAPE  H13Y17559   5.462   4.887   7.766  0.3831  1.8886  1.3340
  157SAPE  C31417560   5.455   4.891   7.977  0.3664  0.1110 -0.9061
  157SAPE  H14X17561   5.449   5.002   7.988 -0.8589  0.0724 -1.0941
  157SAPE  H14Y17562   5.558   4.851   7.981  0.5176  0.5749  0.2874
  157SAPE  C31517563   5.374   4.845   8.109 -0.0157  0.0273  0.4883
  157SAPE  H15X17564   5.360   4.735   8.107 -4.0792  0.3919  0.8732
  157SAPE  H15Y17565   5.271   4.884   8.102 -0.6869 -1.8574 -1.0782
  157SAPE  C31617566   5.440   4.894   8.234 -0.1021 -0.1410 -0.0876
  157SAPE  H16X17567   5.450   5.002   8.210  0.1897  0.2679  1.7190
  157SAPE  H16Y17568   5.533   4.836   8.249 -0.2202  0.0165  1.4458
  157SAPE  C31717569   5.345   4.874   8.354  0.0861 -0.7222 -0.5845
  157SAPE  H17X17570   5.381   4.781   8.403 -0.1496 -0.7896 -0.5390
  157SAPE  H17Y17571   5.240   4.869   8.320  0.2467 -0.9748 -1.0543
  157SAPE  C31817572   5.379   4.986   8.454  0.3044 -0.3194 -0.5230
  157SAPE  H18X17573   5.312   4.985   8.543 -1.3416 -1.2113 -1.7108
  157SAPE  H18Y17574   5.360   5.085   8.408 -2.5177 -0.5381  0.0046
  157SAPE  H18Z17575   5.486   4.978   8.483  0.2476  0.4520 -0.0646
  158SAPE     N17576   2.604   3.581   6.153 -0.4826  0.0573  0.0687
  158SAPE   HN117577   2.642   3.603   6.058 -1.6078 -2.7005 -1.1446
  158SAPE   HN217578   2.501   3.573   6.162 -0.5149  1.1833  0.8233
  158SAPE   HN317579   2.624   3.661   6.216  1.3655 -0.4163  0.1479
  158SAPE   C1217580   2.668   3.460   6.214 -0.0414 -0.4870 -0.4510
  158SAPE  H12A17581   2.776   3.478   6.231 -0.5400  0.3780  2.2747
  158SAPE  H12B17582   2.652   3.386   6.133 -2.3942  1.2812 -1.7428
  158SAPE   C1117583   2.605   3.425   6.350  0.4965  0.3177  0.2714
  158SAPE  H11A17584   2.601   3.512   6.418  0.1020  1.6692 -1.4196
  158SAPE  H11B17585   2.659   3.342   6.401 -0.7116 -0.9336 -0.4019
  158SAPE     P17586   2.341   3.476   6.361 -0.1318  0.1577 -0.1637
  158SAPE   O1317587   2.334   3.585   6.259 -0.0022 -0.3174  0.1510
  158SAPE   O1417588   2.224   3.387   6.373  0.6872 -0.5950  0.1497
  158SAPE   O1217589   2.469   3.383   6.328  0.4960 -0.2739  0.0951
  158SAPE   O1117590   2.373   3.527   6.498 -0.3573 -0.0604 -0.1330
  158SAPE    C117591   2.408   3.440   6.609 -0.4782  0.1578 -0.5690
  158SAPE    HA17592   2.441   3.342   6.569  0.1149  0.1261 -0.0170
  158SAPE    HB17593   2.491   3.489   6.664  1.1316 -1.4780 -1.4491
  158SAPE    C217594   2.285   3.437   6.710 -0.1116  0.4396 -0.2235
  158SAPE    HS17595   2.193   3.418   6.651  0.0615  1.3653 -0.8018
  158SAPE   O2117596   2.274   3.571   6.763 -0.1977 -0.3424  0.8338
  158SAPE   C2117597   2.157   3.592   6.826  0.6981 -0.0876 -0.4029
  158SAPE   O2217598   2.064   3.513   6.837  0.0086 -0.0645  0.1835
  158SAPE   C2217599   2.157   3.739   6.890 -0.5963 -0.1582  0.0409
  158SAPE   H2R17600   2.247   3.792   6.852 -0.3970  0.3742  1.2143
  158SAPE   H2S17601   2.071   3.798   6.852 -1.0872 -1.6706 -1.3330
  158SAPE    C317602   2.300   3.323   6.814  0.3077 -0.1141  0.0708
  158SAPE    HX17603   2.287   3.231   6.754  0.1944 -0.6114  0.8388
  158SAPE    HY17604   2.211   3.330   6.881 -0.0543 -1.5521 -0.2167
  158SAPE   O3117605   2.416   3.326   6.898  0.6170  0.2885 -0.1710
  158SAPE   C3117606   2.508   3.236   6.867 -0.1729 -0.0218 -0.2083
  158SAPE   O3217607   2.509   3.161   6.771  0.1335  0.2140 -0.5608
  158SAPE   C3217608   2.613   3.222   6.978 -0.0538 -0.0338  0.1292
  158SAPE   H2X17609   2.651   3.326   6.988  2.6476 -0.9266 -0.1740
  158SAPE   H2Y17610   2.693   3.158   6.935  0.6366  0.8933 -0.0213
  158SAPE   C2317611   2.162   3.732   7.041 -0.0615 -0.6051  0.3572
  158SAPE   H3R17612   2.182   3.837   7.072  0.8495  0.2546 -2.7892
  158SAPE   H3S17613   2.247   3.672   7.081  1.5669  0.0681 -1.9003
  158SAPE   C2417614   2.019   3.703   7.095 -0.6746 -0.1249  0.5704
  158SAPE   H4R17615   2.012   3.593   7.095 -1.6884 -0.0903 -0.9761
  158SAPE   H4S17616   1.941   3.733   7.022  0.5884 -0.0466 -0.7980
  158SAPE   C2517617   1.986   3.759   7.237  0.3352  0.4970 -0.1837
  158SAPE   H5R17618   1.970   3.868   7.234  0.6495  0.6384  1.7616
  158SAPE   C2617619   1.983   3.691   7.353 -0.3477  0.1679  0.0115
  158SAPE   H6R17620   1.952   3.743   7.445 -1.4273 -0.0441 -0.2113
  158SAPE   C2717621   2.002   3.540   7.368  0.3554 -0.4839 -0.6772
  158SAPE   H7R17622   1.937   3.495   7.291 -1.2170 -0.9255  0.8267
  158SAPE   H7S17623   1.960   3.515   7.468  2.7868 -0.5737  0.4031
  158SAPE   C2817624   2.150   3.508   7.348  0.1227 -0.9711 -0.2430
  158SAPE   H8R17625   2.188   3.519   7.246  0.9647 -2.2571 -0.0880
  158SAPE   C2917626   2.235   3.472   7.443  0.4092 -0.9188 -0.0124
  158SAPE   H9R17627   2.342   3.458   7.424  0.4854  0.1057 -0.3769
  158SAPE  C21017628   2.195   3.452   7.586  0.4764 -0.0570  0.7795
  158SAPE  H10R17629   2.086   3.441   7.606  1.0365 -2.6990  2.9034
  158SAPE  H10S17630   2.228   3.547   7.632 -0.0416  0.3018  0.4263
  158SAPE  C21117631   2.265   3.329   7.648 -0.4156 -0.3012  0.8201
  158SAPE  H11R17632   2.275   3.244   7.579  1.0166  0.7273 -0.2999
  158SAPE  C21217633   2.311   3.319   7.779  0.2735 -0.3006  0.6726
  158SAPE  H12R17634   2.370   3.228   7.800  0.5206 -0.8118 -1.8167
  158SAPE  C21317635   2.293   3.422   7.891  0.1416  0.9600 -0.3684
  158SAPE  H13R17636   2.185   3.446   7.896  0.3294  1.8959 -0.5694
  158SAPE  H13S17637   2.348   3.515   7.863  0.9473  0.9464  1.0383
  158SAPE  C21417638   2.357   3.390   8.026 -0.3968  0.3163 -0.6953
  158SAPE  H14R17639   2.460   3.351   8.017 -0.8016 -0.4944 -2.1875
  158SAPE  C21517640   2.310   3.392   8.152 -0.4583  0.8708  0.0638
  158SAPE  H15R17641   2.383   3.370   8.231  1.1509  3.2054 -0.6571
  158SAPE  C21617642   2.175   3.434   8.203 -0.3373 -0.3550 -0.8436
  158SAPE  H16R17643   2.140   3.356   8.273  0.7396  0.7368  1.0093
  158SAPE  H16S17644   2.098   3.440   8.124 -1.0952  3.3258 -0.0092
  158SAPE  C21717645   2.156   3.569   8.283  0.2407  0.1443 -0.5251
  158SAPE  H17R17646   2.049   3.580   8.309  0.4501 -1.9077  1.5140
  158SAPE  H17S17647   2.176   3.653   8.213  0.8132 -0.6318 -1.3144
  158SAPE  C21817648   2.230   3.574   8.424  0.0087 -0.0748 -0.1131
  158SAPE  H18R17649   2.340   3.573   8.409 -0.0681 -1.5959 -0.7362
  158SAPE  H18S17650   2.206   3.491   8.494 -0.3530  1.0291  1.1180
  158SAPE  C21917651   2.194   3.707   8.491  0.2293  0.0155 -0.1920
  158SAPE  H19R17652   2.085   3.703   8.507  0.4062 -0.0312  1.1300
  158SAPE  H19S17653   2.232   3.796   8.437  1.3754 -0.2243  0.1726
  158SAPE  C22017654   2.238   3.700   8.637 -0.1305 -0.3254  0.2185
  158SAPE  H20R17655   2.226   3.600   8.683  0.5933 -0.9150 -0.8481
  158SAPE  H20S17656   2.176   3.773   8.693  0.6221  0.3611  0.1814
  158SAPE  H20T17657   2.343   3.734   8.650  0.5057 -2.0311 -0.2082
  158SAPE   C3317658   2.573   3.148   7.113  0.4348 -0.3188 -0.0406
  158SAPE   H3X17659   2.542   3.044   7.088  0.4199 -0.6892  1.4618
  158SAPE   H3Y17660   2.477   3.190   7.150 -0.6630 -1.9243 -0.9258
  158SAPE   C3417661   2.701   3.146   7.201 -0.4169  0.1561  0.3494
  158SAPE   H4X17662   2.744   3.249   7.195  1.7932 -0.6875  0.5755
  158SAPE   H4Y17663   2.775   3.080   7.151 -0.0415  0.9468 -0.1592
  158SAPE   C3517664   2.682   3.111   7.343 -0.2962 -0.4591  0.5858
  158SAPE   H5X17665   2.626   3.015   7.344 -0.5828 -0.2939  1.6206
  158SAPE   H5Y17666   2.620   3.179   7.405 -2.1424 -0.3148 -1.3169
  158SAPE   C3617667   2.811   3.099   7.438 -0.1244 -0.0699  0.4286
  158SAPE   H6X17668   2.843   3.203   7.461 -1.5468  0.3123  0.8024
  158SAPE   H6Y17669   2.901   3.050   7.395  0.3382 -0.3250  1.6474
  158SAPE   C3717670   2.761   3.034   7.568  0.2578 -0.1883 -0.3302
  158SAPE   H7X17671   2.676   3.095   7.604  0.8207  0.6775 -0.4092
  158SAPE   H7Y17672   2.721   2.933   7.548 -0.2600  0.4056 -2.7100
  158SAPE   C3817673   2.869   3.026   7.679 -0.1678 -0.3177  0.1689
  158SAPE   H8X17674   2.912   3.128   7.690 -0.1470 -0.4013  0.9128
  158SAPE   H8Y17675   2.948   2.949   7.662  0.9679  1.0050 -0.7755
  158SAPE   C3917676   2.799   3.008   7.817 -0.1931 -0.6697 -0.9859
  158SAPE   H9X17677   2.729   2.922   7.808 -0.2335 -0.7367 -0.1187
  158SAPE   H9Y17678   2.745   3.097   7.853 -1.6135 -1.2951 -1.4996
  158SAPE  C31017679   2.909   2.981   7.922  0.8031  0.3889  0.0117
  158SAPE  H10X17680   2.966   3.073   7.946 -1.0817  1.4753  0.5823
  158SAPE  H10Y17681   2.978   2.912   7.870 -0.4368  0.0058 -1.1909
  158SAPE  C31117682   2.854   2.908   8.045  0.0607 -0.8018  0.4485
  158SAPE  H11X17683   2.785   2.835   7.998 -2.0493  1.3548 -0.0355
  158SAPE  H11Y17684   2.797   2.993   8.090 -0.1629 -0.3184 -0.7111
  158SAPE  C31217685   2.962   2.840   8.129 -0.4219 -0.3141  0.6220
  158SAPE  H12X17686   2.921   2.831   8.232 -0.0403 -1.8097  0.6752
  158SAPE  H12Y17687   3.049   2.907   8.148 -0.0857 -0.2295 -1.0726
  158SAPE  C31317688   3.002   2.702   8.075 -0.2321  0.9965  0.5876
  158SAPE  H13X17689   3.058   2.696   7.979 -2.4100 -3.5090 -0.6581
  158SAPE  H13Y17690   2.906   2.652   8.051 -0.0378  0.0650  1.6709
  158SAPE  C31417691   3.067   2.623   8.184 -0.4822 -0.2068 -0.7077
  158SAPE  H14X17692   3.078   2.515   8.161 -0.3973 -0.3187 -0.1531
  158SAPE  H14Y17693   3.005   2.635   8.276  1.5425 -0.1267  0.7108
  158SAPE  C31517694   3.219   2.665   8.209  0.0005 -0.1242  0.0770
  158SAPE  H15X17695   3.227   2.776   8.209  0.8374 -0.1762 -0.2513
  158SAPE  H15Y17696   3.281   2.623   8.127 -0.6746 -0.3139 -0.3495
  158SAPE  C31617697   3.266   2.597   8.335 -0.0490  0.2338  0.4361
  158SAPE  H16X17698   3.255   2.487   8.328 -3.1270  0.5038 -0.0653
  158SAPE  H16Y17699   3.186   2.629   8.405 -0.8222  1.0509 -0.7907
  158SAPE  C31717700   3.405   2.628   8.369  1.1782  0.0295  0.5498
  158SAPE  H17X17701   3.415   2.736   8.394 -1.7481  0.7569 -0.9928
  158SAPE  H17Y17702   3.464   2.618   8.275 -1.9049  0.5842 -1.6220
  158SAPE  C31817703   3.463   2.533   8.466 -0.3374 -0.2684  0.3690
  158SAPE  H18X17704   3.406   2.538   8.561 -2.1170 -2.9515 -0.4493
  158SAPE  H18Y17705   3.568   2.563   8.488  0.2575 -1.9489 -0.0476
  158SAPE  H18Z17706   3.473   2.432   8.422 -3.1792  0.6517 -2.8355
  159SAPE     N17707   5.950   4.125   6.208  0.1449 -0.6708  0.4318
  159SAPE   HN117708   5.961   4.098   6.308  1.4606  0.0528  0.5077
  159SAPE   HN217709   5.983   4.058   6.135 -2.8217 -3.1171  1.0956
  159SAPE   HN317710   6.013   4.206   6.196  1.3682 -1.7225 -0.5758
  159SAPE   C1217711   5.807   4.160   6.172 -0.2214  0.3854  0.0124
  159SAPE  H12A17712   5.748   4.067   6.181  1.6648 -0.7420  1.4714
  159SAPE  H12B17713   5.817   4.167   6.061  0.7324  0.1361  0.0750
  159SAPE   C1117714   5.763   4.291   6.242 -0.1413 -0.2418  0.1665
  159SAPE  H11A17715   5.750   4.295   6.352 -2.4660  1.5672 -0.0762
  159SAPE  H11B17716   5.659   4.312   6.208 -0.3457  1.8022  1.8451
  159SAPE     P17717   5.821   4.537   6.182  0.0050  0.1569  0.0999
  159SAPE   O1317718   5.827   4.582   6.043 -0.5473 -0.2149  0.5949
  159SAPE   O1417719   5.694   4.553   6.252 -0.1943  0.3300 -0.8509
  159SAPE   O1217720   5.853   4.391   6.190  0.0068  0.3811  0.1091
  159SAPE   O1117721   5.942   4.607   6.267 -0.4142  0.4873  0.6339
  159SAPE    C117722   6.052   4.536   6.326  0.2263  0.0079 -0.1902
  159SAPE    HA17723   6.036   4.426   6.323 -0.6702  0.1625 -1.9229
  159SAPE    HB17724   6.145   4.572   6.277 -0.7983  2.0434 -0.7285
  159SAPE    C217725   6.055   4.576   6.479 -0.6319  0.2177  0.1385
  159SAPE    HS17726   6.158   4.555   6.514 -0.5960  1.9493  1.2355
  159SAPE   O2117727   5.964   4.493   6.554 -0.8556 -0.6808  0.0230
  159SAPE   C2117728   5.995   4.366   6.582 -1.1266 -0.0220 -0.0457
  159SAPE   O2217729   6.093   4.313   6.533 -0.3998  0.7325  0.5771
  159SAPE   C2217730   5.902   4.312   6.684  0.2165  0.3344  0.5532
  159SAPE   H2R17731   5.863   4.396   6.745 -0.8501 -1.1783  2.0427
  159SAPE   H2S17732   5.815   4.275   6.625  1.1605 -0.0310 -0.6618
  159SAPE    C317733   6.026   4.728   6.511 -0.0824  0.4372  0.3221
  159SAPE    HX17734   5.933   4.749   6.454  1.2758  0.8888 -1.8398
  159SAPE    HY17735   6.105   4.788   6.461  2.4348 -3.0845 -0.3042
  159SAPE   O3117736   6.015   4.756   6.652  0.6293  0.0903 -1.0958
  159SAPE   C3117737   6.115   4.723   6.739  0.3618  0.2097 -0.0249
  159SAPE   O3217738   6.231   4.708   6.703  0.3089 -0.4498 -0.2236
  159SAPE   C3217739   6.064   4.704   6.874  0.0582 -0.0881  0.1514
  159SAPE   H2X17740   5.957   4.674   6.873 -0.4455  1.5480 -2.4705
  159SAPE   H2Y17741   6.093   4.793   6.933  0.1646 -0.7009  1.0518
  159SAPE   C2317742   5.966   4.194   6.760 -0.4709 -0.5461  0.1125
  159SAPE   H3R17743   6.051   4.230   6.822  0.5609 -0.6068 -1.1997
  159SAPE   H3S17744   6.029   4.130   6.694 -0.2586 -2.7522  2.3178
  159SAPE   C2417745   5.866   4.099   6.819  0.5208  0.1063  0.2383
  159SAPE   H4R17746   5.918   4.011   6.863 -2.0606 -2.0257 -0.6649
  159SAPE   H4S17747   5.814   4.066   6.726  0.4091 -1.1088  0.7056
  159SAPE   C2517748   5.755   4.145   6.906  0.9566 -0.1771  0.2833
  159SAPE   H5R17749   5.665   4.177   6.851  1.9133  1.4747 -0.4312
  159SAPE   C2617750   5.757   4.149   7.043 -1.1424 -0.3227  0.1681
  159SAPE   H6R17751   5.664   4.172   7.096 -1.4397 -1.7741  0.2953
  159SAPE   C2717752   5.871   4.094   7.126 -0.2786 -0.4088 -0.6200
  159SAPE   H7R17753   5.866   4.125   7.233 -2.1895 -1.3860 -0.3780
  159SAPE   H7S17754   5.962   4.138   7.079 -0.6833 -0.1945 -1.1999
  159SAPE   C2817755   5.890   3.939   7.123 -0.1764 -1.3857 -0.1309
  159SAPE   H8R17756   5.879   3.892   7.024 -2.7941 -0.8591 -0.1781
  159SAPE   C2917757   5.910   3.871   7.237  0.5335 -0.8114 -0.0039
  159SAPE   H9R17758   5.920   3.762   7.229  0.3015 -0.8872  0.6617
  159SAPE  C21017759   5.909   3.932   7.375 -0.5564 -0.1978 -0.1690
  159SAPE  H10R17760   5.817   3.992   7.394  0.1199  1.5992 -2.1737
  159SAPE  H10S17761   5.999   3.997   7.380 -0.3167 -0.6123  1.6815
  159SAPE  C21117762   5.921   3.829   7.483 -0.0061  0.1859  0.6015
  159SAPE  H11R17763   5.895   3.727   7.452  0.0662 -0.0836  1.4000
  159SAPE  C21217764   5.945   3.849   7.613  0.4776  0.0542 -0.3214
  159SAPE  H12R17765   5.960   3.767   7.684 -0.5516 -1.2604 -1.5668
  159SAPE  C21317766   5.972   3.984   7.669 -0.2788 -0.4307  0.1685
  159SAPE  H13R17767   5.919   4.059   7.607 -0.6180 -2.5671 -2.3155
  159SAPE  H13S17768   6.080   4.009   7.659 -0.9808  2.8899 -0.1210
  159SAPE  C21417769   5.949   3.996   7.818  0.8193 -0.1973  0.0333
  159SAPE  H14R17770   5.934   3.899   7.867 -0.6286  0.4614  0.9531
  159SAPE  C21517771   5.922   4.108   7.892 -0.0832 -0.3022  0.1834
  159SAPE  H15R17772   5.907   4.102   8.001  0.1693 -1.9634  0.1537
  159SAPE  C21617773   5.918   4.251   7.832 -0.6296  1.0196  0.0654
  159SAPE  H16R17774   5.940   4.246   7.724 -0.4642 -1.9138  0.1400
  159SAPE  H16S17775   5.996   4.315   7.879  0.8998 -0.6523 -0.0522
  159SAPE  C21717776   5.781   4.316   7.844  0.3787 -0.0358  0.6973
  159SAPE  H17R17777   5.705   4.256   7.791  1.7339 -1.0349 -0.1967
  159SAPE  H17S17778   5.799   4.413   7.792  1.4795 -0.1628  0.8129
  159SAPE  C21817779   5.731   4.335   7.990  0.7472 -0.0650  0.3743
  159SAPE  H18R17780   5.818   4.347   8.057  0.4289 -1.0876  0.9864
  159SAPE  H18S17781   5.682   4.241   8.023  0.2618  0.2792  0.6509
  159SAPE  C21917782   5.643   4.460   8.001  0.3316 -0.5520  0.2935
  159SAPE  H19R17783   5.570   4.459   7.918  1.6366  0.9278 -0.9227
  159SAPE  H19S17784   5.705   4.551   7.986  0.5387 -0.5688  1.0119
  159SAPE  C22017785   5.584   4.466   8.138  0.2906 -0.3064 -0.2004
  159SAPE  H20R17786   5.548   4.369   8.178 -1.6339  1.7902  3.7052
  159SAPE  H20S17787   5.506   4.545   8.145  0.2634 -0.4757  1.6969
  159SAPE  H20T17788   5.663   4.490   8.212  0.0518  0.3308 -0.1412
  159SAPE   C3317789   6.139   4.600   6.955  0.4310  0.0603 -0.0873
  159SAPE   H3X17790   6.246   4.629   6.956  0.3282  0.4451  1.1001
  159SAPE   H3Y17791   6.125   4.507   6.895 -4.6723 -0.5470  1.5602
  159SAPE   C3417792   6.086   4.570   7.095  0.4507  0.6796  0.3301
  159SAPE   H4X17793   5.975   4.572   7.095  0.3093 -1.6257  2.2229
  159SAPE   H4Y17794   6.111   4.661   7.154  0.6574  1.3114 -0.7191
  159SAPE   C3517795   6.148   4.435   7.154  0.2959  0.6638  0.7270
  159SAPE   H5X17796   6.258   4.436   7.139  0.1690 -0.3989 -0.4297
  159SAPE   H5Y17797   6.107   4.351   7.093  0.0916 -0.0769  1.8634
  159SAPE   C3617798   6.106   4.418   7.297  0.8109  0.5392  0.7736
  159SAPE   H6X17799   5.997   4.399   7.306  0.2431  2.4880 -1.1181
  159SAPE   H6Y17800   6.121   4.516   7.348  0.2610 -1.2664  4.8593
  159SAPE   C3717801   6.194   4.315   7.372 -0.1843  0.4281 -0.1327
  159SAPE   H7X17802   6.303   4.324   7.349 -0.2581 -0.7107 -1.0308
  159SAPE   H7Y17803   6.149   4.219   7.337 -0.8383  0.7548 -0.1919
  159SAPE   C3817804   6.186   4.330   7.527 -0.2424  0.3300 -0.4535
  159SAPE   H8X17805   6.215   4.238   7.583 -0.7196  0.7826  0.5711
  159SAPE   H8Y17806   6.084   4.358   7.562 -0.2140  0.7860 -0.7250
  159SAPE   C3917807   6.282   4.432   7.592 -0.2813 -0.4593 -0.1914
  159SAPE   H9X17808   6.284   4.516   7.518 -0.9745  0.1908  0.5037
  159SAPE   H9Y17809   6.386   4.394   7.590 -1.0441 -2.6399 -1.0142
  159SAPE  C31017810   6.233   4.487   7.724  0.4248 -0.2515 -0.2444
  159SAPE  H10X17811   6.140   4.431   7.749  1.7858 -1.4232  2.6873
  159SAPE  H10Y17812   6.223   4.598   7.718 -0.9673  0.0187  3.7061
  159SAPE  C31117813   6.337   4.451   7.836 -0.2943  0.7959 -0.1185
  159SAPE  H11X17814   6.431   4.505   7.810 -0.0980  0.6596  0.2945
  159SAPE  H11Y17815   6.375   4.346   7.831  1.5102  1.3909  0.2614
  159SAPE  C31217816   6.273   4.479   7.972 -0.4040  0.2649  0.4613
  159SAPE  H12X17817   6.166   4.449   7.971 -1.4593  3.5795 -0.6480
  159SAPE  H12Y17818   6.274   4.586   8.004  2.9680  0.5017 -0.0871
  159SAPE  C31317819   6.335   4.387   8.077  0.2517  0.1416 -0.5358
  159SAPE  H13X17820   6.323   4.430   8.179 -0.0005  1.9214 -1.2948
  159SAPE  H13Y17821   6.441   4.357   8.056  0.0779 -0.1658 -0.9866
  159SAPE  C31417822   6.263   4.250   8.073  0.0787  0.5926  0.0060
  159SAPE  H14X17823   6.262   4.216   7.967 -0.4753  0.5649  0.0192
  159SAPE  H14Y17824   6.160   4.249   8.114  0.0220 -0.8958 -0.1213
  159SAPE  C31517825   6.335   4.145   8.160 -0.6079  0.5092  1.1753
  159SAPE  H15X17826   6.325   4.168   8.268 -1.0273 -0.1437  1.2848
  159SAPE  H15Y17827   6.445   4.151   8.143 -0.5196  2.2049  2.0925
  159SAPE  C31617828   6.275   4.018   8.118  0.0533  0.3215 -0.5476
  159SAPE  H16X17829   6.278   4.006   8.007  0.0128 -1.0355 -0.4098
  159SAPE  H16Y17830   6.168   4.019   8.148  0.0643  1.9416 -0.4770
  159SAPE  C31717831   6.346   3.897   8.172 -0.3991  0.0776  0.5464
  159SAPE  H17X17832   6.444   3.925   8.218 -0.3786 -0.9610  1.1577
  159SAPE  H17Y17833   6.363   3.824   8.090  2.4295  0.9126  0.2837
  159SAPE  C31817834   6.281   3.829   8.287 -0.1271 -0.6251  0.2062
  159SAPE  H18X17835   6.272   3.888   8.380  1.3779  1.4003 -0.8630
  159SAPE  H18Y17836   6.337   3.735   8.307  1.9565  0.6425  0.6367
  159SAPE  H18Z17837   6.176   3.806   8.258  0.3092 -3.1791  0.3692
  160SAPE     N17838   0.215   6.342   6.406  0.2246 -0.3857  0.2393
  160SAPE   HN117839   0.201   6.364   6.507  1.1661  0.0242  0.2900
  160SAPE   HN217840   0.266   6.253   6.420  2.3564  0.7927  0.4409
  160SAPE   HN317841   0.283   6.403   6.356 -0.9149  0.6912 -0.0603
  160SAPE   C1217842   0.091   6.337   6.331  0.2052 -0.3191 -0.4427
  160SAPE  H12A17843   0.126   6.318   6.227  0.1195 -1.8569 -0.2208
  160SAPE  H12B17844   0.047   6.437   6.350  1.1197 -0.2330  1.3511
  160SAPE   C1117845  -0.002   6.217   6.369  0.3235  0.7505 -0.4106
  160SAPE  H11A17846  -0.095   6.209   6.310  1.2453 -1.2380 -1.6796
  160SAPE  H11B17847  -0.030   6.250   6.472 -0.3996  5.1092 -1.8027
  160SAPE     P17848   0.027   5.946   6.412 -0.0605 -0.7299  0.3411
  160SAPE   O1317849  -0.108   5.923   6.369 -0.0856  0.0007 -0.1258
  160SAPE   O1417850   0.135   5.857   6.364  0.3835 -0.6464 -0.3279
  160SAPE   O1217851   0.063   6.091   6.370 -0.7834  0.2243  0.5941
  160SAPE   O1117852   0.035   5.964   6.579  0.2645  0.0486  0.5353
  160SAPE    C117853  -0.080   5.927   6.661 -0.7877  0.3102  0.3908
  160SAPE    HA17854  -0.081   6.001   6.745  1.2244  0.4770  0.3038
  160SAPE    HB17855  -0.178   5.944   6.610 -0.2519  1.5005 -0.2858
  160SAPE    C217856  -0.073   5.786   6.736 -1.3569  0.3673  0.1435
  160SAPE    HS17857  -0.165   5.794   6.798 -2.2066  2.7970 -1.3011
  160SAPE   O2117858   0.051   5.790   6.823 -0.6311  0.5153  0.3300
  160SAPE   C2117859   0.045   5.738   6.942 -0.3202  0.5329 -0.1032
  160SAPE   O2217860  -0.052   5.688   6.993  0.6101  0.4055  0.2708
  160SAPE   C2217861   0.178   5.759   7.008  0.2150  0.2524  0.0168
  160SAPE   H2R17862   0.254   5.724   6.935 -2.1199 -1.7103 -1.6319
  160SAPE   H2S17863   0.185   5.869   7.020 -2.8459  0.4028  1.1528
  160SAPE    C317864  -0.073   5.660   6.640  0.3383 -0.2504 -0.3963
  160SAPE    HX17865   0.031   5.648   6.601  1.0688  3.4216  0.0677
  160SAPE    HY17866  -0.141   5.690   6.558  0.6204 -1.9799 -1.3191
  160SAPE   O3117867  -0.123   5.541   6.709  0.8097  0.1608  0.3442
  160SAPE   C3117868  -0.028   5.454   6.749  0.4159 -0.5156 -0.2113
  160SAPE   O3217869   0.091   5.462   6.731 -0.1038  0.2822 -0.0753
  160SAPE   C3217870  -0.085   5.347   6.841 -0.0466 -0.0378  0.2172
  160SAPE   H2X17871  -0.145   5.276   6.780 -0.2389 -0.1604  0.5458
  160SAPE   H2Y17872  -0.162   5.391   6.909  0.7768  2.3076 -0.2740
  160SAPE   C2317873   0.201   5.696   7.152  0.6381 -0.7082  0.7899
  160SAPE   H3R17874   0.196   5.586   7.135  1.1201 -0.6866  0.4961
  160SAPE   H3S17875   0.129   5.733   7.228  1.2607  1.7468  0.2564
  160SAPE   C2417876   0.345   5.733   7.190 -0.2010  0.6442 -0.2027
  160SAPE   H4R17877   0.405   5.764   7.102  2.1827 -2.6137  0.0839
  160SAPE   H4S17878   0.397   5.644   7.232 -1.0705  0.2416  0.0451
  160SAPE   C2517879   0.350   5.846   7.288  0.1209  0.1733  0.0899
  160SAPE   H5R17880   0.375   5.949   7.259 -0.4811  0.1979 -0.3716
  160SAPE   C2617881   0.323   5.817   7.419 -0.4301 -0.0940  0.3719
  160SAPE   H6R17882   0.327   5.908   7.481 -2.5608 -0.0467  0.5329
  160SAPE   C2717883   0.281   5.694   7.500 -0.2809  0.0256 -0.3078
  160SAPE   H7R17884   0.365   5.683   7.572 -0.2745  0.8040 -0.1879
  160SAPE   H7S17885   0.289   5.603   7.436  0.6689 -1.3966  1.7255
  160SAPE   C2817886   0.152   5.715   7.564 -0.0266  0.5352 -0.3261
  160SAPE   H8R17887   0.070   5.702   7.492  0.2078  2.0006 -0.8896
  160SAPE   C2917888   0.124   5.756   7.689 -0.8506  0.2849 -0.4729
  160SAPE   H9R17889   0.017   5.766   7.710 -0.5512  0.3426  1.1868
  160SAPE  C21017890   0.216   5.785   7.806 -0.6478 -0.3663 -0.1321
  160SAPE  H10R17891   0.321   5.780   7.769 -0.4617  1.4119  0.0442
  160SAPE  H10S17892   0.210   5.713   7.890  1.9158 -1.3796 -0.7067
  160SAPE  C21117893   0.196   5.923   7.857 -0.1067 -0.1439  0.3221
  160SAPE  H11R17894   0.228   6.005   7.790 -1.2964 -1.0823 -1.4992
  160SAPE  C21217895   0.118   5.946   7.963  0.1401 -0.0513 -0.4697
  160SAPE  H12R17896   0.101   6.053   7.982  2.7409  0.4594 -0.6680
  160SAPE  C21317897   0.043   5.844   8.052 -0.3390 -0.5046 -0.4821
  160SAPE  H13R17898   0.037   5.748   7.996 -1.1897 -0.0506 -1.2005
  160SAPE  H13S17899  -0.062   5.872   8.073 -0.5052 -0.3709 -1.4319
  160SAPE  C21417900   0.122   5.816   8.177  0.3983 -0.5311 -0.7350
  160SAPE  H14R17901   0.231   5.831   8.175  0.2493  0.8821  0.3718
  160SAPE  C21517902   0.064   5.777   8.294 -0.2211  0.6773  0.9981
  160SAPE  H15R17903   0.124   5.771   8.386  0.6990  2.2392  0.5189
  160SAPE  C21617904  -0.083   5.746   8.309  0.3526 -0.6549 -0.3012
  160SAPE  H16R17905  -0.125   5.672   8.238  0.4509  1.6922 -2.9892
  160SAPE  H16S17906  -0.154   5.830   8.298  0.1864 -0.6635  0.6567
  160SAPE  C21717907  -0.115   5.682   8.455  0.6914 -0.2669  0.1222
  160SAPE  H17R17908  -0.225   5.675   8.471  0.8911 -0.6138  1.4970
  160SAPE  H17S17909  -0.074   5.742   8.538  0.9172  1.4912 -1.2088
  160SAPE  C21817910  -0.066   5.530   8.462 -0.4115 -0.3095  0.3014
  160SAPE  H18R17911   0.037   5.530   8.419 -0.6528 -4.1543 -0.6556
  160SAPE  H18S17912  -0.122   5.472   8.386  0.5029 -0.1303 -0.5299
  160SAPE  C21917913  -0.077   5.458   8.591 -0.3810  0.0575 -0.1379
  160SAPE  H19R17914  -0.009   5.502   8.668  3.5722 -0.7957 -2.8355
  160SAPE  H19S17915  -0.028   5.360   8.572  2.2267  1.0821  0.7507
  160SAPE  C22017916  -0.217   5.452   8.645  0.8278 -0.2444 -0.0255
  160SAPE  H20R17917  -0.260   5.553   8.661  1.5883  0.2246 -0.8868
  160SAPE  H20S17918  -0.219   5.396   8.742  2.8811  2.2452  1.5941
  160SAPE  H20T17919  -0.288   5.412   8.570 -1.5195  1.9611  0.8489
  160SAPE   C3317920   0.024   5.257   6.917 -0.2709 -0.4341  0.8017
  160SAPE   H3X17921   0.108   5.224   6.853  0.2938 -0.1940  1.4067
  160SAPE   H3Y17922  -0.019   5.157   6.942  0.7245 -1.0482  0.1232
  160SAPE   C3417923   0.073   5.329   7.038 -0.0735 -0.0112 -0.1901
  160SAPE   H4X17924  -0.006   5.356   7.111 -0.6549  1.8055 -1.4140
  160SAPE   H4Y17925   0.122   5.426   7.011 -0.9757 -0.1462 -2.5930
  160SAPE   C3517926   0.186   5.238   7.105 -0.3210  0.5233  0.9924
  160SAPE   H5X17927   0.278   5.229   7.043  0.4412 -2.8809  2.3952
  160SAPE   H5Y17928   0.154   5.134   7.128  1.0078  0.1256  1.1391
  160SAPE   C3617929   0.233   5.296   7.238  0.3645 -0.5417 -0.0159
  160SAPE   H6X17930   0.143   5.321   7.299 -0.0815  0.8671 -1.1765
  160SAPE   H6Y17931   0.282   5.393   7.214 -2.4262  1.1048  0.5181
  160SAPE   C3717932   0.346   5.212   7.299 -0.1242  0.0365 -0.5267
  160SAPE   H7X17933   0.423   5.183   7.225 -0.4928 -1.8466 -0.2233
  160SAPE   H7Y17934   0.306   5.112   7.327 -0.2930  0.8203  2.4169
  160SAPE   C3817935   0.411   5.280   7.417 -0.1787  0.1272 -1.3216
  160SAPE   H8X17936   0.453   5.380   7.390 -1.2032  0.8037 -0.4870
  160SAPE   H8Y17937   0.495   5.214   7.447 -0.5870  0.5534  0.9564
  160SAPE   C3917938   0.324   5.289   7.542 -0.1475  0.1525  0.0425
  160SAPE   H9X17939   0.268   5.199   7.573  1.3549 -0.5592  0.7933
  160SAPE   H9Y17940   0.249   5.369   7.523 -0.8910 -0.8108 -1.2201
  160SAPE  C31017941   0.414   5.332   7.658 -0.3672  0.3951  0.0992
  160SAPE  H10X17942   0.495   5.396   7.615  0.0118 -1.3070 -1.8769
  160SAPE  H10Y17943   0.461   5.236   7.691  1.8366  1.7180  1.0728
  160SAPE  C31117944   0.350   5.387   7.781 -0.1334  0.2681  1.3552
  160SAPE  H11X17945   0.293   5.300   7.821 -1.5381  0.2565 -0.5673
  160SAPE  H11Y17946   0.269   5.459   7.757  0.2403 -0.3175 -2.1259
  160SAPE  C31217947   0.446   5.428   7.885  0.6687 -0.1255 -0.0102
  160SAPE  H12X17948   0.492   5.523   7.851  0.5582 -0.5786 -1.4907
  160SAPE  H12Y17949   0.520   5.344   7.890 -0.5988 -1.2134  1.2671
  160SAPE  C31317950   0.385   5.456   8.018 -0.1267 -0.3764 -0.2377
  160SAPE  H13X17951   0.353   5.363   8.069 -2.2198 -0.0236 -0.8145
  160SAPE  H13Y17952   0.302   5.530   8.012  0.8694  1.1891  2.7665
  160SAPE  C31417953   0.493   5.505   8.115 -0.1891 -0.9185 -0.1541
  160SAPE  H14X17954   0.500   5.611   8.082 -1.9729  0.0476  2.2104
  160SAPE  H14Y17955   0.596   5.468   8.101 -0.5769 -1.3437 -2.2063
  160SAPE  C31517956   0.444   5.531   8.260  0.2112 -0.3098  0.7123
  160SAPE  H15X17957   0.425   5.431   8.304 -0.7417 -1.0007 -1.1916
  160SAPE  H15Y17958   0.348   5.587   8.262  0.4350  0.0738  1.1058
  160SAPE  C31617959   0.547   5.612   8.339  0.3780 -0.8028  0.3559
  160SAPE  H16X17960   0.572   5.707   8.288 -2.1230 -0.3799 -0.1709
  160SAPE  H16Y17961   0.638   5.548   8.342 -0.2007 -1.7992 -1.6971
  160SAPE  C31717962   0.495   5.639   8.477 -0.6139 -0.2906  0.1132
  160SAPE  H17X17963   0.406   5.704   8.467  0.1623  0.7007 -0.4782
  160SAPE  H17Y17964   0.574   5.692   8.534  0.1985 -1.1940 -0.1496
  160SAPE  C31817965   0.433   5.535   8.566 -0.6094  0.5626 -0.0362
  160SAPE  H18X17966   0.325   5.509   8.559 -0.6632  0.9224 -0.5275
  160SAPE  H18Y17967   0.458   5.554   8.673 -0.5887 -0.8618  0.2338
  160SAPE  H18Z17968   0.490   5.440   8.562  1.2261  1.5813  0.6992
  161SOPE     N17969   4.903   6.436  10.767  0.1830  0.2685  0.0187
  161SOPE   HN117970   4.887   6.388  10.676 -0.3694  0.5247 -0.0244
  161SOPE   HN217971   4.957   6.524  10.758  1.5114 -0.2966  1.8579
  161SOPE   HN317972   4.949   6.366  10.828  1.6456  1.4960  0.3785
  161SOPE   C1217973   4.773   6.472  10.833 -0.7443  0.0086  0.4767
  161SOPE  H12A17974   4.795   6.507  10.936 -0.2432 -0.6700  0.6089
  161SOPE  H12B17975   4.715   6.378  10.849  0.4565 -0.8435  0.0524
  161SOPE   C1117976   4.713   6.579  10.750  0.6485  0.3501  0.2775
  161SOPE  H11A17977   4.622   6.606  10.807  0.3151 -0.2188  0.0218
  161SOPE  H11B17978   4.680   6.520  10.661  1.8476 -1.2904  0.8812
  161SOPE     P17979   4.776   6.795  10.598  0.1260  0.1774  0.3440
  161SOPE   O1317980   4.905   6.840  10.546  0.2290 -0.9326 -0.5896
  161SOPE   O1417981   4.696   6.902  10.659  0.7044  0.1566 -0.1434
  161SOPE   O1217982   4.799   6.685  10.713  0.2344  0.2223  1.0215
  161SOPE   O1117983   4.705   6.715  10.486 -0.4833 -0.0410  0.6008
  161SOPE    C117984   4.770   6.615  10.402  0.2869 -0.0610  0.0110
  161SOPE    HA17985   4.701   6.528  10.394  1.2987 -1.2598  2.9827
  161SOPE    HB17986   4.865   6.575  10.443  0.0561  0.4523  1.0629
  161SOPE    C217987   4.808   6.687  10.275  0.2100  0.1913  0.2752
  161SOPE    HS17988   4.879   6.769  10.298  1.9374 -0.2023 -3.0689
  161SOPE   O2117989   4.692   6.745  10.217 -0.8216 -0.1193  0.0503
  161SOPE   C2117990   4.713   6.861  10.153  0.1486  0.2973 -0.0854
  161SOPE   O2217991   4.818   6.926  10.177 -0.0289 -0.9533 -0.1643
  161SOPE   C2217992   4.596   6.910  10.069  0.0366  0.3261 -0.2607
  161SOPE   H2R17993   4.553   6.992  10.129 -3.2274 -0.7538 -0.9059
  161SOPE   H2S17994   4.529   6.824  10.046 -1.5818  0.4335  3.4308
  161SOPE    C317995   4.874   6.600  10.165 -0.1389  0.6316 -0.3413
  161SOPE    HX17996   4.794   6.538  10.121 -0.3111  1.2403 -0.9163
  161SOPE    HY17997   4.937   6.519  10.207 -1.1055  0.1081  0.1061
  161SOPE   O3117998   4.936   6.671  10.061 -0.0217  0.6549  0.0260
  161SOPE   C3117999   5.070   6.677  10.069  1.0754 -0.0981  0.5022
  161SOPE   O3218000   5.139   6.634  10.158  0.2012 -0.5968  0.5159
  161SOPE   C3218001   5.133   6.750   9.947  0.7580 -0.2850  0.0482
  161SOPE   H2X18002   5.182   6.846   9.972  1.7883 -0.3844 -1.4523
  161SOPE   H2Y18003   5.056   6.782   9.873  1.2104  0.2708 -0.1915
  161SOPE   C2318004   4.637   6.975   9.929  0.4675  0.1572 -0.1317
  161SOPE   H3R18005   4.704   7.062   9.944 -0.5055  1.1355 -1.2654
  161SOPE   H3S18006   4.549   7.029   9.888  0.4236 -0.6582 -1.1478
  161SOPE   C2418007   4.704   6.871   9.833  0.1767  0.2452  0.5760
  161SOPE   H4R18008   4.784   6.828   9.897 -0.0911 -1.5302 -0.2133
  161SOPE   H4S18009   4.631   6.793   9.803  1.3327  0.0529 -2.0365
  161SOPE   C2518010   4.752   6.919   9.694  0.7663 -0.1166  0.2372
  161SOPE   H5R18011   4.820   7.007   9.704  2.5802 -1.2717 -1.2411
  161SOPE   H5S18012   4.819   6.843   9.649 -0.4961 -1.3153  0.3371
  161SOPE   C2618013   4.626   6.956   9.610 -1.1769  0.3552  0.1150
  161SOPE   H6R18014   4.580   6.855   9.601 -4.2551  1.7141 -0.6423
  161SOPE   H6S18015   4.558   7.036   9.647  0.2782  1.7767 -0.1488
  161SOPE   C2718016   4.663   7.006   9.466 -0.3075  0.0736 -1.0219
  161SOPE   H7R18017   4.710   7.107   9.466  1.9149 -0.9030 -0.2215
  161SOPE   H7S18018   4.751   6.946   9.433 -0.7216 -1.8225  1.1537
  161SOPE   C2818019   4.543   6.980   9.369 -0.4133  0.3003 -0.9771
  161SOPE   H8R18020   4.521   6.871   9.370 -0.1216  0.2344 -1.4004
  161SOPE   H8S18021   4.456   7.038   9.404 -0.3888  0.5438 -1.3144
  161SOPE   C2918022   4.586   7.043   9.242 -0.5294  0.0371  0.2101
  161SOPE   H9118023   4.579   7.152   9.238 -2.8184 -0.0158  1.1148
  161SOPE  C21018024   4.620   6.977   9.129 -0.1495 -0.4688  0.1362
  161SOPE  H10118025   4.668   7.029   9.045  0.9707  0.5295  1.3506
  161SOPE  C21118026   4.627   6.828   9.111 -0.0524  0.0528  0.1464
  161SOPE  H11R18027   4.617   6.768   9.203 -0.8004  0.1296  0.1258
  161SOPE  H11S18028   4.727   6.803   9.070 -0.0419  0.5876 -0.1633
  161SOPE  C21218029   4.522   6.772   9.011  0.6105 -0.1576 -0.3656
  161SOPE  H12R18030   4.422   6.776   9.060 -0.4386 -0.8459 -2.3626
  161SOPE  H12S18031   4.552   6.666   8.999 -0.2394 -0.3652 -0.7547
  161SOPE  C21318032   4.512   6.854   8.879  0.6621 -0.4937 -0.4535
  161SOPE  H13R18033   4.615   6.853   8.837  0.1757 -1.0557 -1.6688
  161SOPE  H13S18034   4.489   6.963   8.882  0.1071 -0.6133  1.8024
  161SOPE  C21418035   4.420   6.790   8.773 -0.2320  0.6895 -0.0064
  161SOPE  H14R18036   4.355   6.709   8.813  2.0414 -1.2583 -0.0017
  161SOPE  H14S18037   4.485   6.734   8.703 -0.0081 -1.5148  1.8192
  161SOPE  C21518038   4.336   6.898   8.695  0.5398  1.1186  0.6579
  161SOPE  H15R18039   4.281   6.951   8.777 -0.5660 -0.8211  1.2267
  161SOPE  H15S18040   4.254   6.843   8.644  0.9498  0.0648  1.1114
  161SOPE  C21618041   4.411   6.983   8.603 -0.0534 -0.5780  0.6742
  161SOPE  H16R18042   4.487   6.919   8.552  0.9177 -0.4051  1.8564
  161SOPE  H16S18043   4.464   7.065   8.655 -0.2528  0.7046 -1.0392
  161SOPE  C21718044   4.334   7.058   8.491  0.4942 -0.1723  0.2246
  161SOPE  H17R18045   4.234   7.089   8.527 -0.0385 -0.7830 -0.6821
  161SOPE  H17S18046   4.321   7.007   8.393 -0.3145  0.4202  0.0158
  161SOPE  C21818047   4.409   7.190   8.451 -0.5095  0.1615 -0.5810
  161SOPE  H18R18048   4.500   7.181   8.389  1.0352  1.7967  1.2865
  161SOPE  H18S18049   4.440   7.245   8.543 -0.8849 -3.1713  1.7223
  161SOPE  H18T18050   4.340   7.247   8.385  0.6793 -0.1378 -2.1365
  161SOPE   C3318051   5.234   6.657   9.880  0.0403  0.0896  0.0752
  161SOPE   H3X18052   5.193   6.555   9.862 -0.7820  0.5206 -0.5959
  161SOPE   H3Y18053   5.313   6.630   9.953  0.0574  0.9594  0.3835
  161SOPE   C3418054   5.283   6.722   9.745  0.1599 -0.3005  0.3874
  161SOPE   H4X18055   5.354   6.802   9.772 -1.5131  1.1744  0.5829
  161SOPE   H4Y18056   5.205   6.774   9.686  0.2571 -0.4714  0.1055
  161SOPE   C3518057   5.349   6.613   9.658  0.1054  0.3578  0.3371
  161SOPE   H5X18058   5.286   6.522   9.652 -1.8780  1.7615 -2.3589
  161SOPE   H5Y18059   5.439   6.584   9.716 -0.6005 -0.0851  1.2260
  161SOPE   C3618060   5.387   6.643   9.516 -0.2411 -0.0844  0.0267
  161SOPE   H6X18061   5.467   6.721   9.516 -1.3469  1.1010  1.0967
  161SOPE   H6Y18062   5.299   6.687   9.464 -1.0324 -0.0118  1.3970
  161SOPE   C3718063   5.441   6.521   9.438 -0.1489  0.2374  0.0746
  161SOPE   H7X18064   5.358   6.455   9.404  0.4756 -0.6124  0.1714
  161SOPE   H7Y18065   5.508   6.469   9.510  0.6321  2.6164  1.1486
  161SOPE   C3818066   5.529   6.557   9.314  0.4455  0.2975 -0.1057
  161SOPE   H8X18067   5.586   6.465   9.289  0.7327  0.3979  0.1700
  161SOPE   H8Y18068   5.599   6.632   9.357  1.2576 -0.0606 -0.7618
  161SOPE   C3918069   5.462   6.624   9.191 -0.0192 -0.8906 -0.2507
  161SOPE   H9X18070   5.411   6.718   9.220  0.5718 -0.4650 -0.5907
  161SOPE   H9Y18071   5.384   6.557   9.147 -1.1975  0.3144 -0.0679
  161SOPE  C31018072   5.560   6.657   9.072  0.2192 -0.4608 -0.0713
  161SOPE  H10X18073   5.639   6.579   9.067  1.4189  0.6404  0.7853
  161SOPE  H10Y18074   5.602   6.758   9.091 -0.9742  0.8943 -3.7994
  161SOPE  C31118075   5.494   6.665   8.931 -0.3746  0.2707 -0.0681
  161SOPE  H11X18076   5.575   6.702   8.865  1.1985 -0.1643  1.5390
  161SOPE  H11Y18077   5.416   6.744   8.927 -0.2561  0.6702  3.1848
  161SOPE  C31218078   5.438   6.536   8.869 -0.1459 -0.4570 -0.1364
  161SOPE  H12X18079   5.338   6.531   8.918 -0.7871  0.6270 -1.2725
  161SOPE  H12Y18080   5.503   6.457   8.912 -0.2524  0.9175  2.8406
  161SOPE  C31318081   5.426   6.538   8.717 -0.7655  0.2471 -0.1352
  161SOPE  H13X18082   5.417   6.437   8.672  0.5098  0.9969 -2.2119
  161SOPE  H13Y18083   5.520   6.586   8.683  0.1077  0.2011  2.0246
  161SOPE  C31418084   5.307   6.618   8.667  0.4881 -0.4259 -0.4331
  161SOPE  H14X18085   5.281   6.700   8.737  1.0275 -0.3057 -0.3651
  161SOPE  H14Y18086   5.220   6.551   8.682 -0.0981 -0.1614 -2.3700
  161SOPE  C31518087   5.309   6.676   8.520 -0.0898  0.5699 -0.0802
  161SOPE  H15X18088   5.300   6.583   8.461  0.8130 -0.2243  0.9907
  161SOPE  H15Y18089   5.410   6.717   8.499  2.0389 -2.9207  2.3323
  161SOPE  C31618090   5.196   6.778   8.497 -0.2904 -0.0760  0.5426
  161SOPE  H16X18091   5.192   6.850   8.582 -0.4989 -0.2694  0.7010
  161SOPE  H16Y18092   5.102   6.719   8.504 -1.0676  1.2230  1.3922
  161SOPE  C31718093   5.198   6.843   8.359 -0.1362 -0.7996 -0.6267
  161SOPE  H17X18094   5.097   6.890   8.357 -0.3259 -1.1227  0.6364
  161SOPE  H17Y18095   5.206   6.761   8.284  0.1094 -0.6326 -0.7850
  161SOPE  C31818096   5.322   6.937   8.332 -0.2110 -0.0873  0.2352
  161SOPE  H18X18097   5.318   7.020   8.405 -0.3366  0.4462 -0.3798
  161SOPE  H18Y18098   5.316   6.982   8.231  0.7566  1.1232  0.7012
  161SOPE  H18Z18099   5.417   6.881   8.346 -0.3207 -0.8880 -1.8134
  162SOPE     N18100   3.223   5.702  10.760  0.0037 -0.4879 -0.4139
  162SOPE   HN118101   3.185   5.692  10.664  2.2057  0.2823 -1.4517
  162SOPE   HN218102   3.294   5.627  10.771 -1.0097 -1.7240 -1.8896
  162SOPE   HN318103   3.157   5.689  10.839 -1.4875  0.7701 -1.3922
  162SOPE   C1218104   3.289   5.830  10.795  0.0974  0.1415 -0.2181
  162SOPE  H12A18105   3.335   5.819  10.896  3.1784  2.5805 -1.1611
  162SOPE  H12B18106   3.213   5.911  10.794 -0.8098 -0.6949  0.0589
  162SOPE   C1118107   3.413   5.850  10.701 -0.0576 -0.0773  0.3421
  162SOPE  H11A18108   3.457   5.952  10.698 -0.5234  0.1620  1.2547
  162SOPE  H11B18109   3.358   5.834  10.605 -0.9061 -0.2969  0.8526
  162SOPE     P18110   3.628   5.771  10.820 -0.1964 -0.4725  0.8153
  162SOPE   O1318111   3.678   5.645  10.874  0.3913  0.3929 -0.0826
  162SOPE   O1418112   3.592   5.873  10.922  0.0101  0.0148 -0.0499
  162SOPE   O1218113   3.510   5.748  10.731  0.1317 -0.0668  0.5519
  162SOPE   O1118114   3.742   5.840  10.725  0.7647  0.0036  0.6371
  162SOPE    C118115   3.759   5.809  10.585 -0.2578 -0.2187 -0.3374
  162SOPE    HA18116   3.742   5.702  10.562  0.4045 -0.5834  0.7925
  162SOPE    HB18117   3.869   5.811  10.568  0.0834 -0.6010  1.5783
  162SOPE    C218118   3.698   5.910  10.489  0.3162  0.5620 -0.1507
  162SOPE    HS18119   3.591   5.884  10.471 -1.1668  4.9142  1.2355
  162SOPE   O2118120   3.775   5.894  10.371  0.0657 -0.7707  0.3376
  162SOPE   C2118121   3.707   5.911  10.262  0.3253 -0.0320  0.3389
  162SOPE   O2218122   3.591   5.937  10.251  0.2477 -0.4015  0.4547
  162SOPE   C2218123   3.806   5.878  10.147  0.4251 -0.6402 -0.0135
  162SOPE   H2R18124   3.912   5.894  10.176 -0.1770  1.1950  1.4077
  162SOPE   H2S18125   3.772   5.936  10.058 -0.6470 -0.2431  0.6301
  162SOPE    C318126   3.716   6.048  10.547 -0.1614  0.1591 -0.2924
  162SOPE    HX18127   3.820   6.066  10.582  0.2067  1.1164 -1.7846
  162SOPE    HY18128   3.641   6.070  10.626 -0.5074  1.7988 -1.0401
  162SOPE   O3118129   3.696   6.154  10.449 -0.2253  0.2675 -0.1600
  162SOPE   C3118130   3.575   6.201  10.423  0.1995 -0.4149  0.9151
  162SOPE   O3218131   3.472   6.159  10.472 -0.1043  0.1639 -0.0234
  162SOPE   C3218132   3.594   6.299  10.307 -0.4955  0.0216  0.2416
  162SOPE   H2X18133   3.688   6.357  10.325 -0.9523  0.7710  0.2432
  162SOPE   H2Y18134   3.514   6.376  10.305 -1.7322 -1.0194  3.3393
  162SOPE   C2318135   3.790   5.735  10.109  0.0943  0.1513 -0.5566
  162SOPE   H3R18136   3.683   5.713  10.089 -0.0167  0.1026  0.0679
  162SOPE   H3S18137   3.832   5.672  10.190 -0.7349  2.3316  1.6899
  162SOPE   C2418138   3.875   5.701   9.988  0.4975  0.3429  0.3252
  162SOPE   H4R18139   3.979   5.738   9.999  0.9288 -0.8219  0.3392
  162SOPE   H4S18140   3.889   5.592   9.968  1.3899  0.5524 -0.2640
  162SOPE   C2518141   3.814   5.756   9.856 -0.2347  0.2112  0.3329
  162SOPE   H5R18142   3.757   5.848   9.879  0.1947  0.0112  2.4181
  162SOPE   H5S18143   3.901   5.787   9.793  0.3395 -0.1593  0.9253
  162SOPE   C2618144   3.728   5.655   9.787  0.8932  0.0012  0.3332
  162SOPE   H6R18145   3.765   5.550   9.794  1.7368  0.3554  1.6458
  162SOPE   H6S18146   3.628   5.645   9.833  1.1221 -0.7214  0.6884
  162SOPE   C2718147   3.719   5.697   9.631  0.0062 -0.0145  0.3048
  162SOPE   H7R18148   3.653   5.786   9.628 -2.7803 -1.9585  0.0059
  162SOPE   H7S18149   3.812   5.721   9.576 -0.8763 -1.5289 -1.9724
  162SOPE   C2818150   3.641   5.587   9.558 -0.5075  0.1514  0.5734
  162SOPE   H8R18151   3.560   5.554   9.627 -0.4882 -2.4580 -0.5243
  162SOPE   H8S18152   3.590   5.630   9.469 -4.1684 -1.8076  1.5085
  162SOPE   C2918153   3.735   5.473   9.527  0.3096 -0.4865  0.3893
  162SOPE   H9118154   3.800   5.439   9.609 -1.9428 -2.8451  1.3394
  162SOPE  C21018155   3.753   5.419   9.403 -0.3101 -0.3292 -0.5971
  162SOPE  H10118156   3.819   5.331   9.398 -0.2928 -0.3885  0.4789
  162SOPE  C21118157   3.687   5.450   9.274 -0.1687 -0.3236 -0.3613
  162SOPE  H11R18158   3.749   5.407   9.192 -0.2872 -0.9997 -0.1026
  162SOPE  H11S18159   3.668   5.559   9.263 -0.5979 -0.4043 -0.4360
  162SOPE  C21218160   3.552   5.383   9.266  0.3082  0.3191 -0.4712
  162SOPE  H12R18161   3.486   5.431   9.191 -0.9917  0.0229  0.4406
  162SOPE  H12S18162   3.489   5.391   9.357 -1.3572 -3.0442 -1.1883
  162SOPE  C21318163   3.562   5.233   9.238  0.1827 -0.9061  0.0401
  162SOPE  H13R18164   3.623   5.188   9.318 -0.3674  0.8782  1.5415
  162SOPE  H13S18165   3.621   5.232   9.144 -2.0436 -2.5555 -1.4732
  162SOPE  C21418166   3.428   5.159   9.213 -0.2547 -0.3377  0.3033
  162SOPE  H14R18167   3.357   5.205   9.284 -0.9498  1.0241 -1.2089
  162SOPE  H14S18168   3.442   5.049   9.227 -0.4276 -0.4858 -0.5964
  162SOPE  C21518169   3.381   5.180   9.065 -0.7426 -0.8613  0.9118
  162SOPE  H15R18170   3.459   5.145   8.994 -0.3141  2.0644 -0.1902
  162SOPE  H15S18171   3.358   5.285   9.038 -1.9577 -1.1198  0.8945
  162SOPE  C21618172   3.252   5.093   9.037  0.0602 -0.7342  0.1045
  162SOPE  H16R18173   3.264   4.990   9.078  2.0217 -0.0359  1.4240
  162SOPE  H16S18174   3.250   5.082   8.926 -0.3073 -0.1399  0.0478
  162SOPE  C21718175   3.126   5.172   9.080 -0.2455  0.2367  0.2056
  162SOPE  H17R18176   3.151   5.219   9.177 -1.2470  1.2208  0.0066
  162SOPE  H17S18177   3.043   5.099   9.090 -0.7871  0.3559 -2.6890
  162SOPE  C21818178   3.083   5.291   8.993 -0.1610  0.2044  0.1021
  162SOPE  H18R18179   3.006   5.347   9.051 -0.9788 -1.1420  0.3642
  162SOPE  H18S18180   3.043   5.265   8.892  0.9953  2.9349 -1.1577
  162SOPE  H18T18181   3.168   5.361   8.978 -0.0715  0.1167  0.2014
  162SOPE   C3318182   3.618   6.244  10.164 -0.0040  0.7895  0.2077
  162SOPE   H3X18183   3.524   6.194  10.133 -0.2391  0.0091  2.0649
  162SOPE   H3Y18184   3.693   6.163  10.171  1.4838  2.2243  1.8044
  162SOPE   C3418185   3.667   6.350  10.063 -0.0266 -0.1999 -0.2634
  162SOPE   H4X18186   3.747   6.407  10.114 -1.3432  2.3493 -0.9016
  162SOPE   H4Y18187   3.585   6.418  10.031 -1.4666 -0.5760  2.3989
  162SOPE   C3518188   3.736   6.275   9.943 -0.4972  0.2842 -0.8826
  162SOPE   H5X18189   3.811   6.199   9.972  0.7782  1.9739  0.5180
  162SOPE   H5Y18190   3.789   6.341   9.871  0.0031 -0.3909 -1.1333
  162SOPE   C3618191   3.623   6.219   9.855 -0.5417 -0.0747  0.5528
  162SOPE   H6X18192   3.550   6.302   9.838  0.3465  0.5849 -0.1412
  162SOPE   H6Y18193   3.563   6.139   9.902 -1.3596 -0.2070 -0.6597
  162SOPE   C3718194   3.683   6.183   9.717 -0.0464  0.3282  0.3949
  162SOPE   H7X18195   3.724   6.081   9.730 -0.8283 -0.0296  0.1056
  162SOPE   H7Y18196   3.765   6.251   9.686  0.0840  0.6250  1.3405
  162SOPE   C3818197   3.578   6.164   9.612  0.1979 -0.0727 -0.0010
  162SOPE   H8X18198   3.521   6.259   9.601 -2.4982 -1.7462 -1.2535
  162SOPE   H8Y18199   3.505   6.084   9.634  1.4351 -1.0901  0.4964
  162SOPE   C3918200   3.647   6.137   9.472  0.3101  0.1277  0.0262
  162SOPE   H9X18201   3.724   6.059   9.484 -1.6179 -1.7804  0.6562
  162SOPE   H9Y18202   3.707   6.223   9.436 -1.3938  1.4300  0.1379
  162SOPE  C31018203   3.545   6.105   9.359  0.2705  0.4302 -1.1438
  162SOPE  H10X18204   3.563   6.167   9.269 -0.2487  1.1351 -0.7749
  162SOPE  H10Y18205   3.443   6.127   9.398  0.7497  0.6622  0.0256
  162SOPE  C31118206   3.560   5.958   9.315 -0.4808 -0.4542 -0.3558
  162SOPE  H11X18207   3.484   5.937   9.237 -1.2905  1.6333 -0.2078
  162SOPE  H11Y18208   3.540   5.899   9.407 -1.4353  0.7819  0.2617
  162SOPE  C31218209   3.698   5.927   9.252 -0.7519  0.2270 -0.2144
  162SOPE  H12X18210   3.762   5.908   9.340  0.0389  1.2233 -0.5593
  162SOPE  H12Y18211   3.754   6.001   9.191 -2.3808  0.9037 -0.9408
  162SOPE  C31318212   3.691   5.795   9.171  0.3902 -0.1332  0.0083
  162SOPE  H13X18213   3.591   5.754   9.197  0.2037  1.2130  1.5212
  162SOPE  H13Y18214   3.773   5.725   9.200  0.2902 -0.4011 -0.3546
  162SOPE  C31418215   3.711   5.811   9.019  0.0208  0.0155 -0.7212
  162SOPE  H14X18216   3.819   5.835   9.010 -0.0528  1.5524  1.6514
  162SOPE  H14Y18217   3.651   5.899   8.987  1.1523  1.7182  1.5796
  162SOPE  C31518218   3.699   5.679   8.943  0.3122 -0.4641  0.4997
  162SOPE  H15X18219   3.742   5.602   9.010 -3.5745 -2.5572  0.8944
  162SOPE  H15Y18220   3.746   5.694   8.844  2.4259  3.4593  1.8661
  162SOPE  C31618221   3.553   5.636   8.925  0.1337 -0.5942 -0.4560
  162SOPE  H16X18222   3.514   5.709   8.850  3.9668  3.5221  1.0977
  162SOPE  H16Y18223   3.509   5.656   9.025  1.3959 -1.1601  0.2291
  162SOPE  C31718224   3.543   5.493   8.878 -0.2997  0.0707 -0.1272
  162SOPE  H17X18225   3.546   5.430   8.969 -0.2042  0.1606 -0.0691
  162SOPE  H17Y18226   3.636   5.461   8.825  1.5149  3.4949  0.6805
  162SOPE  C31818227   3.413   5.455   8.804 -0.6857 -0.0510 -0.4396
  162SOPE  H18X18228   3.413   5.345   8.787 -0.2567 -0.3649  1.2908
  162SOPE  H18Y18229   3.411   5.504   8.705 -1.1400  0.1443 -0.3327
  162SOPE  H18Z18230   3.329   5.479   8.873  0.2510 -0.1818  0.7950
  163SOPE     N18231   4.265   3.903  10.704  0.1376  0.7449 -0.4439
  163SOPE   HN118232   4.301   3.994  10.669  1.1716  1.3139  1.9014
  163SOPE   HN218233   4.294   3.894  10.804 -1.4563 -0.6461 -0.0562
  163SOPE   HN318234   4.329   3.838  10.654  1.0673  0.7804  0.6430
  163SOPE   C1218235   4.121   3.872  10.679  0.2542 -0.0823  0.6806
  163SOPE  H12A18236   4.113   3.761  10.687 -0.6356 -0.2092 -1.3268
  163SOPE  H12B18237   4.101   3.906  10.575  1.5167 -0.9242  0.1388
  163SOPE   C1118238   4.031   3.958  10.769 -0.2380 -0.4603 -0.3622
  163SOPE  H11A18239   4.044   3.919  10.872 -0.8732 -0.3570 -0.2338
  163SOPE  H11B18240   3.925   3.943  10.738  0.4657 -3.3201 -1.6749
  163SOPE     P18241   3.962   4.220  10.749 -0.0200  0.4501 -0.4669
  163SOPE   O1318242   4.028   4.338  10.688  0.3524  0.7343  0.0428
  163SOPE   O1418243   3.909   4.254  10.882  0.0888 -0.4558  0.4142
  163SOPE   O1218244   4.067   4.101  10.761  0.8726 -0.4862 -0.7792
  163SOPE   O1118245   3.851   4.157  10.655  0.0933 -0.0857 -0.1985
  163SOPE    C118246   3.842   4.182  10.517  0.7874  0.3657  0.4825
  163SOPE    HA18247   3.775   4.103  10.476  1.5175 -0.9228  1.6770
  163SOPE    HB18248   3.941   4.162  10.470  0.7802  0.9762  0.2007
  163SOPE    C218249   3.794   4.317  10.463 -0.3040 -0.5303 -0.2614
  163SOPE    HS18250   3.865   4.399  10.489  0.4076 -0.6342 -1.7733
  163SOPE   O2118251   3.661   4.346  10.521 -0.3837 -0.2405 -0.4717
  163SOPE   C2118252   3.628   4.476  10.526  0.4723  1.0433 -0.2950
  163SOPE   O2218253   3.702   4.568  10.507  0.1129 -0.3822 -0.3865
  163SOPE   C2218254   3.478   4.494  10.546  0.5210  0.2336  0.3422
  163SOPE   H2R18255   3.475   4.571  10.626  0.0260  0.6861 -0.0995
  163SOPE   H2S18256   3.437   4.402  10.592 -0.0000 -0.7026 -1.8437
  163SOPE    C318257   3.778   4.321  10.311 -0.3068  0.4520  0.2188
  163SOPE    HX18258   3.748   4.423  10.279  0.2060  1.4090  2.5447
  163SOPE    HY18259   3.695   4.250  10.289 -0.9030  0.2628  2.7052
  163SOPE   O3118260   3.896   4.274  10.243  0.4881 -0.2998 -0.4058
  163SOPE   C3118261   4.000   4.348  10.230 -0.3552  0.2180  0.1274
  163SOPE   O3218262   4.016   4.460  10.266 -0.1684 -0.4514 -0.2290
  163SOPE   C3218263   4.114   4.276  10.159  0.2051 -0.2194  0.8153
  163SOPE   H2X18264   4.111   4.170  10.193 -0.7131 -1.0536 -1.6010
  163SOPE   H2Y18265   4.217   4.311  10.183  0.1029  1.0445 -0.4845
  163SOPE   C2318266   3.398   4.524  10.420  0.7820 -1.0235  1.1015
  163SOPE   H3R18267   3.424   4.620  10.371  0.4450 -2.0901 -1.3078
  163SOPE   H3S18268   3.292   4.520  10.453  0.4294 -0.3266  0.1069
  163SOPE   C2418269   3.413   4.417  10.306  0.2353 -0.1478  0.1753
  163SOPE   H4R18270   3.508   4.421  10.249 -1.1040  1.7026 -2.1353
  163SOPE   H4S18271   3.411   4.318  10.356  1.1044 -0.0041  0.5080
  163SOPE   C2518272   3.288   4.417  10.217  0.1800 -0.6982 -0.1562
  163SOPE   H5R18273   3.208   4.414  10.295 -0.2930 -1.1709 -0.6494
  163SOPE   H5S18274   3.289   4.519  10.173 -0.1314 -0.5157  0.2537
  163SOPE   C2618275   3.266   4.308  10.106  0.6551 -0.2369 -0.6293
  163SOPE   H6R18276   3.353   4.323  10.040  0.7024  1.7081 -0.1924
  163SOPE   H6S18277   3.267   4.203  10.143  0.9103 -0.0494 -0.0821
  163SOPE   C2718278   3.138   4.346  10.028  0.2696  0.2094  0.3099
  163SOPE   H7R18279   3.051   4.307  10.086 -0.1829  0.4036 -0.2281
  163SOPE   H7S18280   3.135   4.457  10.024  0.5164  0.1910 -0.3813
  163SOPE   C2818281   3.148   4.281   9.890  0.1322 -0.4878 -0.2372
  163SOPE   H8R18282   3.232   4.337   9.843 -0.2561  2.6747  2.4565
  163SOPE   H8S18283   3.174   4.173   9.899  1.1433 -0.1790  1.0236
  163SOPE   C2918284   3.014   4.295   9.813 -0.6992  0.6022  0.3156
  163SOPE   H9118285   2.943   4.357   9.870 -0.2431  1.1566  0.2821
  163SOPE  C21018286   2.988   4.264   9.682 -0.9641 -0.1200  0.1409
  163SOPE  H10118287   2.884   4.273   9.647 -1.1856 -1.0312  0.5423
  163SOPE  C21118288   3.080   4.200   9.579 -0.7421  0.1215 -0.0284
  163SOPE  H11R18289   3.183   4.188   9.619 -1.1587 -0.2488  0.9763
  163SOPE  H11S18290   3.089   4.266   9.490 -1.9340 -0.2220 -0.4384
  163SOPE  C21218291   3.051   4.055   9.538  0.6620 -0.1908 -0.1878
  163SOPE  H12R18292   3.022   3.994   9.626 -0.9957 -1.8711 -1.7951
  163SOPE  H12S18293   3.140   4.017   9.484  0.2786  0.2543 -1.1696
  163SOPE  C21318294   2.928   4.051   9.436 -0.2541 -0.5405  0.3090
  163SOPE  H13R18295   2.961   4.121   9.356  2.2065 -3.4928 -1.5244
  163SOPE  H13S18296   2.839   4.085   9.492 -2.5218 -3.0457 -1.4733
  163SOPE  C21418297   2.901   3.916   9.373 -0.0375 -0.6081  0.4501
  163SOPE  H14R18298   2.913   3.838   9.451  1.7507  1.3917  2.2984
  163SOPE  H14S18299   2.965   3.891   9.286 -1.4462 -1.7776 -0.2941
  163SOPE  C21518300   2.754   3.906   9.315 -0.8972 -0.0321  0.4203
  163SOPE  H15R18301   2.687   3.945   9.394 -2.1028  3.4298 -2.0495
  163SOPE  H15S18302   2.737   3.800   9.284  1.9160 -0.3957 -0.2149
  163SOPE  C21618303   2.756   4.001   9.192  0.7963  0.0075  0.2631
  163SOPE  H16R18304   2.832   3.958   9.124 -2.3395 -1.8000 -2.3996
  163SOPE  H16S18305   2.776   4.106   9.222  0.3286  0.0576  0.3938
  163SOPE  C21718306   2.626   4.003   9.113 -0.6205  0.3939  0.5926
  163SOPE  H17R18307   2.535   4.025   9.173  0.1658 -0.5326  2.1983
  163SOPE  H17S18308   2.620   3.896   9.083  2.1427  0.0508  0.9541
  163SOPE  C21818309   2.629   4.102   9.000  0.4608 -0.7992  0.6976
  163SOPE  H18R18310   2.551   4.079   8.924  0.8539 -3.3404  0.9824
  163SOPE  H18S18311   2.729   4.101   8.950  1.3887  0.6499  2.3813
  163SOPE  H18T18312   2.627   4.208   9.032 -1.9542 -1.4486  3.0448
  163SOPE   C3318313   4.081   4.264  10.007 -0.4192 -1.2187  0.0333
  163SOPE   H3X18314   4.112   4.359   9.957 -3.6917 -1.0270 -1.9027
  163SOPE   H3Y18315   3.971   4.259   9.999 -0.2918 -2.8714 -1.2106
  163SOPE   C3418316   4.133   4.140   9.926 -0.5996 -0.2166 -0.7035
  163SOPE   H4X18317   4.085   4.054   9.977 -3.2771  2.8366  2.5514
  163SOPE   H4Y18318   4.243   4.129   9.941 -0.7782 -0.2200  0.8166
  163SOPE   C3518319   4.119   4.146   9.775  0.2015 -0.9370  0.3548
  163SOPE   H5X18320   4.178   4.059   9.740  1.4754  0.4419 -1.0017
  163SOPE   H5Y18321   4.172   4.230   9.726 -1.0447  1.8948  3.4887
  163SOPE   C3618322   3.973   4.127   9.724 -0.1325 -0.1071  0.3579
  163SOPE   H6X18323   3.911   4.205   9.773 -1.1603 -1.3457  1.0704
  163SOPE   H6Y18324   3.935   4.033   9.770  1.4395  0.4856  3.1300
  163SOPE   C3718325   3.956   4.127   9.571 -0.6052  0.4571 -0.0524
  163SOPE   H7X18326   3.847   4.143   9.553 -0.5815 -0.2896 -0.9362
  163SOPE   H7Y18327   3.972   4.026   9.528 -3.7310 -0.4624  0.6282
  163SOPE   C3818328   4.022   4.245   9.498 -0.1887  0.1041  0.0299
  163SOPE   H8X18329   4.132   4.240   9.479 -0.4014  1.9425 -2.1687
  163SOPE   H8Y18330   4.006   4.348   9.537 -0.3911 -1.0513  3.1963
  163SOPE   C3918331   3.963   4.238   9.349  0.0937  0.1635  0.2955
  163SOPE   H9X18332   3.855   4.257   9.330 -0.2344 -2.6850 -1.1400
  163SOPE   H9Y18333   3.975   4.137   9.306  1.0559  1.5206 -2.9478
  163SOPE  C31018334   4.043   4.337   9.258 -0.6216  0.0542 -0.4791
  163SOPE  H10X18335   4.150   4.305   9.262  0.2745  2.8467 -0.2391
  163SOPE  H10Y18336   4.030   4.443   9.287  2.2319  0.8826 -1.7726
  163SOPE  C31118337   3.992   4.331   9.108 -0.1907 -0.3153 -0.3228
  163SOPE  H11X18338   3.884   4.315   9.092 -0.1271 -0.4084 -0.6692
  163SOPE  H11Y18339   4.049   4.248   9.060  2.3876 -0.0208  1.9374
  163SOPE  C31218340   4.023   4.461   9.029  0.1492 -0.9898  0.0304
  163SOPE  H12X18341   4.125   4.495   9.057  0.6955 -0.1881 -2.6350
  163SOPE  H12Y18342   3.959   4.542   9.071  0.8531 -0.1286 -0.5134
  163SOPE  C31318343   3.996   4.430   8.881  0.4855  0.3983  0.5910
  163SOPE  H13X18344   4.025   4.325   8.859 -0.8665  0.2012 -0.3895
  163SOPE  H13Y18345   4.070   4.487   8.820 -0.3178  1.0042  0.1613
  163SOPE  C31418346   3.848   4.460   8.836 -0.3030 -0.8293 -0.0071
  163SOPE  H14X18347   3.782   4.435   8.922 -2.4362  0.0085 -1.3299
  163SOPE  H14Y18348   3.829   4.396   8.747  1.0441 -1.4326  0.1047
  163SOPE  C31518349   3.848   4.605   8.802  0.0956 -0.5415 -0.3216
  163SOPE  H15X18350   3.899   4.628   8.706  1.2297 -1.3411  0.0712
  163SOPE  H15Y18351   3.900   4.661   8.883  0.1094  0.8577 -1.2568
  163SOPE  C31618352   3.707   4.674   8.797  0.7373  0.6375  0.1376
  163SOPE  H16X18353   3.702   4.784   8.788  1.1015  0.8487  1.9500
  163SOPE  H16Y18354   3.668   4.654   8.899  0.7913 -0.5352 -0.0559
  163SOPE  C31718355   3.603   4.611   8.698  0.2364 -0.4701  0.2672
  163SOPE  H17X18356   3.503   4.639   8.738 -0.0022 -1.5086  0.4378
  163SOPE  H17Y18357   3.600   4.500   8.690  0.8595 -0.4717  0.0360
  163SOPE  C31818358   3.630   4.662   8.556 -0.1746 -0.5098  0.0105
  163SOPE  H18X18359   3.557   4.628   8.480 -2.0445  1.0038  1.0717
  163SOPE  H18Y18360   3.729   4.630   8.516  0.8844 -1.8395  3.3406
  163SOPE  H18Z18361   3.641   4.772   8.551 -2.3995 -0.2248  0.7210
  164SOPE     N18362   2.144   1.005  10.906 -0.2314  0.0359  0.0684
  164SOPE   HN118363   2.126   0.907  10.936  0.2476 -0.8459 -2.3169
  164SOPE   HN218364   2.196   1.002  10.816 -0.7956  0.9890 -0.3072
  164SOPE   HN318365   2.193   1.052  10.986 -0.7551 -3.5476  2.7593
  164SOPE   C1218366   2.009   1.064  10.887 -0.4085 -0.7754  0.3048
  164SOPE  H12A18367   2.024   1.174  10.886  1.8690 -1.0307 -0.3529
  164SOPE  H12B18368   1.957   1.034  10.980  1.9076 -3.5841  0.8349
  164SOPE   C1118369   1.937   1.018  10.758  0.2507 -0.3796 -0.4133
  164SOPE  H11A18370   1.997   1.044  10.668  0.1534 -1.5759 -0.8527
  164SOPE  H11B18371   1.855   1.093  10.749  0.3289 -0.3190 -0.6382
  164SOPE     P18372   1.931   0.761  10.705  0.3063 -0.1867  0.1842
  164SOPE   O1318373   1.831   0.678  10.639 -0.1122  0.7054 -0.4078
  164SOPE   O1418374   2.004   0.705  10.814 -1.0559  0.2973  0.1319
  164SOPE   O1218375   1.864   0.894  10.758 -0.0376 -0.5558  0.3335
  164SOPE   O1118376   2.031   0.819  10.590  0.0945  0.4571  0.0536
  164SOPE    C118377   1.976   0.846  10.463  0.5117  0.0531  0.8014
  164SOPE    HA18378   1.914   0.938  10.472 -1.1107 -0.8630 -0.3993
  164SOPE    HB18379   1.912   0.765  10.423  1.3694 -1.1245  1.7488
  164SOPE    C218380   2.091   0.858  10.353 -0.1340 -0.3142 -0.5697
  164SOPE    HS18381   2.139   0.758  10.367  0.2700  0.0107  0.4833
  164SOPE   O2118382   2.179   0.970  10.384 -0.0173  0.2057  0.3253
  164SOPE   C2118383   2.314   0.947  10.346  0.8598 -0.0312  0.6623
  164SOPE   O2218384   2.347   0.838  10.300  0.5166  0.2676  0.1498
  164SOPE   C2218385   2.400   1.066  10.377 -0.2216  0.5174 -0.5930
  164SOPE   H2R18386   2.364   1.127  10.463  1.5417 -0.6494  1.0458
  164SOPE   H2S18387   2.410   1.122  10.282  2.2348 -2.1732 -2.0913
  164SOPE    C318388   2.033   0.872  10.210  0.0272  0.1557  0.7919
  164SOPE    HX18389   1.969   0.963  10.202  1.1220  1.0036  1.4473
  164SOPE    HY18390   1.958   0.790  10.207 -0.5156  0.5869  2.0231
  164SOPE   O3118391   2.131   0.867  10.104  0.8027 -0.0912 -0.1817
  164SOPE   C3118392   2.169   0.742  10.072  0.4604  0.4436  0.6040
  164SOPE   O3218393   2.119   0.637  10.118 -0.1067 -0.4234 -0.1489
  164SOPE   C3218394   2.281   0.751   9.963  0.0069 -0.5427  0.7277
  164SOPE   H2X18395   2.321   0.855   9.963  1.7890 -1.1841  1.9344
  164SOPE   H2Y18396   2.225   0.741   9.867  0.3750  0.2568  0.4228
  164SOPE   C2318397   2.545   1.027  10.408 -0.3268  0.2680 -0.1634
  164SOPE   H3R18398   2.555   0.916  10.402 -2.3058  0.0957 -0.8340
  164SOPE   H3S18399   2.564   1.054  10.514  0.4959 -2.0569  0.3453
  164SOPE   C2418400   2.644   1.090  10.311  0.3051 -0.2062  0.6602
  164SOPE   H4R18401   2.610   1.196  10.305  2.2904  0.3761 -1.4197
  164SOPE   H4S18402   2.752   1.106  10.331  0.9337 -0.5893 -2.0498
  164SOPE   C2518403   2.653   1.023  10.172 -1.1028  0.1985  0.1284
  164SOPE   H5R18404   2.731   0.946  10.158 -1.9298 -0.4074 -1.3308
  164SOPE   H5S18405   2.549   0.989  10.154 -1.3599  0.9175  0.2102
  164SOPE   C2618406   2.681   1.132  10.067  0.2392  0.3386  0.6940
  164SOPE   H6R18407   2.606   1.214  10.074  0.1699  0.1500  2.8973
  164SOPE   H6S18408   2.779   1.178  10.091  1.0960 -0.1404 -1.6850
  164SOPE   C2718409   2.674   1.073   9.923 -0.0276 -0.2238 -0.2282
  164SOPE   H7R18410   2.726   0.975   9.925  0.4821  0.0579  0.7428
  164SOPE   H7S18411   2.572   1.045   9.890  0.6197 -0.5151 -2.1473
  164SOPE   C2818412   2.718   1.173   9.816 -0.2041  0.5231 -0.4533
  164SOPE   H8R18413   2.816   1.220   9.838  0.2584 -0.1733 -1.0122
  164SOPE   H8S18414   2.742   1.134   9.715  2.2490  0.3223  0.1614
  164SOPE   C2918415   2.618   1.286   9.790 -0.8778  0.3171  0.2770
  164SOPE   H9118416   2.595   1.349   9.878  0.2471 -0.1571  0.9349
  164SOPE  C21018417   2.562   1.316   9.670  0.5123 -0.2949 -0.5164
  164SOPE  H10118418   2.493   1.401   9.672 -0.2600 -0.8913 -0.8315
  164SOPE  C21118419   2.576   1.236   9.546 -0.3512 -0.3915 -1.0653
  164SOPE  H11R18420   2.545   1.133   9.571  1.7912 -0.8834 -0.1656
  164SOPE  H11S18421   2.681   1.232   9.508  0.0373  1.5241 -0.2950
  164SOPE  C21218422   2.492   1.295   9.438  0.2159  0.5152  0.1153
  164SOPE  H12R18423   2.505   1.405   9.439  0.2711  0.5193  1.4767
  164SOPE  H12S18424   2.384   1.270   9.446  0.3291 -0.2023 -0.4872
  164SOPE  C21318425   2.539   1.240   9.303  0.5592 -0.0680  0.3079
  164SOPE  H13R18426   2.524   1.130   9.304  0.2087 -0.0536 -1.1792
  164SOPE  H13S18427   2.649   1.244   9.292  0.5259 -0.7928 -0.3740
  164SOPE  C21418428   2.462   1.293   9.183  0.3523 -0.1102 -0.4068
  164SOPE  H14R18429   2.487   1.398   9.155  0.7014 -0.0477  0.1195
  164SOPE  H14S18430   2.352   1.281   9.195  0.1733 -2.4402 -3.2144
  164SOPE  C21518431   2.493   1.202   9.057 -0.2693 -0.1341  0.1770
  164SOPE  H15R18432   2.473   1.095   9.080 -0.0041 -0.7832 -2.3535
  164SOPE  H15S18433   2.597   1.199   9.021 -0.7190 -0.4919 -1.1462
  164SOPE  C21618434   2.391   1.238   8.950 -0.0931 -0.1753 -0.2740
  164SOPE  H16R18435   2.428   1.328   8.897 -2.0128 -0.9045 -3.1077
  164SOPE  H16S18436   2.295   1.267   8.998 -1.1096  0.8077 -2.7291
  164SOPE  C21718437   2.372   1.126   8.845 -0.0144 -0.0606 -0.9087
  164SOPE  H17R18438   2.335   1.031   8.889  0.0657  1.3637  2.5717
  164SOPE  H17S18439   2.469   1.101   8.796  0.0596  0.1682 -0.8775
  164SOPE  C21818440   2.292   1.173   8.715 -0.5228  0.9019 -0.8835
  164SOPE  H18R18441   2.220   1.252   8.746 -1.1428  0.0380 -0.0887
  164SOPE  H18S18442   2.239   1.080   8.686 -0.5367  0.0732  1.5605
  164SOPE  H18T18443   2.354   1.217   8.633 -0.6704 -0.2520 -1.6292
  164SOPE   C3318444   2.398   0.659   9.968 -0.7668 -0.0427 -0.2923
  164SOPE   H3X18445   2.368   0.559   9.931  0.2101 -0.5762  0.3086
  164SOPE   H3Y18446   2.446   0.641  10.067 -1.1371 -0.6501 -0.2167
  164SOPE   C3418447   2.506   0.710   9.868 -0.1540  0.0425 -0.3738
  164SOPE   H4X18448   2.594   0.643   9.872 -1.1643 -1.3640 -1.0507
  164SOPE   H4Y18449   2.541   0.806   9.914 -0.8510  0.4083 -0.5993
  164SOPE   C3518450   2.471   0.719   9.716 -0.3509  0.1124  0.0672
  164SOPE   H5X18451   2.491   0.824   9.686  0.4526  0.2776  1.1229
  164SOPE   H5Y18452   2.366   0.693   9.694  0.2654 -0.5734 -2.3368
  164SOPE   C3618453   2.554   0.622   9.628  0.1285 -0.1418 -0.5921
  164SOPE   H6X18454   2.548   0.522   9.678 -0.0906 -0.8400 -1.9837
  164SOPE   H6Y18455   2.659   0.657   9.637  0.0466  0.6269 -2.2864
  164SOPE   C3718456   2.510   0.597   9.483 -0.8535 -0.4204 -0.4167
  164SOPE   H7X18457   2.520   0.688   9.420 -0.9640 -0.8949 -1.1291
  164SOPE   H7Y18458   2.402   0.575   9.497 -1.0012  0.7309  0.5015
  164SOPE   C3818459   2.588   0.491   9.407  0.6388  1.2216 -0.8516
  164SOPE   H8X18460   2.567   0.395   9.459  0.6916  2.8772  2.4294
  164SOPE   H8Y18461   2.697   0.507   9.422  0.9670 -0.7928 -0.7942
  164SOPE   C3918462   2.560   0.472   9.257 -0.0898 -0.2280 -1.0568
  164SOPE   H9X18463   2.527   0.570   9.218  0.6248  0.1293 -0.7908
  164SOPE   H9Y18464   2.481   0.394   9.258 -0.3847 -0.0062  1.5331
  164SOPE  C31018465   2.689   0.437   9.175 -0.0057  0.5933  0.1550
  164SOPE  H10X18466   2.709   0.330   9.197 -0.0583 -0.2564 -3.3399
  164SOPE  H10Y18467   2.774   0.495   9.217 -0.1226  1.2062 -0.4363
  164SOPE  C31118468   2.663   0.461   9.026  0.1156  0.1487  0.6946
  164SOPE  H11X18469   2.648   0.569   9.006  0.9985  0.6973  2.7417
  164SOPE  H11Y18470   2.585   0.394   8.983  0.8471  0.3398 -1.0194
  164SOPE  C31218471   2.792   0.411   8.959  0.2809  0.7774  0.2067
  164SOPE  H12X18472   2.796   0.305   8.991 -2.4993  0.1446 -1.2716
  164SOPE  H12Y18473   2.879   0.460   9.008  0.0516  0.4305  0.9697
  164SOPE  C31318474   2.802   0.423   8.807  1.2196 -0.5341  0.1714
  164SOPE  H13X18475   2.803   0.529   8.776 -1.8568 -0.7561 -1.1348
  164SOPE  H13Y18476   2.713   0.393   8.747  3.0790 -0.4434 -2.8556
  164SOPE  C31418477   2.920   0.352   8.753 -0.4965  0.1860 -0.4023
  164SOPE  H14X18478   2.932   0.370   8.644  0.7774  0.3273 -0.2595
  164SOPE  H14Y18479   2.907   0.242   8.763 -1.1826  0.2652 -0.4035
  164SOPE  C31518480   3.060   0.406   8.810  0.0795  0.0517 -0.0734
  164SOPE  H15X18481   3.077   0.384   8.917  2.8219 -0.5982 -0.5819
  164SOPE  H15Y18482   3.055   0.516   8.802  0.2542  0.1255  0.7584
  164SOPE  C31618483   3.172   0.340   8.735  0.2685  0.3237  0.5313
  164SOPE  H16X18484   3.155   0.350   8.626  0.2063 -0.4647  0.4645
  164SOPE  H16Y18485   3.172   0.232   8.761 -0.6200  0.5317  1.4378
  164SOPE  C31718486   3.303   0.393   8.781 -0.3051 -0.1556  0.1581
  164SOPE  H17X18487   3.385   0.333   8.736 -0.8292 -0.5805 -0.2464
  164SOPE  H17Y18488   3.303   0.372   8.890  1.5818  1.2315  0.4622
  164SOPE  C31818489   3.335   0.545   8.758 -0.3653  0.2522  0.4458
  164SOPE  H18X18490   3.442   0.563   8.780  0.0579  0.1093 -1.3601
  164SOPE  H18Y18491   3.278   0.621   8.816  1.5572  0.2801  2.4385
  164SOPE  H18Z18492   3.331   0.575   8.651  1.9524 -0.2297  0.1652
  165SOPE     N18493   6.608   2.429  10.984 -0.2152 -0.2121  0.0913
  165SOPE   HN118494   6.696   2.485  10.995  0.8589 -1.5602 -1.2406
  165SOPE   HN218495   6.612   2.335  11.028 -0.3990 -0.8676 -1.2692
  165SOPE   HN318496   6.600   2.414  10.882 -1.1084  2.6299 -0.3652
  165SOPE   C1218497   6.481   2.497  11.026 -0.1481 -0.1760  0.4088
  165SOPE  H12A18498   6.480   2.496  11.138 -0.1783 -1.4306  0.4135
  165SOPE  H12B18499   6.393   2.442  10.986 -1.8072  1.7894  1.1110
  165SOPE   C1118500   6.480   2.640  10.954  0.2176  0.7050 -0.4147
  165SOPE  H11A18501   6.572   2.696  10.983  0.3944  0.8803 -1.2851
  165SOPE  H11B18502   6.394   2.691  11.003  1.3454  0.2638  2.2028
  165SOPE     P18503   6.334   2.631  10.736 -0.1466  0.1130  0.2120
  165SOPE   O1318504   6.249   2.525  10.791  0.0422  0.1956 -0.5663
  165SOPE   O1418505   6.369   2.626  10.593 -0.5260  0.2327 -0.2780
  165SOPE   O1218506   6.471   2.628  10.813 -0.9719  0.0924  0.6933
  165SOPE   O1118507   6.269   2.770  10.774 -0.1097  0.4745  0.1050
  165SOPE    C118508   6.352   2.886  10.783  0.9956 -0.2794 -0.0306
  165SOPE    HA18509   6.450   2.871  10.835  0.2378  2.5654  2.4801
  165SOPE    HB18510   6.307   2.954  10.858  2.0841 -1.0683  1.4136
  165SOPE    C218511   6.365   2.949  10.648 -0.0982  0.3741 -0.0762
  165SOPE    HS18512   6.270   2.930  10.594  1.0843 -0.3799 -2.0068
  165SOPE   O2118513   6.472   2.876  10.577 -0.4330 -0.0286 -0.1797
  165SOPE   C2118514   6.459   2.842  10.446 -0.5521  1.2863 -0.2607
  165SOPE   O2218515   6.359   2.860  10.386 -0.0000 -0.0297  1.3036
  165SOPE   C2218516   6.584   2.761  10.399  0.1834  0.0087 -0.1546
  165SOPE   H2R18517   6.582   2.667  10.458 -1.3082 -1.0929 -1.8654
  165SOPE   H2S18518   6.665   2.822  10.443  0.2080 -0.3935  0.3739
  165SOPE    C318519   6.388   3.106  10.648  0.5115  0.2608 -0.1658
  165SOPE    HX18520   6.483   3.124  10.703  1.2664 -2.3744 -0.4601
  165SOPE    HY18521   6.300   3.137  10.709  1.0939  1.1869  0.2310
  165SOPE   O3118522   6.386   3.148  10.513  0.4576 -0.7990  0.3582
  165SOPE   C3118523   6.263   3.164  10.457 -0.3281  0.3246  0.1982
  165SOPE   O3218524   6.156   3.147  10.508 -0.4111 -0.1472 -0.4110
  165SOPE   C3218525   6.290   3.191  10.311 -0.4607  0.5392  0.1112
  165SOPE   H2X18526   6.345   3.101  10.276 -3.3036 -0.0921 -3.1962
  165SOPE   H2Y18527   6.357   3.278  10.296  0.3697 -0.5125 -2.8942
  165SOPE   C2318528   6.600   2.748  10.250  0.0256  0.1060  0.7898
  165SOPE   H3R18529   6.521   2.680  10.212 -2.1463  3.0140 -0.2426
  165SOPE   H3S18530   6.698   2.705  10.218  0.0592  1.1880 -0.6796
  165SOPE   C2418531   6.594   2.887  10.180 -0.3613  0.2785 -0.2150
  165SOPE   H4R18532   6.493   2.934  10.176 -0.8782 -0.8732 -1.5153
  165SOPE   H4S18533   6.651   2.967  10.231  0.9617 -0.7522 -0.0258
  165SOPE   C2518534   6.650   2.865  10.041 -0.1543 -0.3060  0.4387
  165SOPE   H5R18535   6.760   2.856  10.054 -0.2963 -1.1458  1.1263
  165SOPE   H5S18536   6.625   2.769   9.991 -0.4764  0.4783 -0.9540
  165SOPE   C2618537   6.621   2.972   9.931  0.0126 -0.3236 -0.1965
  165SOPE   H6R18538   6.511   2.981   9.923 -0.1551 -1.0160  1.1174
  165SOPE   H6S18539   6.677   3.067   9.948 -1.1889  0.4074 -0.2147
  165SOPE   C2718540   6.674   2.926   9.794  0.1206  0.3275  0.2834
  165SOPE   H7R18541   6.774   2.880   9.813 -0.1680  0.2169  1.7037
  165SOPE   H7S18542   6.615   2.845   9.746  1.5998 -0.8066  0.2938
  165SOPE   C2818543   6.692   3.045   9.695  0.0693 -0.0618 -0.5487
  165SOPE   H8R18544   6.759   3.113   9.752 -0.8786 -0.4707  1.1122
  165SOPE   H8S18545   6.758   3.012   9.612 -0.2566 -1.6393 -0.2132
  165SOPE   C2918546   6.567   3.104   9.641  0.3185  0.2556 -0.6133
  165SOPE   H9118547   6.527   3.187   9.701  0.6994 -0.1900  0.2763
  165SOPE  C21018548   6.496   3.050   9.540  0.0622 -0.1866 -0.1633
  165SOPE  H10118549   6.400   3.098   9.515  1.9464  2.9334 -2.0056
  165SOPE  C21118550   6.527   2.929   9.462  0.6278 -0.4828 -0.6209
  165SOPE  H11R18551   6.464   2.848   9.505 -1.3466  0.1639 -2.1657
  165SOPE  H11S18552   6.632   2.893   9.456  0.4018 -1.1505 -0.6348
  165SOPE  C21218553   6.468   2.946   9.319 -0.0252  0.0652 -0.1939
  165SOPE  H12R18554   6.375   3.007   9.326 -0.8808 -1.3206  0.8169
  165SOPE  H12S18555   6.448   2.843   9.282 -0.3042  0.2451 -0.5493
  165SOPE  C21318556   6.570   3.018   9.232  0.3779  0.0348  0.5852
  165SOPE  H13R18557   6.657   2.955   9.203  0.4971  0.4888 -0.0791
  165SOPE  H13S18558   6.613   3.104   9.287  1.3207  1.3952 -2.0936
  165SOPE  C21418559   6.518   3.075   9.097 -0.2833 -0.0924 -0.0118
  165SOPE  H14R18560   6.603   3.098   9.030  1.3749  0.6635  2.2301
  165SOPE  H14S18561   6.477   3.176   9.119  1.1670  0.7884 -1.2257
  165SOPE  C21518562   6.430   2.977   9.016  0.0834 -0.0459  0.5591
  165SOPE  H15R18563   6.341   3.029   8.974  0.6363  2.5848  2.4425
  165SOPE  H15S18564   6.395   2.896   9.083 -0.2989  0.2943  0.7774
  165SOPE  C21618565   6.515   2.908   8.906  0.0702 -0.3464 -0.2212
  165SOPE  H16R18566   6.606   2.864   8.951  2.3594  2.3212 -1.9072
  165SOPE  H16S18567   6.551   2.986   8.835 -0.4127 -0.1032 -0.2009
  165SOPE  C21718568   6.436   2.807   8.820 -0.0147  0.3775  0.4842
  165SOPE  H17R18569   6.358   2.856   8.759 -0.3723 -1.4806 -0.6313
  165SOPE  H17S18570   6.391   2.728   8.884 -1.3764  0.1366 -0.7362
  165SOPE  C21818571   6.540   2.723   8.732  0.2266  0.1931 -0.5708
  165SOPE  H18R18572   6.491   2.654   8.661  0.7198  2.2841 -3.0755
  165SOPE  H18S18573   6.595   2.660   8.806 -0.9909  0.1300  0.3141
  165SOPE  H18T18574   6.608   2.789   8.673  1.9287 -2.5060 -1.8409
  165SOPE   C3318575   6.169   3.217  10.216 -0.2616  0.0384  0.2263
  165SOPE   H3X18576   6.169   3.329  10.218  3.5701  0.1979 -1.1665
  165SOPE   H3Y18577   6.069   3.178  10.244 -0.9329  0.1944 -1.7747
  165SOPE   C3418578   6.212   3.184  10.075  0.9163  0.2020 -0.0244
  165SOPE   H4X18579   6.166   3.084  10.065  0.8259  0.1413  0.9774
  165SOPE   H4Y18580   6.317   3.169  10.043  0.6092  0.6812 -1.3355
  165SOPE   C3518581   6.136   3.275   9.971 -0.5214  0.8126  0.0176
  165SOPE   H5X18582   6.189   3.373   9.971  0.1702  0.4777  1.9477
  165SOPE   H5Y18583   6.036   3.300  10.014 -1.3844 -2.5319  0.2347
  165SOPE   C3618584   6.110   3.210   9.836 -0.6234  1.0049  0.5064
  165SOPE   H6X18585   6.019   3.147   9.850  1.0374 -1.8052 -0.5944
  165SOPE   H6Y18586   6.193   3.142   9.806  0.0501  1.9005  0.3124
  165SOPE   C3718587   6.084   3.318   9.721 -0.1999 -0.1990 -0.6601
  165SOPE   H7X18588   6.180   3.373   9.716  0.1904 -0.8698 -0.7217
  165SOPE   H7Y18589   6.005   3.396   9.734 -1.5609 -1.7235  0.7503
  165SOPE   C3818590   6.076   3.242   9.591 -0.3121  0.0967  0.3836
  165SOPE   H8X18591   5.996   3.165   9.598 -0.1884  0.1085  2.6042
  165SOPE   H8Y18592   6.170   3.187   9.564  0.6089  2.7320 -2.2991
  165SOPE   C3918593   6.048   3.332   9.470  0.6968  0.5965 -0.5381
  165SOPE   H9X18594   6.131   3.406   9.458  1.0303  0.3440  0.1329
  165SOPE   H9Y18595   5.952   3.388   9.472  0.3237  0.0109  1.9786
  165SOPE  C31018596   6.054   3.247   9.343 -0.1236  0.7538 -0.5965
  165SOPE  H10X18597   5.990   3.160   9.368  0.1183  0.8766  0.5286
  165SOPE  H10Y18598   6.156   3.206   9.328 -0.7690 -1.2828  0.2426
  165SOPE  C31118599   6.019   3.323   9.214 -0.0279 -0.1019  0.9603
  165SOPE  H11X18600   6.090   3.407   9.199 -1.6648  1.7744  3.0624
  165SOPE  H11Y18601   5.919   3.370   9.229 -0.1423 -0.2814  0.7623
  165SOPE  C31218602   6.018   3.238   9.081  0.2004 -0.3535 -0.2668
  165SOPE  H12X18603   5.940   3.159   9.082 -1.2142  0.9753  1.6551
  165SOPE  H12Y18604   6.116   3.199   9.044  0.5166 -1.6106  1.7189
  165SOPE  C31318605   5.962   3.319   8.969  0.2244  0.2201  0.4271
  165SOPE  H13X18606   6.027   3.409   8.966  0.3778  0.0965 -2.1183
  165SOPE  H13Y18607   5.864   3.364   8.995  0.7557  1.4048  0.4274
  165SOPE  C31418608   5.956   3.243   8.837  0.2423  0.2681  0.3526
  165SOPE  H14X18609   5.866   3.178   8.844 -0.7540  1.6257  0.5999
  165SOPE  H14Y18610   6.048   3.181   8.826  0.4505  0.2978  1.7526
  165SOPE  C31518611   5.928   3.336   8.724 -0.5406  0.0531  0.2668
  165SOPE  H15X18612   6.022   3.392   8.709 -1.5538  1.9819  0.7083
  165SOPE  H15Y18613   5.847   3.407   8.755  3.3161  4.5177  1.3520
  165SOPE  C31618614   5.884   3.259   8.604 -0.4425  0.1848  0.0996
  165SOPE  H16X18615   5.801   3.191   8.634 -0.3663  0.5781  1.2639
  165SOPE  H16Y18616   5.967   3.191   8.575  2.4778  3.2486  0.7001
  165SOPE  C31718617   5.836   3.339   8.480  0.6546 -0.2904 -0.3543
  165SOPE  H17X18618   5.750   3.406   8.498  2.0040  1.5578 -0.4752
  165SOPE  H17Y18619   5.799   3.259   8.412 -0.6251 -0.4800  0.5193
  165SOPE  C31818620   5.940   3.421   8.412  0.2489  0.1892  0.4589
  165SOPE  H18X18621   6.023   3.352   8.388 -0.8782 -1.3733  0.9136
  165SOPE  H18Y18622   5.985   3.500   8.475 -3.2215  1.5835  1.4458
  165SOPE  H18Z18623   5.896   3.470   8.322 -1.9107  1.8071  2.2572
  166SOPE     N18624   3.053   3.693  10.884  0.2069 -0.2566  0.0562
  166SOPE   HN118625   2.982   3.733  10.819  2.2276  0.8609 -1.5811
  166SOPE   HN218626   3.114   3.629  10.829 -1.0562 -0.3929 -1.2576
  166SOPE   HN318627   3.017   3.639  10.965 -0.3064  0.6163  0.4264
  166SOPE   C1218628   3.140   3.789  10.944 -0.0929  0.7712  0.0684
  166SOPE  H12A18629   3.189   3.742  11.032 -1.2686  0.3108  0.4911
  166SOPE  H12B18630   3.075   3.870  10.985 -0.4454 -0.0964  1.2680
  166SOPE   C1118631   3.243   3.830  10.843  0.5056  0.4611 -0.7505
  166SOPE  H11A18632   3.315   3.897  10.894  1.0767 -0.7902  0.1504
  166SOPE  H11B18633   3.194   3.890  10.763  1.1174  0.4508 -1.1343
  166SOPE     P18634   3.448   3.681  10.807 -0.0546  0.1403  0.2128
  166SOPE   O1318635   3.455   3.538  10.835  0.2004  0.0023  0.1306
  166SOPE   O1418636   3.505   3.771  10.912 -0.3095  0.1140  0.3458
  166SOPE   O1218637   3.301   3.725  10.770 -0.1694  0.3849 -0.3793
  166SOPE   O1118638   3.528   3.709  10.677  0.2095 -0.7959  0.1283
  166SOPE    C118639   3.538   3.838  10.612  0.2175  0.0622 -0.0388
  166SOPE    HA18640   3.637   3.845  10.561 -1.3670 -0.0836 -3.3699
  166SOPE    HB18641   3.523   3.921  10.684  2.0861  0.7642 -0.3994
  166SOPE    C218642   3.441   3.852  10.497  0.3985 -0.3858  0.3001
  166SOPE    HS18643   3.340   3.854  10.543 -0.2233  2.6077 -0.9498
  166SOPE   O2118644   3.467   3.742  10.407  0.9236 -0.0786 -0.7281
  166SOPE   C2118645   3.366   3.657  10.371 -0.4530  0.4093  0.2270
  166SOPE   O2218646   3.251   3.664  10.410  0.1327  0.2289 -0.2329
  166SOPE   C2218647   3.429   3.559  10.271  0.5046 -0.3833 -0.2487
  166SOPE   H2R18648   3.502   3.494  10.323  2.3602  1.2439 -0.6935
  166SOPE   H2S18649   3.479   3.615  10.188 -0.1990 -0.9307 -1.0553
  166SOPE    C318650   3.446   3.987  10.419 -0.3199 -0.0811 -0.0791
  166SOPE    HX18651   3.553   4.006  10.395  0.3904 -1.0791  2.0266
  166SOPE    HY18652   3.404   4.073  10.476  0.9873  1.0979 -0.8391
  166SOPE   O3118653   3.377   3.977  10.291 -0.0050  0.0477 -0.1968
  166SOPE   C3118654   3.249   3.968  10.295 -0.2185  0.1590  0.3938
  166SOPE   O3218655   3.180   3.984  10.394  0.3049  0.3755 -0.1826
  166SOPE   C3218656   3.181   3.950  10.157  0.4084 -0.8361 -0.0059
  166SOPE   H2X18657   3.154   4.052  10.123 -0.3152 -2.0022 -3.3161
  166SOPE   H2Y18658   3.088   3.896  10.184 -1.0825  0.9544 -1.3575
  166SOPE   C2318659   3.322   3.474  10.203  0.1612  0.2721 -0.6376
  166SOPE   H3R18660   3.260   3.531  10.130 -0.3111  1.6593  0.7731
  166SOPE   H3S18661   3.248   3.433  10.275  1.8746  0.0317  1.0727
  166SOPE   C2418662   3.384   3.360  10.128  0.4246  1.1848 -0.5974
  166SOPE   H4R18663   3.444   3.395  10.040  1.4839 -1.6827 -1.1401
  166SOPE   H4S18664   3.446   3.298  10.196 -0.9205  0.3800 -0.0708
  166SOPE   C2518665   3.275   3.269  10.069  0.1913  0.1021  0.1388
  166SOPE   H5R18666   3.218   3.240  10.159  0.5044  0.4385  0.4475
  166SOPE   H5S18667   3.209   3.336  10.010 -0.0735  0.2664  0.6228
  166SOPE   C2618668   3.320   3.141   9.992  0.3238 -0.2598  0.1124
  166SOPE   H6R18669   3.385   3.084  10.063  0.6440 -0.9604 -0.7222
  166SOPE   H6S18670   3.229   3.085   9.962  0.5493  1.1873 -3.7218
  166SOPE   C2718671   3.411   3.158   9.876  0.0499  0.3828  0.4636
  166SOPE   H7R18672   3.370   3.208   9.786  3.7823  1.5354 -0.7562
  166SOPE   H7S18673   3.492   3.228   9.904  1.5255 -0.5748 -1.2252
  166SOPE   C2818674   3.472   3.024   9.825  0.4590 -0.0160 -0.1475
  166SOPE   H8R18675   3.544   2.989   9.902  0.6736  1.4407  0.3370
  166SOPE   H8S18676   3.385   2.954   9.829  2.0925 -2.3171 -1.8619
  166SOPE   C2918677   3.542   3.018   9.694 -0.2936 -0.6414 -0.0560
  166SOPE   H9118678   3.564   3.121   9.661  1.7128 -0.4201  1.7362
  166SOPE  C21018679   3.590   2.913   9.627  0.3410  0.2957  0.2068
  166SOPE  H10118680   3.638   2.924   9.529  2.9440 -0.7235  1.2557
  166SOPE  C21118681   3.589   2.769   9.671  0.9083  0.4651 -0.6854
  166SOPE  H11R18682   3.557   2.751   9.776 -1.2791 -0.2388 -1.4295
  166SOPE  H11S18683   3.686   2.715   9.663  0.6071 -0.6334  1.9745
  166SOPE  C21218684   3.483   2.687   9.596 -0.0662  0.3505  0.2756
  166SOPE  H12R18685   3.383   2.734   9.612  0.4737  1.5226  0.3783
  166SOPE  H12S18686   3.464   2.592   9.650 -0.7655 -0.6081 -1.5845
  166SOPE  C21318687   3.508   2.656   9.450 -0.6680  0.4988  0.2836
  166SOPE  H13R18688   3.614   2.630   9.430 -0.8399  2.0045 -3.1567
  166SOPE  H13S18689   3.498   2.742   9.381 -1.4311 -0.3401 -0.6886
  166SOPE  C21418690   3.418   2.544   9.387 -0.6537 -0.1273 -0.6533
  166SOPE  H14R18691   3.313   2.565   9.417 -1.1652 -1.0164 -1.7350
  166SOPE  H14S18692   3.454   2.450   9.434 -0.8267  0.4331  0.6703
  166SOPE  C21518693   3.429   2.531   9.237 -0.6876 -0.0283  0.3550
  166SOPE  H15R18694   3.381   2.434   9.214  1.8708 -0.8291 -2.2638
  166SOPE  H15S18695   3.535   2.533   9.203 -1.0277  3.2262 -0.8572
  166SOPE  C21618696   3.351   2.633   9.147 -0.1576 -0.9321  0.1071
  166SOPE  H16R18697   3.385   2.739   9.152 -1.0729 -0.6583  0.7662
  166SOPE  H16S18698   3.248   2.636   9.188 -0.4063  3.9117 -0.2709
  166SOPE  C21718699   3.347   2.586   8.995 -0.6432  0.3645 -0.2747
  166SOPE  H17R18700   3.280   2.663   8.952 -2.3903  0.2151  2.0298
  166SOPE  H17S18701   3.301   2.485   8.992  2.1384 -1.2095  2.7971
  166SOPE  C21818702   3.478   2.570   8.917  0.8079 -0.5091  0.1267
  166SOPE  H18R18703   3.457   2.553   8.810 -0.4503  1.8838 -0.0894
  166SOPE  H18S18704   3.530   2.476   8.944  0.6853 -0.3730  0.8815
  166SOPE  H18T18705   3.553   2.650   8.934 -0.5705  1.7952 -3.5352
  166SOPE   C3318706   3.263   3.882  10.045 -0.1587  0.2344 -0.0852
  166SOPE   H3X18707   3.305   3.788  10.087  0.3658  0.6581  0.3654
  166SOPE   H3Y18708   3.353   3.942  10.018  0.7840  0.0228  2.3318
  166SOPE   C3418709   3.175   3.844   9.919  0.3138 -0.7519 -0.8811
  166SOPE   H4X18710   3.191   3.915   9.835  0.1836  1.0888  0.5894
  166SOPE   H4Y18711   3.069   3.855   9.951  0.0327  0.2069 -2.0607
  166SOPE   C3518712   3.178   3.707   9.871 -0.7663  0.5795  0.8683
  166SOPE   H5X18713   3.114   3.635   9.927 -0.2913 -0.1774  0.4674
  166SOPE   H5Y18714   3.282   3.668   9.859 -1.4374 -1.0049 -0.1761
  166SOPE   C3618715   3.124   3.706   9.723 -0.8204  0.2423  0.6030
  166SOPE   H6X18716   3.194   3.772   9.666 -0.1568 -0.1919  0.9142
  166SOPE   H6Y18717   3.028   3.754   9.692  0.1534 -0.2102 -3.8032
  166SOPE   C3718718   3.125   3.569   9.651 -0.1451 -0.7463 -0.2609
  166SOPE   H7X18719   3.060   3.492   9.698  0.4478 -0.3216  1.2893
  166SOPE   H7Y18720   3.229   3.532   9.663 -0.0234  0.2745  2.5061
  166SOPE   C3818721   3.107   3.570   9.502  0.4977 -0.4358 -0.0161
  166SOPE   H8X18722   2.999   3.586   9.481  0.2816 -0.7231  0.8435
  166SOPE   H8Y18723   3.136   3.469   9.464 -1.0544  0.0818 -2.9049
  166SOPE   C3918724   3.194   3.675   9.424  0.2057  0.2119 -0.1286
  166SOPE   H9X18725   3.303   3.662   9.439  0.2175  1.7961  1.4967
  166SOPE   H9Y18726   3.162   3.770   9.471  0.3901 -0.8433  2.2518
  166SOPE  C31018727   3.154   3.682   9.276  0.4180  0.4242  0.4170
  166SOPE  H10X18728   3.048   3.710   9.256  0.4853  0.8677  0.6787
  166SOPE  H10Y18729   3.179   3.584   9.230  2.2432  1.8507 -1.8163
  166SOPE  C31118730   3.245   3.771   9.191 -0.3026  0.3086  0.1933
  166SOPE  H11X18731   3.349   3.733   9.186 -0.9380 -1.3940 -1.3572
  166SOPE  H11Y18732   3.239   3.876   9.226 -0.2702 -0.3092  2.1682
  166SOPE  C31218733   3.207   3.752   9.039 -0.5124  0.3207  0.0928
  166SOPE  H12X18734   3.099   3.730   9.026 -0.5001  0.4084 -0.1667
  166SOPE  H12Y18735   3.256   3.656   9.015  0.4653  0.6534  0.6786
  166SOPE  C31318736   3.257   3.867   8.954  0.0883 -0.5251 -0.0870
  166SOPE  H13X18737   3.262   3.824   8.852 -0.5973 -0.2483 -0.2436
  166SOPE  H13Y18738   3.353   3.899   9.001  0.7333 -0.6404 -1.2936
  166SOPE  C31418739   3.167   3.993   8.928  0.1516  0.4063  0.2592
  166SOPE  H14X18740   3.147   4.056   9.018  0.1448 -0.2392  0.7177
  166SOPE  H14Y18741   3.068   3.961   8.891  0.6755  0.0058 -0.8198
  166SOPE  C31518742   3.224   4.102   8.836 -0.7915 -0.2656 -0.4093
  166SOPE  H15X18743   3.222   4.072   8.729 -3.6372 -1.5607 -0.0900
  166SOPE  H15Y18744   3.325   4.141   8.860 -0.3381 -0.9963 -1.0962
  166SOPE  C31618745   3.145   4.232   8.837  0.8229  0.8171 -0.0452
  166SOPE  H16X18746   3.134   4.263   8.944 -2.3211  1.0621 -0.3563
  166SOPE  H16Y18747   3.049   4.198   8.795  1.3106 -0.7466  0.0286
  166SOPE  C31718748   3.216   4.343   8.763  0.1032  0.1620 -0.6751
  166SOPE  H17X18749   3.231   4.300   8.661 -1.3495 -0.2045 -0.7517
  166SOPE  H17Y18750   3.321   4.353   8.800 -0.8266  0.3021  2.1089
  166SOPE  C31818751   3.145   4.481   8.759  0.4557  0.3875  0.7544
  166SOPE  H18X18752   3.213   4.562   8.727 -0.5217  0.4425 -1.3410
  166SOPE  H18Y18753   3.099   4.501   8.858 -4.0862 -0.9101 -0.8198
  166SOPE  H18Z18754   3.057   4.491   8.691  1.4628  0.6617 -0.5519
  167SOPE     N18755   6.596   6.635   6.025  0.6027 -0.3953  0.0176
  167SOPE   HN118756   6.548   6.560   5.971  0.1889 -0.4830  0.5010
  167SOPE   HN218757   6.690   6.596   6.047  1.4549  2.2337  1.3798
  167SOPE   HN318758   6.545   6.646   6.115  0.8697 -2.7592  0.5271
  167SOPE   C1218759   6.595   6.761   5.947  0.2625 -0.3491 -0.1212
  167SOPE  H12A18760   6.494   6.798   5.921  1.1520  0.8572 -2.1325
  167SOPE  H12B18761   6.650   6.756   5.850 -0.4233  3.5710 -0.8784
  167SOPE   C1118762   6.669   6.875   6.018  0.0979 -0.2843 -0.4604
  167SOPE  H11A18763   6.665   6.974   5.968  1.0341  0.0786  0.1606
  167SOPE  H11B18764   6.773   6.840   6.037 -0.1137 -0.6330  0.0712
  167SOPE     P18765   6.659   6.949   6.273  0.0304 -0.7507  0.3416
  167SOPE   O1318766   6.670   7.097   6.273 -0.8781  0.1869 -0.6234
  167SOPE   O1418767   6.789   6.883   6.280 -0.1895  0.3411  0.0503
  167SOPE   O1218768   6.597   6.897   6.140  0.0360 -0.1061 -0.4671
  167SOPE   O1118769   6.558   6.891   6.378 -0.5049 -0.2818 -0.3472
  167SOPE    C118770   6.420   6.933   6.358  0.0106  0.1837  0.3678
  167SOPE    HA18771   6.374   6.872   6.277  2.1598  0.4737 -1.1602
  167SOPE    HB18772   6.402   7.039   6.332 -3.4158 -1.1502 -4.0645
  167SOPE    C218773   6.333   6.895   6.488 -0.1644 -0.0528 -0.0874
  167SOPE    HS18774   6.230   6.928   6.464  0.1091 -0.2741 -1.7358
  167SOPE   O2118775   6.376   6.953   6.613  0.0612 -0.2194  0.7770
  167SOPE   C2118776   6.393   7.086   6.617 -0.8676  0.1256  0.0922
  167SOPE   O2218777   6.368   7.158   6.523  0.4035 -0.0563  0.0043
  167SOPE   C2218778   6.459   7.124   6.749  0.5580 -0.1259  0.2129
  167SOPE   H2R18779   6.457   7.036   6.816  0.4823 -2.0402 -2.1781
  167SOPE   H2S18780   6.378   7.193   6.781  2.0148  3.0796 -2.4100
  167SOPE    C318781   6.320   6.742   6.506  0.4257  0.6713  0.7899
  167SOPE    HX18782   6.417   6.703   6.545 -0.2377 -1.2420  0.6432
  167SOPE    HY18783   6.308   6.706   6.401 -0.8556  1.8542  0.5169
  167SOPE   O3118784   6.211   6.709   6.591  0.4965  0.5491  0.1505
  167SOPE   C3118785   6.231   6.608   6.670  0.2547 -0.0163  0.1284
  167SOPE   O3218786   6.337   6.548   6.676 -0.2123  0.0667  0.1507
  167SOPE   C3218787   6.109   6.567   6.752  0.6206  0.0601 -0.1940
  167SOPE   H2X18788   6.141   6.486   6.821 -1.8812  0.5442  1.7032
  167SOPE   H2Y18789   6.047   6.521   6.672 -0.7500  1.7465 -0.1650
  167SOPE   C2318790   6.586   7.209   6.746  0.6952  1.1655 -0.6891
  167SOPE   H3R18791   6.589   7.280   6.661 -1.6782  0.4794 -1.4311
  167SOPE   H3S18792   6.666   7.138   6.717  0.4724  1.3537 -1.8026
  167SOPE   C2418793   6.619   7.274   6.874 -0.3950  0.3545 -0.1081
  167SOPE   H4R18794   6.706   7.341   6.859 -0.1298  0.1241  0.3780
  167SOPE   H4S18795   6.545   7.356   6.891 -0.6756  0.3638 -1.2718
  167SOPE   C2518796   6.654   7.183   6.990  0.3987  0.0563 -0.5998
  167SOPE   H5R18797   6.599   7.087   6.985  1.2994 -0.4399 -1.3475
  167SOPE   H5S18798   6.760   7.151   6.991  0.6171  0.7368 -1.1718
  167SOPE   C2618799   6.626   7.254   7.119 -0.1066 -0.3774  0.0872
  167SOPE   H6R18800   6.655   7.360   7.109 -1.3738  0.1523  1.5777
  167SOPE   H6S18801   6.516   7.251   7.135 -0.1930 -1.7573 -0.6208
  167SOPE   C2718802   6.705   7.193   7.240 -0.5368 -0.3331  0.0148
  167SOPE   H7R18803   6.676   7.089   7.267  2.6416 -0.2686  5.2344
  167SOPE   H7S18804   6.813   7.178   7.217 -0.5465 -0.3879  0.0030
  167SOPE   C2818805   6.695   7.273   7.372  0.3054 -0.1592  0.2364
  167SOPE   H8R18806   6.753   7.216   7.447  1.4518 -1.1668 -1.3599
  167SOPE   H8S18807   6.742   7.367   7.337 -0.3237  0.7137  1.6569
  167SOPE   C2918808   6.560   7.303   7.426 -0.0285 -0.5779  0.5296
  167SOPE   H9118809   6.500   7.345   7.344  0.9628 -0.4979 -0.1816
  167SOPE  C21018810   6.511   7.285   7.550 -0.0535 -1.0229  0.2160
  167SOPE  H10118811   6.412   7.329   7.569  0.9591  0.5489  2.3315
  167SOPE  C21118812   6.598   7.234   7.662 -0.6779  0.6673 -0.2641
  167SOPE  H11R18813   6.707   7.257   7.653 -0.4905 -0.5311 -1.3230
  167SOPE  H11S18814   6.597   7.123   7.671  0.6541  0.6845  0.3910
  167SOPE  C21218815   6.574   7.307   7.798 -0.0233  0.2059  0.0932
  167SOPE  H12R18816   6.471   7.288   7.836 -0.2459  2.6937  0.8748
  167SOPE  H12S18817   6.586   7.414   7.771 -0.4808  0.1797 -0.2425
  167SOPE  C21318818   6.676   7.284   7.909  0.0232  0.6227 -1.0967
  167SOPE  H13R18819   6.765   7.348   7.889  2.1047 -2.3405 -1.9692
  167SOPE  H13S18820   6.709   7.178   7.913 -1.3288  0.2004 -0.7761
  167SOPE  C21418821   6.625   7.333   8.041  0.2116 -0.8803  0.3855
  167SOPE  H14R18822   6.525   7.291   8.064  1.2498 -3.4067  0.6150
  167SOPE  H14S18823   6.625   7.444   8.027  1.9854 -0.9210 -0.2951
  167SOPE  C21518824   6.718   7.307   8.161  0.3598 -0.0868 -0.8200
  167SOPE  H15R18825   6.749   7.202   8.144  2.1227  0.6080 -2.1953
  167SOPE  H15S18826   6.651   7.310   8.250 -1.1809 -0.9009 -1.9170
  167SOPE  C21618827   6.833   7.403   8.180  0.3952 -0.2721  0.0856
  167SOPE  H16R18828   6.804   7.510   8.177 -1.3680 -0.7445 -2.0944
  167SOPE  H16S18829   6.911   7.397   8.102  0.5752 -2.2635  0.3619
  167SOPE  C21718830   6.902   7.375   8.316  0.0667  0.5418  0.0300
  167SOPE  H17R18831   6.818   7.367   8.389  1.2456  1.8394  1.6025
  167SOPE  H17S18832   6.975   7.444   8.364  0.7326 -0.6056  0.7271
  167SOPE  C21818833   6.975   7.236   8.319  0.4988  0.3823 -0.4133
  167SOPE  H18R18834   7.086   7.246   8.323  0.5383 -0.1637 -0.0402
  167SOPE  H18S18835   6.953   7.181   8.225 -0.0837 -1.2307  0.6318
  167SOPE  H18T18836   6.946   7.173   8.406 -0.4748 -1.5307 -2.0473
  167SOPE   C3318837   6.029   6.674   6.831  0.7191  0.3838 -0.8657
  167SOPE   H3X18838   5.949   6.628   6.893 -0.8116  2.5128 -1.1592
  167SOPE   H3Y18839   5.986   6.745   6.758 -0.1749  1.2770  0.4645
  167SOPE   C3418840   6.115   6.754   6.928 -0.2636 -0.0363 -0.6929
  167SOPE   H4X18841   6.037   6.813   6.981  0.8147 -0.9948  2.1680
  167SOPE   H4Y18842   6.188   6.822   6.879  1.1816 -1.1160 -0.1153
  167SOPE   C3518843   6.189   6.664   7.039 -0.0725  0.0467  0.0783
  167SOPE   H5X18844   6.265   6.604   6.984  0.4160  0.0735  0.7090
  167SOPE   H5Y18845   6.110   6.600   7.083  2.0269 -1.9020  1.1920
  167SOPE   C3618846   6.244   6.760   7.153 -0.3200  0.1949  0.2100
  167SOPE   H6X18847   6.162   6.828   7.184  0.6286  0.2339  2.8513
  167SOPE   H6Y18848   6.326   6.821   7.108  2.2292 -2.6834  0.6734
  167SOPE   C3718849   6.308   6.687   7.268 -0.1048  0.0690  0.1018
  167SOPE   H7X18850   6.399   6.626   7.248 -0.1126 -1.1463  3.2470
  167SOPE   H7Y18851   6.241   6.615   7.319 -1.6626  0.6675 -1.0190
  167SOPE   C3818852   6.357   6.778   7.377 -0.6429  0.2535 -0.4685
  167SOPE   H8X18853   6.273   6.834   7.422  1.1389  1.3401  1.7248
  167SOPE   H8Y18854   6.432   6.852   7.340 -2.0427  2.0108  0.0916
  167SOPE   C3918855   6.415   6.692   7.495 -0.6150 -0.5801  0.1258
  167SOPE   H9X18856   6.503   6.635   7.457  0.0927  1.4275 -1.4628
  167SOPE   H9Y18857   6.338   6.624   7.536 -0.5725 -0.9550 -0.4056
  167SOPE  C31018858   6.473   6.781   7.603  0.0639 -0.1395 -0.6758
  167SOPE  H10X18859   6.386   6.848   7.617 -0.3579 -0.6915 -0.6399
  167SOPE  H10Y18860   6.562   6.840   7.571  0.6997 -1.3870 -1.2700
  167SOPE  C31118861   6.517   6.697   7.722 -0.0952 -0.3043 -0.1237
  167SOPE  H11X18862   6.591   6.619   7.696 -1.5905 -0.9318 -2.8781
  167SOPE  H11Y18863   6.430   6.645   7.769 -0.1403 -1.7408 -1.7214
  167SOPE  C31218864   6.565   6.780   7.839  0.0266 -0.2261 -0.2497
  167SOPE  H12X18865   6.488   6.848   7.882 -1.3057  0.0044 -2.8333
  167SOPE  H12Y18866   6.631   6.855   7.791 -0.1940 -0.6162 -1.1690
  167SOPE  C31318867   6.633   6.702   7.951  0.4517 -0.0968  0.0153
  167SOPE  H13X18868   6.713   6.658   7.887 -0.0842  0.0654 -0.7870
  167SOPE  H13Y18869   6.569   6.623   7.996 -0.6307 -0.4117 -1.9579
  167SOPE  C31418870   6.687   6.783   8.065 -0.1064  0.3207 -0.3707
  167SOPE  H14X18871   6.742   6.866   8.015  0.9217  0.3533  0.7654
  167SOPE  H14Y18872   6.765   6.727   8.120  2.3007 -0.3497 -4.0720
  167SOPE  C31518873   6.586   6.836   8.168  0.0117 -0.3839  0.2727
  167SOPE  H15X18874   6.531   6.754   8.220 -1.1526 -0.9665 -1.7787
  167SOPE  H15Y18875   6.510   6.895   8.113  0.4284 -1.0079 -1.0018
  167SOPE  C31618876   6.649   6.912   8.284  0.3492 -0.4516  0.0645
  167SOPE  H16X18877   6.725   6.987   8.253 -1.8951  0.1600 -4.9645
  167SOPE  H16Y18878   6.686   6.835   8.355 -1.0626 -1.3483 -0.1333
  167SOPE  C31718879   6.545   6.997   8.356 -0.2979  0.1828  0.2345
  167SOPE  H17X18880   6.476   6.930   8.412 -0.3388 -1.1244 -1.3210
  167SOPE  H17Y18881   6.493   7.060   8.281 -1.5390  1.6463  2.2045
  167SOPE  C31818882   6.594   7.094   8.464 -0.1529 -0.2067 -0.0352
  167SOPE  H18X18883   6.668   7.038   8.525  0.5963  1.1737  0.3645
  167SOPE  H18Y18884   6.508   7.118   8.530 -0.0755  0.4181 -0.1620
  167SOPE  H18Z18885   6.650   7.185   8.435  0.4263 -0.0507  1.4916
  168SOPE     N18886   5.201   4.759   6.377  0.2642 -0.2950 -0.9783
  168SOPE   HN118887   5.109   4.770   6.331 -1.5497  0.0434  2.4157
  168SOPE   HN218888   5.186   4.732   6.476 -0.6748 -1.1755 -1.3483
  168SOPE   HN318889   5.253   4.849   6.365  2.5438 -1.3874  0.0793
  168SOPE   C1218890   5.275   4.661   6.291  0.0677  0.7694 -0.1203
  168SOPE  H12A18891   5.371   4.631   6.338  1.0552  0.7824 -2.0311
  168SOPE  H12B18892   5.299   4.709   6.194  1.6898  0.9185  0.3322
  168SOPE   C1118893   5.191   4.527   6.277 -0.2742 -0.0846 -0.8463
  168SOPE  H11A18894   5.244   4.464   6.203  1.9198 -0.1906  0.6914
  168SOPE  H11B18895   5.087   4.556   6.250 -0.8912 -0.0229  1.3990
  168SOPE     P18896   5.081   4.362   6.430  0.0339  0.1593 -0.0411
  168SOPE   O1318897   5.083   4.238   6.354  0.3078 -0.0343 -0.3679
  168SOPE   O1418898   4.955   4.444   6.431 -0.1219  0.2006 -0.2314
  168SOPE   O1218899   5.200   4.455   6.398  0.3211  0.4075  0.4708
  168SOPE   O1118900   5.112   4.328   6.582 -0.1260 -0.0503  0.0766
  168SOPE    C118901   5.010   4.268   6.662 -0.0467 -0.5572  0.1224
  168SOPE    HA18902   5.026   4.159   6.676 -0.9430 -1.0822 -2.3189
  168SOPE    HB18903   4.907   4.266   6.620 -0.5709  1.2453  1.2123
  168SOPE    C218904   5.000   4.339   6.800 -0.5068 -0.0300 -0.0539
  168SOPE    HS18905   4.969   4.273   6.883 -1.8405 -1.2555 -1.4706
  168SOPE   O2118906   4.924   4.458   6.798  0.2522  0.0077  0.4927
  168SOPE   C2118907   4.794   4.431   6.806  0.0616 -0.2146 -0.3310
  168SOPE   O2218908   4.744   4.321   6.796 -0.7746 -0.1259 -0.1043
  168SOPE   C2218909   4.711   4.564   6.815  0.0815 -0.0614 -0.3200
  168SOPE   H2R18910   4.604   4.533   6.822  0.7177 -2.8488 -1.4573
  168SOPE   H2S18911   4.727   4.628   6.725  1.4130  0.7368  0.4617
  168SOPE    C318912   5.149   4.380   6.843 -0.7066 -0.5561  0.6045
  168SOPE    HX18913   5.182   4.457   6.771 -3.0053 -0.2547 -0.2003
  168SOPE    HY18914   5.216   4.291   6.841  0.2535  0.0595  2.6343
  168SOPE   O3118915   5.153   4.433   6.978 -0.0465 -0.1906 -0.5681
  168SOPE   C3118916   5.149   4.565   6.984 -0.1734 -0.3412 -0.7791
  168SOPE   O3218917   5.145   4.643   6.891 -0.1818 -0.5100  0.6230
  168SOPE   C3218918   5.143   4.597   7.139  0.3515 -0.1758 -0.8996
  168SOPE   H2X18919   5.246   4.588   7.180  0.2498 -0.0204 -0.6040
  168SOPE   H2Y18920   5.068   4.534   7.192  0.7531  0.5814  0.6409
  168SOPE   C2318921   4.753   4.646   6.942  0.3484 -0.3041  0.2210
  168SOPE   H3R18922   4.698   4.743   6.950  0.1228 -0.5032  1.2511
  168SOPE   H3S18923   4.861   4.670   6.943  0.6737 -1.7114 -0.1588
  168SOPE   C2418924   4.718   4.575   7.072  0.1582 -1.0646  0.6155
  168SOPE   H4R18925   4.619   4.528   7.051 -0.8253  0.9833  0.4431
  168SOPE   H4S18926   4.787   4.494   7.103  1.5358 -0.1930 -0.0569
  168SOPE   C2518927   4.700   4.670   7.190  0.2392 -0.0510 -0.1479
  168SOPE   H5R18928   4.787   4.739   7.190 -0.3477  0.7169 -0.7004
  168SOPE   H5S18929   4.602   4.721   7.177 -0.1928 -0.8735 -0.1620
  168SOPE   C2618930   4.699   4.607   7.334  0.5302 -0.1318  0.0308
  168SOPE   H6R18931   4.615   4.536   7.336 -0.2925  0.8250  2.1343
  168SOPE   H6S18932   4.788   4.541   7.341  0.0472 -1.0862 -2.0794
  168SOPE   C2718933   4.693   4.708   7.449 -0.5795  0.1456  0.3423
  168SOPE   H7R18934   4.796   4.747   7.462 -1.3605  2.2266  0.7131
  168SOPE   H7S18935   4.624   4.787   7.411 -1.2106  0.3314  1.8060
  168SOPE   C2818936   4.658   4.657   7.592 -0.1262  0.5967 -0.3585
  168SOPE   H8R18937   4.571   4.591   7.575  0.2468  0.1639 -0.6094
  168SOPE   H8S18938   4.742   4.592   7.625 -0.1961  0.6131 -0.1501
  168SOPE   C2918939   4.644   4.776   7.688 -1.0829 -0.4049  0.7445
  168SOPE   H9118940   4.548   4.830   7.679 -1.1731 -0.4604  1.3671
  168SOPE  C21018941   4.741   4.818   7.771 -1.0147  0.1132 -0.5463
  168SOPE  H10118942   4.725   4.910   7.829 -2.2444 -0.8463  0.7373
  168SOPE  C21118943   4.872   4.750   7.802  0.2253  0.2484 -0.0302
  168SOPE  H11R18944   4.948   4.825   7.832 -0.1371  1.3392 -1.6807
  168SOPE  H11S18945   4.907   4.695   7.712 -0.0927 -2.0319  1.1642
  168SOPE  C21218946   4.873   4.641   7.918  0.6436 -0.5846  0.0254
  168SOPE  H12R18947   4.812   4.558   7.874  3.0565 -2.4822  0.0910
  168SOPE  H12S18948   4.819   4.685   8.005  1.0665 -0.6319  0.3135
  168SOPE  C21318949   5.009   4.593   7.966 -0.0035 -0.5206  0.5193
  168SOPE  H13R18950   5.071   4.674   8.009 -2.0832  1.6260 -0.2919
  168SOPE  H13S18951   5.060   4.542   7.881  2.1352 -0.4663  1.7218
  168SOPE  C21418952   4.996   4.512   8.094  0.4887  0.0260 -0.5759
  168SOPE  H14R18953   4.917   4.435   8.079 -0.9848  0.8330  2.2861
  168SOPE  H14S18954   4.965   4.576   8.179 -0.2363 -1.5581  0.4044
  168SOPE  C21518955   5.124   4.446   8.153  0.2506 -0.3041  0.3427
  168SOPE  H15R18956   5.201   4.526   8.155 -0.7778  0.7262 -0.2574
  168SOPE  H15S18957   5.154   4.364   8.084 -1.6485 -1.9346  1.3581
  168SOPE  C21618958   5.097   4.389   8.289  0.0376  0.1923 -0.6977
  168SOPE  H16R18959   5.002   4.332   8.283 -0.4701  1.0940 -1.7277
  168SOPE  H16S18960   5.063   4.472   8.355 -1.3811 -0.5218 -0.4858
  168SOPE  C21718961   5.202   4.317   8.371 -0.1700 -0.3252 -0.1608
  168SOPE  H17R18962   5.279   4.395   8.387  0.9724 -1.4907  0.2832
  168SOPE  H17S18963   5.255   4.236   8.316 -0.9799 -2.2138  1.7100
  168SOPE  C21818964   5.157   4.258   8.510 -0.5748  0.4031  0.1433
  168SOPE  H18R18965   5.084   4.321   8.566 -0.6790 -1.3604  2.1386
  168SOPE  H18S18966   5.241   4.264   8.583 -0.8952  2.7410  0.4079
  168SOPE  H18T18967   5.113   4.156   8.503 -1.2028  0.7481 -1.1833
  168SOPE   C3318968   5.086   4.740   7.166  0.3732 -0.1853 -0.6016
  168SOPE   H3X18969   4.985   4.747   7.119  0.3049  1.8950 -0.2096
  168SOPE   H3Y18970   5.154   4.816   7.123 -0.0421 -0.4722 -1.8010
  168SOPE   C3418971   5.071   4.768   7.320  0.5157  0.2853 -0.2118
  168SOPE   H4X18972   5.168   4.744   7.367  0.6529 -2.0235 -1.5047
  168SOPE   H4Y18973   4.989   4.708   7.365 -0.5790  1.4683 -0.5635
  168SOPE   C3518974   5.040   4.916   7.351 -0.7559 -0.4557 -1.0226
  168SOPE   H5X18975   4.935   4.942   7.327 -1.3823 -0.0484  1.8403
  168SOPE   H5Y18976   5.116   4.979   7.301 -0.8485  1.7679  1.4299
  168SOPE   C3618977   5.037   4.935   7.504 -0.3161 -0.1634 -0.5407
  168SOPE   H6X18978   5.132   4.920   7.560 -1.5091 -0.2884  1.5116
  168SOPE   H6Y18979   4.960   4.866   7.546  1.1772 -1.4046  0.2994
  168SOPE   C3718980   5.021   5.083   7.534 -0.0558 -0.4625  0.2209
  168SOPE   H7X18981   4.936   5.116   7.471 -0.6961 -3.4823 -0.6528
  168SOPE   H7Y18982   5.116   5.139   7.517  1.0349 -1.9687  1.1768
  168SOPE   C3818983   4.970   5.116   7.676 -0.0769 -0.0716  0.1489
  168SOPE   H8X18984   4.888   5.043   7.694 -2.1632  2.0941 -0.0574
  168SOPE   H8Y18985   4.929   5.220   7.675  0.6802  0.2315 -0.6944
  168SOPE   C3918986   5.068   5.099   7.798  0.3127  0.0078  0.0501
  168SOPE   H9X18987   5.146   5.173   7.770  1.1009 -1.1948 -1.0614
  168SOPE   H9Y18988   5.115   4.998   7.802 -0.6837 -0.4096  1.8166
  168SOPE  C31018989   4.997   5.128   7.925  0.5240 -0.1378 -0.5633
  168SOPE  H10X18990   4.920   5.059   7.963  2.4339 -0.6172  2.7934
  168SOPE  H10Y18991   4.953   5.229   7.907 -0.8442 -0.1174  2.3277
  168SOPE  C31118992   5.090   5.140   8.052 -0.0871  0.4276 -0.4292
  168SOPE  H11X18993   5.124   5.034   8.062  0.3998  0.4155 -1.9822
  168SOPE  H11Y18994   5.041   5.171   8.147  2.3391  0.7392  0.7974
  168SOPE  C31218995   5.213   5.241   8.053 -0.0817 -0.0313 -0.0515
  168SOPE  H12X18996   5.181   5.331   7.996  0.3809  0.1715  0.0132
  168SOPE  H12Y18997   5.291   5.188   7.993  0.0968  0.7143 -0.4834
  168SOPE  C31318998   5.262   5.277   8.199  0.2969  0.4771  0.3747
  168SOPE  H13X18999   5.242   5.198   8.275  1.3874  0.7955  1.0072
  168SOPE  H13Y19000   5.205   5.367   8.228 -0.2757  0.6467 -1.1430
  168SOPE  C31419001   5.409   5.327   8.201 -0.1612 -0.7582 -0.5392
  168SOPE  H14X19002   5.435   5.395   8.117  0.1481 -0.2077 -0.0003
  168SOPE  H14Y19003   5.482   5.243   8.190 -0.7876 -1.0903 -2.7585
  168SOPE  C31519004   5.451   5.407   8.330 -0.1990  0.0578  0.4050
  168SOPE  H15X19005   5.561   5.420   8.336 -0.0970 -0.7154  0.3029
  168SOPE  H15Y19006   5.408   5.340   8.408  1.5794 -0.8649  0.6516
  168SOPE  C31619007   5.382   5.544   8.346  0.2129  0.4361  0.4309
  168SOPE  H16X19008   5.271   5.536   8.345  0.2324 -1.0794 -3.1071
  168SOPE  H16Y19009   5.407   5.610   8.260  0.0754 -0.1418 -0.0598
  168SOPE  C31719010   5.432   5.627   8.466 -0.7355 -0.4526  0.0906
  168SOPE  H17X19011   5.540   5.606   8.482 -0.4962 -0.6743 -1.5854
  168SOPE  H17Y19012   5.375   5.587   8.552  0.1433 -0.5922  0.6216
  168SOPE  C31819013   5.413   5.771   8.458  0.0477 -0.0624  0.6420
  168SOPE  H18X19014   5.407   5.814   8.560 -2.4153  0.5577  0.2910
  168SOPE  H18Y19015   5.312   5.792   8.418  0.5895  0.2391 -0.6392
  168SOPE  H18Z19016   5.490   5.822   8.395 -1.2703  1.6698  0.3634
  169SOPE     N19017   0.374   5.750   6.466  0.0196 -0.4304  0.0508
  169SOPE   HN119018   0.380   5.652   6.431 -1.9462 -1.1106  1.4304
  169SOPE   HN219019   0.280   5.787   6.443 -1.1044 -2.9712  0.1769
  169SOPE   HN319020   0.453   5.809   6.431 -0.1884 -0.8665 -1.2085
  169SOPE   C1219021   0.377   5.743   6.616  0.0881 -0.1382  0.7057
  169SOPE  H12A19022   0.476   5.704   6.648 -0.2513 -0.8755  0.8869
  169SOPE  H12B19023   0.302   5.666   6.642  2.3589 -2.6930  0.1703
  169SOPE   C1119024   0.348   5.882   6.673 -0.2404  0.1915  0.1333
  169SOPE  H11A19025   0.328   5.858   6.780  1.7293 -2.0579  0.0813
  169SOPE  H11B19026   0.259   5.934   6.633 -0.2308  0.5754  0.5960
  169SOPE     P19027   0.494   6.059   6.543 -0.4586 -0.2885  0.2302
  169SOPE   O1319028   0.378   6.125   6.473 -0.3995  0.7418  0.2180
  169SOPE   O1419029   0.579   5.967   6.462  0.5954  0.1268 -0.6936
  169SOPE   O1219030   0.454   5.975   6.665  0.1395  0.4728  0.0418
  169SOPE   O1119031   0.576   6.176   6.612 -0.3628  0.1023  0.1498
  169SOPE    C119032   0.709   6.140   6.664  0.9426 -0.6117  0.7874
  169SOPE    HA19033   0.785   6.205   6.617 -0.6237  1.1816  0.6017
  169SOPE    HB19034   0.743   6.035   6.657 -2.0233 -1.6174 -0.2050
  169SOPE    C219035   0.721   6.176   6.813 -0.2282 -0.4999 -0.0419
  169SOPE    HS19036   0.826   6.188   6.847 -0.0120 -1.2850 -0.4143
  169SOPE   O2119037   0.665   6.080   6.903  0.0548  0.5429 -0.0071
  169SOPE   C2119038   0.730   5.958   6.908 -0.5029 -0.3979  0.7319
  169SOPE   O2219039   0.829   5.932   6.842  0.3676 -0.2573 -0.5370
  169SOPE   C2219040   0.644   5.852   6.988  0.4497  0.0392 -0.1229
  169SOPE   H2R19041   0.625   5.764   6.923  0.3116 -0.6649  0.8594
  169SOPE   H2S19042   0.547   5.896   7.017  0.4341  0.8591 -1.3327
  169SOPE    C319043   0.651   6.313   6.845  0.1433  0.1658 -0.6725
  169SOPE    HX19044   0.544   6.297   6.820  0.0892 -3.0170  1.0734
  169SOPE    HY19045   0.695   6.387   6.774  2.0940 -0.2070  0.1049
  169SOPE   O3119046   0.660   6.347   6.985  0.0419  0.6505  1.2002
  169SOPE   C3119047   0.773   6.397   7.017  1.0861  0.1115 -0.0994
  169SOPE   O3219048   0.872   6.413   6.939 -0.0172 -0.7571  0.2435
  169SOPE   C3219049   0.761   6.430   7.164 -0.4210 -0.3804  0.5723
  169SOPE   H2X19050   0.721   6.341   7.217 -1.6643  0.3915  0.9671
  169SOPE   H2Y19051   0.689   6.513   7.180 -1.2537 -0.9479 -0.1443
  169SOPE   C2319052   0.723   5.799   7.110  0.3422  0.0756  0.1802
  169SOPE   H3R19053   0.817   5.744   7.086 -0.9260 -1.3176 -1.9668
  169SOPE   H3S19054   0.668   5.707   7.138  1.2186 -0.2377  0.9244
  169SOPE   C2419055   0.712   5.902   7.229 -0.2984  0.0613  0.4209
  169SOPE   H4R19056   0.752   6.001   7.198 -1.4502  0.1165 -1.0408
  169SOPE   H4S19057   0.603   5.924   7.237 -1.2409 -1.4810 -4.5401
  169SOPE   C2519058   0.762   5.858   7.363  0.1569 -0.1319 -0.2071
  169SOPE   H5R19059   0.754   5.747   7.368 -0.8995 -0.0417  0.4322
  169SOPE   H5S19060   0.870   5.882   7.367 -0.0318  0.8421 -0.7151
  169SOPE   C2619061   0.687   5.912   7.485  0.4350 -0.0303 -0.1378
  169SOPE   H6R19062   0.656   6.017   7.470 -4.1682 -0.6937  2.6950
  169SOPE   H6S19063   0.588   5.863   7.496  1.5047 -2.3221  0.0973
  169SOPE   C2719064   0.758   5.897   7.620  0.2022 -0.3759  0.0201
  169SOPE   H7R19065   0.769   5.791   7.649  1.0097 -1.0370 -2.4042
  169SOPE   H7S19066   0.856   5.950   7.615  0.1867 -0.4003 -0.6846
  169SOPE   C2819067   0.690   5.978   7.727  0.3891  0.0661  0.1690
  169SOPE   H8R19068   0.705   6.087   7.709  4.1850 -0.7052 -2.5155
  169SOPE   H8S19069   0.580   5.959   7.730  0.6105 -1.1631  1.5515
  169SOPE   C2919070   0.746   5.951   7.864 -0.0451  0.4218 -0.2508
  169SOPE   H9119071   0.856   5.956   7.871 -0.0856 -0.0958  0.8792
  169SOPE  C21019072   0.691   5.936   7.983 -0.0556 -0.3497  0.4982
  169SOPE  H10119073   0.752   5.927   8.074  0.9349 -0.1719 -0.1318
  169SOPE  C21119074   0.544   5.929   8.008 -0.5087 -0.2758 -0.3598
  169SOPE  H11R19075   0.513   5.825   8.031 -0.2679 -0.1918  0.3982
  169SOPE  H11S19076   0.487   5.958   7.917 -1.5265 -0.8848  0.0638
  169SOPE  C21219077   0.496   6.027   8.114  0.0218  0.0168 -0.1254
  169SOPE  H12R19078   0.387   6.046   8.108  0.0008  0.1174  0.4917
  169SOPE  H12S19079   0.550   6.123   8.105 -0.1918  0.3593  1.7235
  169SOPE  C21319080   0.524   5.981   8.260  0.5875  0.4251 -0.1692
  169SOPE  H13R19081   0.632   5.959   8.273  0.3950 -0.4590 -0.0291
  169SOPE  H13S19082   0.476   5.884   8.284 -1.6068  1.7775  1.3736
  169SOPE  C21419083   0.467   6.091   8.349  0.6780  0.0732  0.1951
  169SOPE  H14R19084   0.356   6.089   8.342  0.7099 -3.1866 -1.2313
  169SOPE  H14S19085   0.503   6.182   8.296  2.9712 -1.3188 -0.8054
  169SOPE  C21519086   0.531   6.099   8.491  0.6966  0.3082  1.2371
  169SOPE  H15R19087   0.640   6.086   8.478  0.7599  0.2155  1.8168
  169SOPE  H15S19088   0.491   6.017   8.556 -3.5145  0.6592 -0.5534
  169SOPE  C21619089   0.489   6.234   8.555  0.6199 -0.0233 -0.0927
  169SOPE  H16R19090   0.379   6.247   8.542  0.4066 -0.5905  1.0457
  169SOPE  H16S19091   0.520   6.316   8.487 -0.6869  0.8633  0.3418
  169SOPE  C21719092   0.526   6.253   8.708 -0.4207  0.4396 -0.5945
  169SOPE  H17R19093   0.458   6.194   8.772  0.2420  1.8581  1.4982
  169SOPE  H17S19094   0.517   6.359   8.739 -0.8683  0.0545  0.6299
  169SOPE  C21819095   0.666   6.197   8.738  0.7115 -0.2095  0.1706
  169SOPE  H18R19096   0.739   6.246   8.670  0.4254  2.0859  1.4189
  169SOPE  H18S19097   0.666   6.086   8.736  0.1955 -0.2008 -0.6981
  169SOPE  H18T19098   0.690   6.235   8.840  3.8964 -0.8516 -0.2323
  169SOPE   C3319099   0.894   6.473   7.227  0.3281 -0.2747 -0.6128
  169SOPE   H3X19100   0.876   6.579   7.255 -0.7340 -1.2693  3.1038
  169SOPE   H3Y19101   0.982   6.469   7.159 -1.3219  3.5129 -3.3217
  169SOPE   C3419102   0.936   6.403   7.358 -0.2348 -0.2130  0.2960
  169SOPE   H4X19103   0.922   6.292   7.358 -1.4542 -0.0754  1.0772
  169SOPE   H4Y19104   0.870   6.441   7.439  0.0012 -0.8474  0.8000
  169SOPE   C3519105   1.080   6.437   7.388 -0.1288 -0.7881 -0.1627
  169SOPE   H5X19106   1.084   6.530   7.448  1.1400 -0.6541 -0.4206
  169SOPE   H5Y19107   1.132   6.458   7.291  1.0415  0.4156  0.6865
  169SOPE   C3619108   1.154   6.319   7.445 -0.3683 -0.4139 -0.0796
  169SOPE   H6X19109   1.261   6.334   7.418 -0.8366 -0.2641 -1.9419
  169SOPE   H6Y19110   1.108   6.222   7.418 -1.1105 -0.1423  0.1701
  169SOPE   C3719111   1.155   6.333   7.598  0.1447  0.1976 -0.0530
  169SOPE   H7X19112   1.057   6.297   7.637  0.7077 -1.0829  0.2316
  169SOPE   H7Y19113   1.160   6.439   7.630 -1.9786  0.2563  0.2647
  169SOPE   C3819114   1.267   6.248   7.662  0.9177 -0.2601 -0.4629
  169SOPE   H8X19115   1.260   6.148   7.616  1.0590  0.6649 -2.6196
  169SOPE   H8Y19116   1.368   6.291   7.642  0.9096  0.5073  1.0064
  169SOPE   C3919117   1.262   6.254   7.815  0.0222  0.0619  0.1298
  169SOPE   H9X19118   1.239   6.154   7.857 -0.9655  0.1211 -0.2546
  169SOPE   H9Y19119   1.188   6.328   7.854  1.0489  0.7027  0.9359
  169SOPE  C31019120   1.397   6.287   7.881 -0.1209 -0.1078 -0.5102
  169SOPE  H10X19121   1.415   6.388   7.840  2.7759 -1.1071 -1.9467
  169SOPE  H10Y19122   1.460   6.205   7.839  2.1430  0.8535  0.8535
  169SOPE  C31119123   1.379   6.272   8.034  0.4644  1.8079 -0.3213
  169SOPE  H11X19124   1.486   6.277   8.062  0.7361  0.6024 -1.0809
  169SOPE  H11Y19125   1.353   6.168   8.067  1.7248  2.2198  2.2346
  169SOPE  C31219126   1.295   6.380   8.099  0.7259 -0.3003 -0.7003
  169SOPE  H12X19127   1.188   6.376   8.070  0.2305  0.4758  0.8940
  169SOPE  H12Y19128   1.331   6.483   8.078  0.0416  0.1535  0.2761
  169SOPE  C31319129   1.288   6.355   8.255  0.3230 -0.8973  0.0738
  169SOPE  H13X19130   1.390   6.365   8.297  0.7542 -2.7139 -0.4646
  169SOPE  H13Y19131   1.248   6.254   8.279 -0.0102 -1.9202 -3.9298
  169SOPE  C31419132   1.195   6.456   8.323 -0.1484 -0.7743  0.1803
  169SOPE  H14X19133   1.091   6.442   8.286 -0.8420  1.9228  0.8747
  169SOPE  H14Y19134   1.223   6.560   8.295 -1.4265 -0.8716 -1.6178
  169SOPE  C31519135   1.201   6.439   8.478  0.9213 -0.2161 -0.4196
  169SOPE  H15X19136   1.290   6.488   8.523  0.3366  0.7578 -0.2827
  169SOPE  H15Y19137   1.194   6.331   8.503  1.7568 -0.3271 -0.6475
  169SOPE  C31619138   1.080   6.509   8.543  0.3266 -0.3063 -0.9488
  169SOPE  H16X19139   0.983   6.477   8.501  0.3876 -0.8185 -0.6996
  169SOPE  H16Y19140   1.084   6.618   8.520  0.2553 -0.4859 -1.8761
  169SOPE  C31719141   1.075   6.489   8.697  0.3350 -0.3977 -0.5558
  169SOPE  H17X19142   1.161   6.541   8.744 -1.0835 -0.5561  2.4552
  169SOPE  H17Y19143   1.091   6.380   8.708 -1.0199 -0.6204 -0.6128
  169SOPE  C31819144   0.941   6.523   8.761  0.2664  0.3842 -0.4123
  169SOPE  H18X19145   0.895   6.620   8.731  1.6709  1.2863  0.2691
  169SOPE  H18Y19146   0.950   6.532   8.871  0.5983  1.0130 -0.4855
  169SOPE  H18Z19147   0.863   6.449   8.734 -0.6431  0.9487  0.5965
  170SOPE     N19148   2.070   5.786   6.464 -0.1247 -0.2638  0.0306
  170SOPE   HN119149   2.164   5.744   6.450  0.2466  0.9082 -1.2277
  170SOPE   HN219150   2.017   5.748   6.383 -0.1961  0.1645 -0.1269
  170SOPE   HN319151   2.085   5.887   6.448 -0.5071 -0.2265 -0.0828
  170SOPE   C1219152   2.011   5.759   6.590 -0.1447  0.1808 -0.1636
  170SOPE  H12A19153   2.085   5.792   6.666 -1.3915 -0.2859  1.3092
  170SOPE  H12B19154   1.995   5.649   6.600 -1.1954  0.3008 -0.4263
  170SOPE   C1119155   1.876   5.831   6.605  0.3446  0.6798  0.0357
  170SOPE  H11A19156   1.889   5.940   6.614 -2.1609  1.0809 -0.2707
  170SOPE  H11B19157   1.830   5.797   6.700  2.0647 -0.4360  0.5119
  170SOPE     P19158   1.723   5.870   6.392 -0.0990 -0.1929 -0.1993
  170SOPE   O1319159   1.646   5.788   6.293  0.2462 -0.4820  0.5899
  170SOPE   O1419160   1.832   5.950   6.330  0.5389  0.8254 -0.1737
  170SOPE   O1219161   1.787   5.782   6.495 -0.5778 -0.2597 -0.6036
  170SOPE   O1119162   1.621   5.974   6.467  0.0776  0.5170  0.1645
  170SOPE    C119163   1.570   5.958   6.597 -0.6908  0.2056  0.2173
  170SOPE    HA19164   1.633   5.893   6.661 -1.1647  0.2878  0.7700
  170SOPE    HB19165   1.465   5.921   6.594 -0.0327 -1.7439  0.2869
  170SOPE    C219166   1.566   6.104   6.651 -0.0464  0.5565  0.2447
  170SOPE    HS19167   1.507   6.175   6.589 -0.1975 -0.3578 -0.6834
  170SOPE   O2119168   1.706   6.153   6.664 -0.4154 -0.2880  0.1095
  170SOPE   C2119169   1.732   6.281   6.697 -0.3370  0.6563 -0.5518
  170SOPE   O2219170   1.656   6.364   6.737 -0.5295 -0.5559 -0.3557
  170SOPE   C2219171   1.885   6.302   6.677 -0.4409  0.0558 -0.9933
  170SOPE   H2R19172   1.892   6.400   6.625 -1.3946  0.0522 -1.1542
  170SOPE   H2S19173   1.924   6.221   6.611  0.4942 -1.6769  1.5132
  170SOPE    C319174   1.481   6.111   6.783 -0.3315  0.2167  0.2682
  170SOPE    HX19175   1.376   6.095   6.751 -0.0752 -0.7898 -0.1283
  170SOPE    HY19176   1.492   6.213   6.825 -0.8962 -1.0033  3.6333
  170SOPE   O3119177   1.515   6.004   6.875  0.4883 -0.2769  0.4290
  170SOPE   C3119178   1.584   6.043   6.980  0.3033  0.1971 -0.0966
  170SOPE   O3219179   1.604   6.157   7.010  0.2613  0.5242  0.3640
  170SOPE   C3219180   1.616   5.927   7.070  0.0497  0.5753  0.1996
  170SOPE   H2X19181   1.694   5.864   7.021  0.5787  0.2468  1.4493
  170SOPE   H2Y19182   1.524   5.863   7.071 -0.1566  0.8268 -0.8949
  170SOPE   C2319183   1.962   6.300   6.809 -0.0855  0.8574 -1.0814
  170SOPE   H3R19184   1.900   6.349   6.887  0.8090  0.5693 -0.1739
  170SOPE   H3S19185   2.066   6.337   6.794  0.7809 -1.6088 -1.5553
  170SOPE   C2419186   1.983   6.157   6.875  0.2443 -0.0663 -0.4711
  170SOPE   H4R19187   1.887   6.107   6.898 -0.1843  1.2590  0.7310
  170SOPE   H4S19188   2.057   6.104   6.811 -1.2628 -0.2071 -2.1859
  170SOPE   C2519189   2.031   6.185   7.023  0.6112 -0.3824  0.1089
  170SOPE   H5R19190   2.071   6.088   7.058 -0.8714 -2.0334 -2.4247
  170SOPE   H5S19191   2.116   6.257   7.025 -0.0897  0.4620  0.4304
  170SOPE   C2619192   1.927   6.242   7.122  0.3086 -0.0970 -0.4786
  170SOPE   H6R19193   1.900   6.347   7.098 -0.6393 -0.3316 -0.4500
  170SOPE   H6S19194   1.840   6.175   7.107  0.9316 -0.4534 -2.9281
  170SOPE   C2719195   1.972   6.244   7.270  0.6435  0.3525  0.1971
  170SOPE   H7R19196   1.974   6.137   7.300  1.3234 -0.1782 -1.6408
  170SOPE   H7S19197   2.073   6.289   7.272  1.3562 -1.0497 -1.9991
  170SOPE   C2819198   1.877   6.325   7.373  0.3620  1.2703  0.1927
  170SOPE   H8R19199   1.939   6.344   7.463 -1.4738 -1.5168  2.2053
  170SOPE   H8S19200   1.863   6.427   7.332 -2.4150  1.0412  0.4041
  170SOPE   C2919201   1.744   6.256   7.407  0.6465 -0.1694  0.1412
  170SOPE   H9119202   1.676   6.234   7.322 -1.4734  1.5499  1.2815
  170SOPE  C21019203   1.687   6.235   7.526  0.0697 -0.5744 -0.5028
  170SOPE  H10119204   1.588   6.188   7.525 -1.0024  1.5872 -0.6783
  170SOPE  C21119205   1.748   6.266   7.661 -0.7463 -0.2646  0.1111
  170SOPE  H11R19206   1.691   6.345   7.715 -0.7963  0.6407 -1.2166
  170SOPE  H11S19207   1.849   6.309   7.642 -0.1867 -0.1701  2.8022
  170SOPE  C21219208   1.761   6.145   7.751 -0.4606 -0.0872 -0.5678
  170SOPE  H12R19209   1.834   6.082   7.696  1.1369  2.5634 -1.7353
  170SOPE  H12S19210   1.662   6.097   7.767 -0.0354 -0.7900 -0.0074
  170SOPE  C21319211   1.804   6.187   7.893  0.0086  0.2000 -0.1946
  170SOPE  H13R19212   1.744   6.267   7.941  3.5930  3.0012  0.1106
  170SOPE  H13S19213   1.904   6.234   7.880  1.3046 -1.6483  2.3684
  170SOPE  C21419214   1.812   6.065   7.984 -0.5550 -0.2596 -0.2856
  170SOPE  H14R19215   1.878   5.992   7.932 -1.4457 -1.8000  0.6756
  170SOPE  H14S19216   1.712   6.019   7.996 -0.2073 -1.6303 -2.1912
  170SOPE  C21519217   1.868   6.077   8.126  0.0946 -0.1202 -0.3910
  170SOPE  H15R19218   1.966   6.125   8.110 -0.1133  1.0893  1.6140
  170SOPE  H15S19219   1.887   5.972   8.156  0.3115 -0.7066 -2.4297
  170SOPE  C21619220   1.770   6.156   8.214  0.0645  0.2365  0.4089
  170SOPE  H16R19221   1.679   6.095   8.234 -0.1477 -1.0615 -3.5587
  170SOPE  H16S19222   1.744   6.242   8.148 -0.5187  0.0374  0.3751
  170SOPE  C21719223   1.841   6.193   8.349 -0.1021 -0.1804  0.6358
  170SOPE  H17R19224   1.894   6.100   8.380 -1.5266 -1.1470  0.2457
  170SOPE  H17S19225   1.769   6.215   8.431 -2.5076  0.2842 -1.4630
  170SOPE  C21819226   1.935   6.312   8.353  0.1404 -0.6748 -0.2356
  170SOPE  H18R19227   1.871   6.402   8.368  0.2981 -0.5367 -0.3948
  170SOPE  H18S19228   1.996   6.325   8.261  0.6100  2.0174  0.3559
  170SOPE  H18T19229   2.005   6.314   8.440 -2.0376 -0.8675  1.6039
  170SOPE   C3319230   1.652   5.956   7.221  0.3011  0.1614  0.3166
  170SOPE   H3X19231   1.561   6.015   7.246 -0.8547 -1.3437 -0.1211
  170SOPE   H3Y19232   1.745   6.016   7.217  0.6051 -0.2532 -4.2381
  170SOPE   C3419233   1.668   5.835   7.312 -0.6818  0.6128  0.0728
  170SOPE   H4X19234   1.753   5.780   7.267 -0.9386  2.2047 -2.5843
  170SOPE   H4Y19235   1.580   5.770   7.295 -1.3052  1.6899 -0.9708
  170SOPE   C3519236   1.680   5.870   7.460 -0.2357 -0.1141  0.2606
  170SOPE   H5X19237   1.590   5.923   7.497  0.5857  0.8218  0.9705
  170SOPE   H5Y19238   1.771   5.933   7.476  0.2133 -0.4453 -0.8867
  170SOPE   C3619239   1.711   5.748   7.543  0.6990  0.1583  0.2329
  170SOPE   H6X19240   1.777   5.671   7.497  1.9332  0.7588  0.9548
  170SOPE   H6Y19241   1.613   5.696   7.554  0.1000  0.7608 -1.7557
  170SOPE   C3719242   1.765   5.772   7.688 -1.1657  0.3088  0.5348
  170SOPE   H7X19243   1.703   5.851   7.735  3.6889  3.1506  2.9655
  170SOPE   H7Y19244   1.862   5.826   7.685 -0.3105 -1.1373  1.2294
  170SOPE   C3819245   1.786   5.653   7.776 -0.2680  0.5564 -0.5050
  170SOPE   H8X19246   1.866   5.589   7.733  1.4901  1.3341  1.4118
  170SOPE   H8Y19247   1.697   5.587   7.769  0.8449 -0.8713 -1.8975
  170SOPE   C3919248   1.818   5.683   7.920 -0.3457  0.4288 -0.4218
  170SOPE   H9X19249   1.738   5.751   7.958  0.0786  0.2838  0.7925
  170SOPE   H9Y19250   1.911   5.740   7.940 -0.7590  0.8791  0.2966
  170SOPE  C31019251   1.826   5.551   7.998 -0.4093 -0.3284 -0.1014
  170SOPE  H10X19252   1.917   5.495   7.971 -1.2182 -1.4871 -0.5147
  170SOPE  H10Y19253   1.747   5.476   7.974  1.9329 -3.5506  1.5647
  170SOPE  C31119254   1.826   5.581   8.147  0.2646 -0.1223  0.1702
  170SOPE  H11X19255   1.728   5.631   8.158 -0.0368 -0.7351  0.2770
  170SOPE  H11Y19256   1.916   5.639   8.179  2.0999 -2.9664  0.4884
  170SOPE  C31219257   1.817   5.459   8.241 -0.3748  0.1571 -0.1705
  170SOPE  H12X19258   1.917   5.416   8.264  0.6511  2.1303 -0.6925
  170SOPE  H12Y19259   1.760   5.377   8.191  0.4169 -1.0936  0.9003
  170SOPE  C31319260   1.748   5.505   8.371 -0.0029  0.2632  0.3411
  170SOPE  H13X19261   1.659   5.561   8.336  0.1473 -1.2962 -2.9978
  170SOPE  H13Y19262   1.816   5.580   8.417  0.5513  0.4886 -0.8004
  170SOPE  C31419263   1.702   5.400   8.476  0.9552  0.3931 -0.6440
  170SOPE  H14X19264   1.779   5.321   8.489 -0.5761 -0.7905  2.0685
  170SOPE  H14Y19265   1.613   5.352   8.430  1.2198 -1.3982  0.6551
  170SOPE  C31519266   1.668   5.467   8.611 -1.4179  0.5144  0.4926
  170SOPE  H15X19267   1.573   5.521   8.592 -0.5202  1.5763 -1.3312
  170SOPE  H15Y19268   1.750   5.536   8.643 -1.2076  0.2997  0.4255
  170SOPE  C31619269   1.645   5.382   8.738 -0.4114  0.3123 -0.9313
  170SOPE  H16X19270   1.610   5.458   8.811  0.3990 -0.2979  0.1117
  170SOPE  H16Y19271   1.738   5.335   8.776  0.0200  0.7587 -1.4186
  170SOPE  C31719272   1.538   5.272   8.721 -0.1463 -0.4528 -0.4020
  170SOPE  H17X19273   1.580   5.201   8.646  1.0344  1.0856 -1.2340
  170SOPE  H17Y19274   1.449   5.322   8.677  1.2411  0.4483 -2.3487
  170SOPE  C31819275   1.501   5.183   8.841  0.2590  0.2899 -0.5168
  170SOPE  H18X19276   1.587   5.137   8.894 -0.5850  0.9425  1.5660
  170SOPE  H18Y19277   1.428   5.105   8.812 -1.1932  0.3432  2.5477
  170SOPE  H18Z19278   1.458   5.243   8.925  3.0218 -0.1944  1.3543
  171SOPE     N19279   2.284   2.885   6.305 -0.1188  0.2382  0.3881
  171SOPE   HN119280   2.277   2.987   6.286  1.5327  0.2939  0.0011
  171SOPE   HN219281   2.295   2.824   6.222 -1.3829 -1.0774  1.1455
  171SOPE   HN319282   2.197   2.855   6.354 -0.6802  1.4112  0.1704
  171SOPE   C1219283   2.392   2.861   6.408  0.4345 -0.1131 -0.2171
  171SOPE  H12A19284   2.357   2.780   6.476 -1.3539  0.6622 -0.1503
  171SOPE  H12B19285   2.412   2.955   6.464  1.1996 -0.6379  0.3904
  171SOPE   C1119286   2.515   2.831   6.330 -0.4252  0.7021 -0.1207
  171SOPE  H11A19287   2.603   2.858   6.394 -2.0495  1.9536  1.7013
  171SOPE  H11B19288   2.525   2.885   6.234  1.6275 -0.7844 -0.8266
  171SOPE     P19289   2.561   2.575   6.383  0.0766  0.1098 -0.3831
  171SOPE   O1319290   2.688   2.618   6.441 -0.0632 -0.0596 -0.1641
  171SOPE   O1419291   2.571   2.461   6.283  0.2381 -0.1540  0.2968
  171SOPE   O1219292   2.507   2.694   6.291 -0.8199  0.3088 -0.1347
  171SOPE   O1119293   2.450   2.550   6.493 -0.3767 -0.6076 -0.1914
  171SOPE    C119294   2.327   2.488   6.451  0.4109  0.0449 -0.0880
  171SOPE    HA19295   2.348   2.381   6.427 -1.3553 -0.2699 -0.3760
  171SOPE    HB19296   2.281   2.535   6.361  1.2815  1.0520 -0.0236
  171SOPE    C219297   2.214   2.482   6.564  0.4008  0.4857  0.1929
  171SOPE    HS19298   2.180   2.588   6.568 -2.8396 -0.3470 -1.7309
  171SOPE   O2119299   2.280   2.446   6.685 -0.1416 -0.0390 -0.5622
  171SOPE   C2119300   2.211   2.475   6.800 -0.1315 -0.6463 -0.3399
  171SOPE   O2219301   2.115   2.551   6.800  0.3239 -0.2291 -0.0331
  171SOPE   C2219302   2.276   2.407   6.924 -0.4509  0.4795  0.0701
  171SOPE   H2R19303   2.355   2.477   6.959 -1.7110  1.6695  0.6289
  171SOPE   H2S19304   2.321   2.310   6.895 -1.0796  0.0631  0.4557
  171SOPE    C319305   2.087   2.400   6.525 -0.0658 -0.1917 -0.4342
  171SOPE    HX19306   2.047   2.430   6.426 -1.0578  0.6011  0.1855
  171SOPE    HY19307   2.009   2.421   6.601 -0.3524 -0.4291 -0.6640
  171SOPE   O3119308   2.119   2.260   6.523 -0.2977  0.1046 -0.1613
  171SOPE   C3119309   2.105   2.189   6.639  0.1970 -0.1049  0.5896
  171SOPE   O3219310   2.046   2.227   6.738 -0.1561  0.1543  0.6842
  171SOPE   C3219311   2.172   2.052   6.633  0.8026  0.3329  0.1769
  171SOPE   H2X19312   2.282   2.064   6.641  0.7516  1.0831 -0.1821
  171SOPE   H2Y19313   2.145   2.015   6.531 -0.5269  0.7364  0.3581
  171SOPE   C2319314   2.169   2.382   7.039  0.2378  0.3811  0.1459
  171SOPE   H3R19315   2.090   2.319   6.992 -1.3554  1.0117  1.8807
  171SOPE   H3S19316   2.128   2.478   7.075  0.9850  0.2495  1.3819
  171SOPE   C2419317   2.235   2.315   7.154 -0.7249  0.3849  0.1425
  171SOPE   H4R19318   2.271   2.217   7.116  1.4507  0.8655  0.8263
  171SOPE   H4S19319   2.323   2.373   7.189 -0.2025  0.8469 -1.8026
  171SOPE   C2519320   2.128   2.269   7.260  0.5739 -0.2168  0.4964
  171SOPE   H5R19321   2.048   2.344   7.280  0.1705 -1.1783  2.7916
  171SOPE   H5S19322   2.072   2.182   7.219 -0.3459  0.8750 -0.6528
  171SOPE   C2619323   2.180   2.226   7.394  0.0692 -0.1295 -0.3467
  171SOPE   H6R19324   2.110   2.153   7.438  0.8601 -0.5984  0.1458
  171SOPE   H6S19325   2.286   2.194   7.389 -0.3028 -1.5964  0.6691
  171SOPE   C2719326   2.192   2.338   7.492 -0.0523 -0.0526 -0.3085
  171SOPE   H7R19327   2.263   2.420   7.466  1.1939  0.0335  2.9576
  171SOPE   H7S19328   2.095   2.389   7.515 -0.8332 -1.7171  0.2724
  171SOPE   C2819329   2.251   2.306   7.628 -0.3996  0.4759 -0.4410
  171SOPE   H8R19330   2.358   2.278   7.617  0.1897  1.6975  1.6203
  171SOPE   H8S19331   2.251   2.387   7.704 -2.7582  0.2177 -0.0870
  171SOPE   C2919332   2.181   2.185   7.687  0.0507 -0.4659  0.6501
  171SOPE   H9119333   2.075   2.205   7.708 -0.1426 -1.3256  0.5296
  171SOPE  C21019334   2.217   2.057   7.712 -0.1316  0.3336 -0.2151
  171SOPE  H10119335   2.144   1.988   7.757  1.5689 -1.9148 -0.7451
  171SOPE  C21119336   2.341   1.999   7.666 -0.5058 -0.3389 -0.1870
  171SOPE  H11R19337   2.374   2.048   7.572  0.4761  0.3223  0.4739
  171SOPE  H11S19338   2.335   1.891   7.643 -0.1654 -0.5599  0.7057
  171SOPE  C21219339   2.451   1.997   7.775  0.0326 -0.3769 -0.2794
  171SOPE  H12R19340   2.458   2.098   7.820 -1.0315 -0.6237  0.4868
  171SOPE  H12S19341   2.540   1.957   7.720 -0.3641 -0.4012 -0.9032
  171SOPE  C21319342   2.425   1.897   7.887 -0.0079 -0.6204  0.1602
  171SOPE  H13R19343   2.431   1.793   7.850 -1.7597 -0.1857 -1.4925
  171SOPE  H13S19344   2.321   1.912   7.923  0.1404  0.2275  0.2526
  171SOPE  C21419345   2.519   1.907   8.007  0.7051  0.6803  0.5079
  171SOPE  H14R19346   2.507   2.000   8.066 -1.9678  0.4066  0.5264
  171SOPE  H14S19347   2.622   1.904   7.966  0.8748  1.1222  0.8981
  171SOPE  C21519348   2.497   1.802   8.106  0.2809  0.0373 -0.3129
  171SOPE  H15R19349   2.505   1.705   8.052  0.5797  0.1281 -0.4367
  171SOPE  H15S19350   2.394   1.801   8.147 -0.6846 -2.1219 -2.5410
  171SOPE  C21619351   2.601   1.802   8.218  0.1855 -0.2131 -0.6279
  171SOPE  H16R19352   2.558   1.748   8.305  2.0809 -0.1963  0.3763
  171SOPE  H16S19353   2.624   1.904   8.254 -0.7790 -0.4549  0.7664
  171SOPE  C21719354   2.727   1.731   8.180 -0.1676  0.0162  0.3463
  171SOPE  H17R19355   2.780   1.782   8.096  0.3837  1.5287  1.5807
  171SOPE  H17S19356   2.686   1.633   8.148  1.0588 -1.6389  3.4265
  171SOPE  C21819357   2.837   1.709   8.280 -0.1574 -0.1282 -0.9159
  171SOPE  H18R19358   2.799   1.673   8.379 -2.1758  0.6305 -1.3670
  171SOPE  H18S19359   2.882   1.806   8.309  0.4313 -0.8948  0.9118
  171SOPE  H18T19360   2.915   1.641   8.239 -0.2002 -0.7698  0.0187
  171SOPE   C3319361   2.114   1.957   6.734  0.5890  0.2240  0.1650
  171SOPE   H3X19362   2.149   1.858   6.697  0.1547  0.3848 -0.6813
  171SOPE   H3Y19363   2.004   1.951   6.738  0.6535 -1.7099  0.3453
  171SOPE   C3419364   2.163   1.983   6.876 -0.8234  0.4659  0.1532
  171SOPE   H4X19365   2.128   2.081   6.914 -1.8369  0.4787 -0.7767
  171SOPE   H4Y19366   2.274   1.986   6.878 -0.7993 -0.3326  1.3031
  171SOPE   C3519367   2.121   1.871   6.975 -0.3639 -0.1045 -0.0242
  171SOPE   H5X19368   2.183   1.782   6.949 -0.4034 -0.6219  1.5542
  171SOPE   H5Y19369   2.014   1.844   6.967 -0.0940 -1.4838  0.7818
  171SOPE   C3619370   2.140   1.909   7.124 -0.1320  0.3813  0.0896
  171SOPE   H6X19371   2.080   1.998   7.152  0.6780  0.7663  0.6498
  171SOPE   H6Y19372   2.247   1.931   7.142  0.2001 -0.4248 -0.7872
  171SOPE   C3719373   2.106   1.800   7.217  1.0717  0.1830 -0.0670
  171SOPE   H7X19374   2.185   1.723   7.211  0.0297 -1.0219  0.9794
  171SOPE   H7Y19375   2.009   1.756   7.186  0.3854  1.2937  0.4480
  171SOPE   C3819376   2.110   1.854   7.358 -0.2784 -0.1965 -0.7340
  171SOPE   H8X19377   2.025   1.925   7.370  0.9177  1.5724 -2.2112
  171SOPE   H8Y19378   2.204   1.911   7.372 -0.5346  0.1401 -0.3811
  171SOPE   C3919379   2.108   1.745   7.462  0.4552  0.4613  0.7368
  171SOPE   H9X19380   2.154   1.786   7.555 -0.5341  1.3344  0.8606
  171SOPE   H9Y19381   2.175   1.664   7.427  2.0274  0.6792  2.9840
  171SOPE  C31019382   1.971   1.684   7.489  0.2260 -0.1042 -0.2173
  171SOPE  H10X19383   1.980   1.598   7.559 -3.2099  1.5629  2.6189
  171SOPE  H10Y19384   1.925   1.643   7.396  1.5074 -0.8210 -0.5619
  171SOPE  C31119385   1.865   1.783   7.544 -0.1328  0.3834 -0.8802
  171SOPE  H11X19386   1.863   1.878   7.486 -0.3555  0.7594 -0.2701
  171SOPE  H11Y19387   1.897   1.808   7.648  1.7451 -0.8098 -1.1170
  171SOPE  C31219388   1.724   1.714   7.551  0.0013 -0.2040  0.3193
  171SOPE  H12X19389   1.656   1.791   7.594  0.2902  1.6981 -2.3737
  171SOPE  H12Y19390   1.735   1.628   7.621 -0.3916  0.3160  1.0368
  171SOPE  C31319391   1.670   1.672   7.412 -0.0909  0.1204 -0.0339
  171SOPE  H13X19392   1.569   1.627   7.425 -0.0990 -0.0723 -0.7550
  171SOPE  H13Y19393   1.734   1.597   7.362 -0.3614 -0.2476  0.1750
  171SOPE  C31419394   1.660   1.786   7.308 -0.4158 -0.2869  0.4084
  171SOPE  H14X19395   1.762   1.805   7.269 -0.6379 -0.4732 -0.2852
  171SOPE  H14Y19396   1.625   1.875   7.364 -0.8181  0.0254 -0.3279
  171SOPE  C31519397   1.572   1.754   7.187  0.3361 -0.4380 -0.5355
  171SOPE  H15X19398   1.570   1.648   7.153 -0.8415 -0.2536 -1.1140
  171SOPE  H15Y19399   1.598   1.821   7.102 -2.8514 -0.2275 -1.4664
  171SOPE  C31619400   1.428   1.801   7.203  0.0986 -1.2998  0.2326
  171SOPE  H16X19401   1.428   1.907   7.233  1.2984 -1.1728 -0.1535
  171SOPE  H16Y19402   1.392   1.746   7.292 -0.6267 -1.5228 -0.1900
  171SOPE  C31719403   1.340   1.764   7.087  0.0542 -0.8997 -0.2382
  171SOPE  H17X19404   1.311   1.658   7.098 -1.7180 -0.3864  0.2811
  171SOPE  H17Y19405   1.395   1.784   6.992 -0.0613  3.2014  0.3584
  171SOPE  C31819406   1.215   1.851   7.079  0.2938  0.2207 -0.6420
  171SOPE  H18X19407   1.195   1.874   7.186 -1.3868 -2.1924 -0.3524
  171SOPE  H18Y19408   1.122   1.800   7.046 -1.0098  1.0820  1.4981
  171SOPE  H18Z19409   1.234   1.945   7.022  4.8246 -0.0132  0.1293
  172SOPE     N19410   2.303   3.835   6.366 -0.0711 -0.6865 -0.1987
  172SOPE   HN119411   2.328   3.741   6.330  2.5410 -1.1702  2.4961
  172SOPE   HN219412   2.199   3.838   6.365 -0.0734  1.6789  0.2923
  172SOPE   HN319413   2.344   3.906   6.302  1.9222 -0.7554  0.9228
  172SOPE   C1219414   2.346   3.855   6.512  0.3061 -0.4379  0.1339
  172SOPE  H12A19415   2.294   3.778   6.573  0.5887 -1.6112 -1.0594
  172SOPE  H12B19416   2.314   3.954   6.552  1.3746 -0.1626  0.3265
  172SOPE   C1119417   2.497   3.845   6.526  0.4072 -0.4732  0.3113
  172SOPE  H11A19418   2.512   3.741   6.491 -1.2890 -1.1294  1.4304
  172SOPE  H11B19419   2.526   3.852   6.633 -1.5954  0.7149  0.8384
  172SOPE     P19420   2.710   3.900   6.387 -0.0502  0.3758  0.3254
  172SOPE   O1319421   2.767   4.010   6.311  0.8249 -0.0908  0.7781
  172SOPE   O1419422   2.692   3.778   6.306  0.4326 -0.4599 -0.4252
  172SOPE   O1219423   2.566   3.945   6.452 -0.0060  0.4543 -1.1138
  172SOPE   O1119424   2.809   3.864   6.505 -0.2792 -0.0826 -0.1905
  172SOPE    C119425   2.842   3.961   6.596 -0.4856 -0.3093  0.4770
  172SOPE    HA19426   2.761   4.035   6.618 -1.4645 -0.4575 -2.2130
  172SOPE    HB19427   2.923   4.018   6.545 -0.7067 -1.1916 -0.9280
  172SOPE    C219428   2.901   3.898   6.726  0.1701 -0.2171  0.0438
  172SOPE    HS19429   2.972   3.818   6.698  0.5845 -0.7586  2.4034
  172SOPE   O2119430   2.779   3.840   6.789 -0.1545 -0.1520 -0.6429
  172SOPE   C2119431   2.799   3.722   6.841  1.0026 -0.3617 -0.1740
  172SOPE   O2219432   2.901   3.655   6.849  0.2702  0.5670  0.1992
  172SOPE   C2219433   2.665   3.674   6.913 -0.2485 -0.0453 -0.9086
  172SOPE   H2R19434   2.647   3.575   6.868  1.0332 -0.1117 -1.3141
  172SOPE   H2S19435   2.573   3.737   6.911  0.3965  0.9484 -0.1515
  172SOPE    C319436   2.980   4.005   6.811  0.6377 -0.2569  0.0609
  172SOPE    HX19437   2.903   4.084   6.823  0.2157 -0.3581 -1.6803
  172SOPE    HY19438   3.052   4.051   6.741 -0.9189 -0.2016 -1.5844
  172SOPE   O3119439   3.020   3.965   6.941 -0.1042 -0.0420 -0.0006
  172SOPE   C3119440   3.143   3.916   6.938  0.8194  0.1713 -0.6376
  172SOPE   O3219441   3.205   3.885   6.840  0.1756  0.1915  0.8312
  172SOPE   C3219442   3.202   3.899   7.080  0.0720 -0.2957  0.1259
  172SOPE   H2X19443   3.269   3.985   7.101  2.2602 -1.7563 -0.6101
  172SOPE   H2Y19444   3.268   3.810   7.079 -0.2848 -0.5619  0.0195
  172SOPE   C2319445   2.684   3.665   7.074 -0.2354  0.3896  0.3580
  172SOPE   H3R19446   2.739   3.754   7.111  0.7446 -0.4596  1.0044
  172SOPE   H3S19447   2.753   3.579   7.089 -0.3543  0.1669 -0.3449
  172SOPE   C2419448   2.549   3.655   7.144  0.2586 -0.4004 -0.1838
  172SOPE   H4R19449   2.482   3.738   7.115  1.1376  0.4762  0.2255
  172SOPE   H4S19450   2.503   3.557   7.120 -2.8199  1.4167 -2.4250
  172SOPE   C2519451   2.573   3.675   7.293 -0.6818 -0.6390 -0.0793
  172SOPE   H5R19452   2.625   3.772   7.308  0.2044 -1.2754  1.0984
  172SOPE   H5S19453   2.470   3.661   7.334  0.2428 -4.1825  1.3967
  172SOPE   C2619454   2.644   3.567   7.368 -0.3179 -0.1160  0.9732
  172SOPE   H6R19455   2.576   3.481   7.389  0.4564 -1.2134 -0.7775
  172SOPE   H6S19456   2.719   3.528   7.296 -1.8885  3.1541 -2.7890
  172SOPE   C2719457   2.729   3.619   7.487  0.8155 -1.0199 -0.1062
  172SOPE   H7R19458   2.815   3.551   7.502 -1.2613 -3.4609  1.5124
  172SOPE   H7S19459   2.755   3.727   7.474 -0.5752 -0.4664  1.3682
  172SOPE   C2819460   2.641   3.607   7.618 -0.0102 -0.6157 -0.2212
  172SOPE   H8R19461   2.689   3.670   7.696 -1.3196  0.0816  0.0452
  172SOPE   H8S19462   2.545   3.657   7.592  0.3284 -0.8880 -2.1324
  172SOPE   C2919463   2.628   3.469   7.665  0.7108 -0.1866 -0.0729
  172SOPE   H9119464   2.535   3.423   7.628  0.9808 -1.3461  0.6035
  172SOPE  C21019465   2.716   3.395   7.736 -0.2280  0.0814 -0.3774
  172SOPE  H10119466   2.680   3.293   7.752 -0.7586  0.2370 -0.5809
  172SOPE  C21119467   2.849   3.441   7.801 -0.0256 -0.7071  0.2706
  172SOPE  H11R19468   2.890   3.533   7.753 -0.4930  0.0180  1.2013
  172SOPE  H11S19469   2.925   3.360   7.803  1.3154  0.4951 -0.1346
  172SOPE  C21219470   2.816   3.484   7.951  0.4810  0.0806 -0.5905
  172SOPE  H12R19471   2.750   3.572   7.960 -0.3458 -0.6258  0.5228
  172SOPE  H12S19472   2.911   3.515   8.000 -0.2957  2.5513 -0.5466
  172SOPE  C21319473   2.761   3.368   8.031 -0.8316  0.2243 -0.0756
  172SOPE  H13R19474   2.804   3.272   7.996 -0.1648 -0.9353  3.4396
  172SOPE  H13S19475   2.654   3.356   8.004 -0.9115  0.6069  0.0654
  172SOPE  C21419476   2.788   3.370   8.183  0.4600 -0.0377  0.1325
  172SOPE  H14R19477   2.740   3.452   8.242  0.2339  0.6627 -1.0000
  172SOPE  H14S19478   2.894   3.399   8.196  0.9544  0.1040 -3.3504
  172SOPE  C21519479   2.767   3.229   8.244  0.2489 -0.2330  0.1431
  172SOPE  H15R19480   2.853   3.168   8.208 -0.3394  0.4208 -2.5467
  172SOPE  H15S19481   2.666   3.193   8.216  1.5239 -4.0791 -0.0085
  172SOPE  C21619482   2.791   3.219   8.397 -0.0400  0.4351  0.3133
  172SOPE  H16R19483   2.900   3.235   8.407  0.0352  2.4890 -2.5917
  172SOPE  H16S19484   2.770   3.116   8.434 -1.6308  1.5392  2.7848
  172SOPE  C21719485   2.713   3.312   8.502  0.1523 -0.3803  0.6600
  172SOPE  H17R19486   2.765   3.409   8.520 -0.3185 -0.1314  0.7145
  172SOPE  H17S19487   2.712   3.267   8.604 -3.2298 -0.4460  0.7220
  172SOPE  C21819488   2.569   3.346   8.468 -0.1186 -0.3855  0.1222
  172SOPE  H18R19489   2.529   3.416   8.545 -1.5697 -0.7270 -0.3039
  172SOPE  H18S19490   2.511   3.252   8.461  2.9594 -2.4392  0.1759
  172SOPE  H18T19491   2.571   3.395   8.369  0.8944  0.2542  0.4340
  172SOPE   C3319492   3.099   3.882   7.195  0.3527 -0.9587  0.8378
  172SOPE   H3X19493   2.999   3.845   7.164 -0.5316  2.6289 -1.2115
  172SOPE   H3Y19494   3.070   3.987   7.220 -1.4769 -0.8710 -1.3695
  172SOPE   C3419495   3.152   3.809   7.318  0.4393  0.1770 -0.2100
  172SOPE   H4X19496   3.245   3.857   7.356  0.0846 -0.8395  2.0734
  172SOPE   H4Y19497   3.180   3.707   7.284  1.6567  0.2317  0.5813
  172SOPE   C3519498   3.037   3.792   7.413 -0.7856  0.1056  0.1770
  172SOPE   H5X19499   2.957   3.733   7.364 -0.5457  1.1723 -1.5709
  172SOPE   H5Y19500   2.995   3.894   7.429  0.9713  0.9413 -0.2702
  172SOPE   C3619501   3.078   3.727   7.536 -0.0925 -0.4536  0.2979
  172SOPE   H6X19502   3.116   3.623   7.526  2.4451  0.3277  1.0354
  172SOPE   H6Y19503   2.990   3.707   7.601 -1.5932 -1.1299 -1.8583
  172SOPE   C3719504   3.191   3.801   7.611 -0.2451 -0.5398  0.6668
  172SOPE   H7X19505   3.163   3.909   7.601 -0.7652 -0.8850 -4.8809
  172SOPE   H7Y19506   3.277   3.787   7.542 -1.5901 -0.3860 -1.1140
  172SOPE   C3819507   3.212   3.756   7.751 -0.0307  0.0053  0.4337
  172SOPE   H8X19508   3.309   3.803   7.778 -1.6133  2.6941  1.7952
  172SOPE   H8Y19509   3.220   3.645   7.751  0.0760 -0.0179 -1.2709
  172SOPE   C3919510   3.110   3.811   7.846  0.3561  0.0714  0.0123
  172SOPE   H9X19511   3.004   3.777   7.844  0.3404  0.1460 -0.8760
  172SOPE   H9Y19512   3.106   3.922   7.840 -1.5031  0.1202  1.2680
  172SOPE  C31019513   3.143   3.772   7.996  0.5033  0.3223 -0.1889
  172SOPE  H10X19514   3.252   3.792   8.002  1.0446 -2.1778 -0.3920
  172SOPE  H10Y19515   3.131   3.661   7.998 -1.7274  0.5249  0.3081
  172SOPE  C31119516   3.064   3.831   8.100 -0.6946  0.0397  0.1456
  172SOPE  H11X19517   2.955   3.813   8.087 -0.6661  0.6786 -1.2036
  172SOPE  H11Y19518   3.085   3.940   8.099 -1.1276  0.1588  1.7517
  172SOPE  C31219519   3.107   3.782   8.244  0.3048  0.4391  0.5725
  172SOPE  H12X19520   3.026   3.813   8.314 -0.9688 -1.4469  0.0220
  172SOPE  H12Y19521   3.202   3.819   8.286  0.4977 -0.5774  1.0610
  172SOPE  C31319522   3.128   3.626   8.259  0.8083 -0.1227  1.0303
  172SOPE  H13X19523   3.205   3.594   8.185  0.7191 -0.7494  1.1977
  172SOPE  H13Y19524   3.039   3.564   8.236  0.3874  0.6526  0.5309
  172SOPE  C31419525   3.167   3.573   8.395 -0.1173 -0.4368  0.0236
  172SOPE  H14X19526   3.274   3.602   8.405  0.2020 -1.6188  0.1637
  172SOPE  H14Y19527   3.156   3.462   8.402  2.0415 -0.6877 -0.0167
  172SOPE  C31519528   3.082   3.629   8.516  0.2945  0.4099  0.4047
  172SOPE  H15X19529   2.975   3.605   8.504  0.2345  0.7064  0.3150
  172SOPE  H15Y19530   3.096   3.740   8.517  3.4281  0.1843 -2.1685
  172SOPE  C31619531   3.139   3.582   8.659 -0.3130  0.4877  0.4545
  172SOPE  H16X19532   3.080   3.643   8.730  1.6434  0.4073  2.2456
  172SOPE  H16Y19533   3.243   3.614   8.681  0.3334 -1.5885  0.6372
  172SOPE  C31719534   3.107   3.437   8.683 -0.1042  0.3801 -0.5970
  172SOPE  H17X19535   3.143   3.372   8.600  0.9339  2.1936 -1.6183
  172SOPE  H17Y19536   2.998   3.414   8.694  0.5250 -2.4478  0.7099
  172SOPE  C31819537   3.172   3.405   8.820 -0.5864  0.1479 -0.4942
  172SOPE  H18X19538   3.140   3.468   8.906 -1.0682 -0.1068 -0.4833
  172SOPE  H18Y19539   3.282   3.425   8.820 -0.1478 -2.0116 -0.5522
  172SOPE  H18Z19540   3.167   3.301   8.860  3.8681  0.3300  1.2373
  173SAPI   C1219541   3.629   1.823  11.072 -0.8168  0.5131 -0.4945
  173SAPI    H219542   3.553   1.904  11.078 -1.4348  0.0136 -1.2977
  173SAPI    O219543   3.728   1.853  11.172 -1.4180 -0.4499  0.3388
  173SAPI   HO219544   3.756   1.945  11.166 -2.2824  0.0565  3.0229
  173SAPI   C1319545   3.570   1.688  11.109  0.5422  0.7905  0.2167
  173SAPI    H319546   3.478   1.663  11.052 -0.1176 -2.1511  2.3236
  173SAPI    O319547   3.534   1.678  11.246 -0.2265 -0.5927  0.1397
  173SAPI   HO319548   3.615   1.701  11.293 -1.2327  0.5411  1.4387
  173SAPI   C1419549   3.669   1.577  11.081 -0.1777  0.0763 -0.3870
  173SAPI    H419550   3.752   1.608  11.148 -1.3236  0.6775  0.8067
  173SAPI    O419551   3.620   1.452  11.127 -0.3201  0.4803 -0.1727
  173SAPI   HO419552   3.525   1.437  11.127 -0.0542 -2.2945  2.2364
  173SAPI   C1519553   3.741   1.587  10.943  0.4536  0.0741 -0.5037
  173SAPI    H519554   3.668   1.566  10.862  0.7299  1.9568 -1.2883
  173SAPI    O519555   3.835   1.481  10.925  0.2040  0.2679 -0.6085
  173SAPI   HO519556   3.842   1.444  10.836 -0.2575 -1.7742  0.1283
  173SAPI   C1619557   3.801   1.720  10.912  0.4717  0.2552 -0.4162
  173SAPI    H619558   3.881   1.729  10.988  1.2923 -0.7601 -1.1344
  173SAPI    O619559   3.853   1.721  10.779  0.2171 -0.3716  0.2903
  173SAPI   HO619560   3.927   1.782  10.778 -0.7213  0.8452 -2.0186
  173SAPI   C1119561   3.690   1.818  10.932 -0.2089  0.2941 -0.2595
  173SAPI    H119562   3.610   1.789  10.860 -0.0904  0.2850 -0.3896
  173SAPI     P19563   3.654   2.054  10.809  0.5906  0.2273 -0.3572
  173SAPI   O1319564   3.717   2.186  10.822 -0.7608 -0.2055 -0.5554
  173SAPI   O1419565   3.512   2.052  10.848  0.0351 -0.5763 -0.3443
  173SAPI   O1219566   3.742   1.951  10.902 -0.2242 -0.3649 -0.3222
  173SAPI   O1119567   3.672   1.995  10.668  0.3957 -0.1061 -0.6945
  173SAPI    C119568   3.794   2.017  10.596 -0.1528 -0.1884  0.5912
  173SAPI    HA19569   3.873   2.028  10.673 -1.5818  0.4973  2.0277
  173SAPI    HB19570   3.818   1.928  10.534 -0.9459 -2.9727  3.9692
  173SAPI    C219571   3.785   2.150  10.516 -0.3379 -0.3682 -0.0676
  173SAPI    HS19572   3.806   2.227  10.593  0.6304  1.6178 -2.1867
  173SAPI   O2119573   3.655   2.157  10.446  0.1070 -0.3076  0.3166
  173SAPI   C2119574   3.614   2.273  10.414  0.1677  0.6199  0.5586
  173SAPI   O2219575   3.669   2.378  10.446 -0.4918 -0.0090 -0.2592
  173SAPI   C2219576   3.475   2.251  10.353 -0.0396 -0.2905 -0.2682
  173SAPI   H2R19577   3.419   2.200  10.434 -0.4778  0.0109 -0.3792
  173SAPI   H2S19578   3.430   2.353  10.347 -1.3350 -0.5229  3.1110
  173SAPI    C319579   3.913   2.151  10.423  0.8836  0.0386  0.4463
  173SAPI    HX19580   4.009   2.126  10.474  1.1168 -0.0450 -0.0263
  173SAPI    HY19581   3.929   2.257  10.394 -0.9800  0.4520  0.7834
  173SAPI   O3119582   3.894   2.062  10.309  0.1706  0.2483  0.0076
  173SAPI   C3119583   3.850   2.117  10.189 -0.9704  0.5079  0.1120
  173SAPI   O3219584   3.810   2.227  10.178  0.1718 -0.0238 -0.0131
  173SAPI   C3219585   3.879   2.016  10.074  0.1160  0.0803  0.0228
  173SAPI   H2X19586   3.792   1.949  10.091 -0.2521 -0.3563 -2.9927
  173SAPI   H2Y19587   3.981   1.973  10.083  0.0148 -0.5421 -1.4792
  173SAPI   C2319588   3.478   2.169  10.222 -0.4953 -0.5314  0.3624
  173SAPI   H3R19589   3.380   2.118  10.206 -1.9305  1.6608  1.5935
  173SAPI   H3S19590   3.562   2.097  10.232 -0.8902 -0.8583  1.4926
  173SAPI   C2419591   3.508   2.251  10.093 -0.0801  0.0744 -0.2106
  173SAPI   H4R19592   3.530   2.183  10.008  1.2214 -0.0682  0.2169
  173SAPI   H4S19593   3.592   2.322  10.103  0.6223 -0.6426 -0.8803
  173SAPI   C2519594   3.383   2.334  10.064  0.8921 -0.3464  0.7731
  173SAPI   H5R19595   3.381   2.438  10.101 -1.0148 -0.6801  1.7143
  173SAPI   C2619596   3.286   2.308   9.976  0.2705  0.7778 -0.0058
  173SAPI   H6R19597   3.205   2.381   9.961  0.4787  0.7077 -1.5971
  173SAPI   C2719598   3.273   2.187   9.892  0.2638  1.1985 -0.0668
  173SAPI   H7R19599   3.189   2.128   9.933 -0.6122  1.9415 -0.7436
  173SAPI   H7S19600   3.363   2.123   9.909  1.9133  3.4184  0.0428
  173SAPI   C2819601   3.258   2.226   9.746  0.3326  0.5158 -0.1082
  173SAPI   H8R19602   3.153   2.233   9.717  0.9381  2.1895 -2.1703
  173SAPI   C2919603   3.356   2.232   9.648  0.2273 -0.3754 -0.6098
  173SAPI   H9R19604   3.329   2.238   9.541  2.4592 -0.6884 -1.2604
  173SAPI  C21019605   3.503   2.215   9.670 -0.0225 -0.3398  0.0877
  173SAPI  H10R19606   3.532   2.108   9.669 -1.6063 -0.7953 -0.2294
  173SAPI  H10S19607   3.532   2.249   9.772  0.2422  0.7112 -0.3220
  173SAPI  C21119608   3.595   2.272   9.560  0.5338  0.1971 -0.1875
  173SAPI  H11R19609   3.648   2.363   9.593 -0.9161  0.8824  0.3382
  173SAPI  C21219610   3.623   2.205   9.442 -0.3049  0.5230  0.4164
  173SAPI  H12R19611   3.694   2.252   9.372 -0.3667 -0.5899 -0.4291
  173SAPI  C21319612   3.569   2.074   9.384  0.2508 -0.3107 -0.0705
  173SAPI  H13R19613   3.510   2.017   9.458  0.2338 -0.0842  0.0920
  173SAPI  H13S19614   3.647   2.003   9.349  0.5821 -0.3966  0.8167
  173SAPI  C21419615   3.473   2.134   9.280  0.0002  0.1458  1.1090
  173SAPI  H14R19616   3.376   2.163   9.324 -0.4607 -0.4522  0.5137
  173SAPI  C21519617   3.498   2.170   9.152 -0.3532  0.3944 -0.3974
  173SAPI  H15R19618   3.414   2.217   9.099 -0.4815  0.0649 -0.4885
  173SAPI  C21619619   3.622   2.147   9.069 -0.5332 -0.8234 -0.4133
  173SAPI  H16R19620   3.704   2.097   9.126 -0.8648  0.3338  1.1400
  173SAPI  H16S19621   3.645   2.253   9.046 -2.9832 -0.1005  0.2443
  173SAPI  C21719622   3.608   2.056   8.947 -0.8049  0.1068  0.5640
  173SAPI  H17R19623   3.531   2.098   8.879  0.1610  2.3545  0.7489
  173SAPI  H17S19624   3.566   1.960   8.983  3.1292 -1.9638  0.2275
  173SAPI  C21819625   3.731   2.023   8.864 -0.7956 -0.0734  0.1681
  173SAPI  H18R19626   3.706   1.949   8.785  1.5847 -1.5974  0.7341
  173SAPI  H18S19627   3.799   1.968   8.932  0.2391  0.2223 -0.6132
  173SAPI  C21919628   3.797   2.148   8.803  0.3619  0.2705  0.3686
  173SAPI  H19R19629   3.820   2.221   8.883 -1.9614  0.1499  1.2094
  173SAPI  H19S19630   3.723   2.194   8.735 -0.6700 -2.1155 -0.2350
  173SAPI  C22019631   3.917   2.119   8.712  0.0048  0.1782 -0.2058
  173SAPI  H20R19632   3.994   2.059   8.767 -0.2656  0.2321  0.2361
  173SAPI  H20S19633   3.964   2.215   8.684 -1.6979  0.5422 -2.0449
  173SAPI  H20T19634   3.895   2.063   8.618  2.3944  1.5759 -1.6890
  173SAPI   C3319635   3.841   2.079   9.938  0.3238 -0.1084  0.7436
  173SAPI   H3X19636   3.887   2.180   9.944 -2.1946  1.0822  1.6160
  173SAPI   H3Y19637   3.733   2.098   9.922  0.9392  2.1839 -1.3265
  173SAPI   C3419638   3.910   1.999   9.817  0.2087  0.1322  0.1044
  173SAPI   H4X19639   3.855   1.903   9.811 -2.0673  1.4367 -1.8546
  173SAPI   H4Y19640   4.013   1.979   9.853 -0.2889 -1.0774  0.9263
  173SAPI   C3519641   3.899   2.063   9.683  0.3084  0.0586 -0.3092
  173SAPI   H5X19642   3.951   2.160   9.699  0.4042 -0.1196  0.4985
  173SAPI   H5Y19643   3.794   2.083   9.654 -0.0464 -2.2218 -0.7684
  173SAPI   C3619644   3.973   1.991   9.570 -0.6025 -0.4551  0.3630
  173SAPI   H6X19645   3.926   1.894   9.543 -0.0228 -0.5818 -0.2119
  173SAPI   H6Y19646   4.080   1.974   9.594 -0.3975  1.5893  1.0868
  173SAPI   C3719647   3.972   2.081   9.446 -0.5963  0.2589  0.2060
  173SAPI   H7X19648   4.034   2.173   9.461  1.5685 -0.8128 -1.6508
  173SAPI   H7Y19649   3.868   2.118   9.435 -0.1318  1.0632 -2.0210
  173SAPI   C3819650   4.021   2.010   9.316 -0.0926 -0.0835 -0.3462
  173SAPI   H8X19651   3.958   1.922   9.288  0.2330 -0.4526  0.0615
  173SAPI   H8Y19652   4.120   1.962   9.329 -1.4132 -2.8321  0.3027
  173SAPI   C3919653   4.037   2.091   9.187  0.2057 -0.8066 -0.8015
  173SAPI   H9X19654   4.070   2.194   9.212 -0.3123 -0.4638 -1.5113
  173SAPI   H9Y19655   3.943   2.106   9.130  0.1514  1.8775 -0.1455
  173SAPI  C31019656   4.157   2.043   9.100  0.6836 -0.3977 -0.3275
  173SAPI  H10X19657   4.113   1.957   9.045  0.3930 -0.9142  0.6875
  173SAPI  H10Y19658   4.241   2.014   9.167  0.2359 -2.1901 -0.4881
  173SAPI  C31119659   4.206   2.148   8.995  0.1159  0.4146 -0.4772
  173SAPI  H11X19660   4.270   2.225   9.043  0.3696 -0.0725 -0.0334
  173SAPI  H11Y19661   4.119   2.202   8.951  0.7628  1.3677 -0.6259
  173SAPI  C31219662   4.296   2.093   8.886  0.0155 -0.3830 -1.1060
  173SAPI  H12X19663   4.247   2.011   8.830 -1.2873 -0.5167  0.1636
  173SAPI  H12Y19664   4.385   2.058   8.942 -0.6114  1.1202  0.9648
  173SAPI  C31319665   4.335   2.191   8.769  0.2814  0.1236 -0.0755
  173SAPI  H13X19666   4.242   2.225   8.717  0.2105 -0.5513 -0.3947
  173SAPI  H13Y19667   4.390   2.130   8.695 -2.6212  0.6459 -2.9233
  173SAPI  C31419668   4.412   2.317   8.825  0.5913  0.2136  1.4435
  173SAPI  H14X19669   4.517   2.282   8.830  0.6160 -0.0820 -0.3672
  173SAPI  H14Y19670   4.386   2.340   8.930  1.1446 -0.3343  1.7045
  173SAPI  C31519671   4.394   2.454   8.755  0.3540  0.4597 -1.2852
  173SAPI  H15X19672   4.421   2.448   8.648  1.7520  0.2193 -0.9320
  173SAPI  H15Y19673   4.459   2.529   8.806 -0.5967 -0.1095  0.9109
  173SAPI  C31619674   4.246   2.507   8.748  0.4645  0.1203  0.6052
  173SAPI  H16X19675   4.200   2.477   8.845 -0.1873 -0.7709  0.0357
  173SAPI  H16Y19676   4.189   2.455   8.668  0.2083  1.5002 -0.1341
  173SAPI  C31719677   4.251   2.662   8.738 -0.2619  0.3025 -0.8935
  173SAPI  H17X19678   4.306   2.693   8.829  0.7903  2.1582 -2.1079
  173SAPI  H17Y19679   4.146   2.698   8.750 -0.2533  0.8576 -2.3001
  173SAPI  C31819680   4.321   2.738   8.622 -0.5996 -0.3529 -0.0796
  173SAPI  H18X19681   4.426   2.704   8.616 -0.7926 -0.6853 -2.6676
  173SAPI  H18Y19682   4.323   2.847   8.643  1.4629 -0.5268  0.8447
  173SAPI  H18Z19683   4.264   2.713   8.530 -2.0304  2.0643  0.0697
  174SAPI   C1219684   0.157   3.455  11.086 -1.0143 -0.0033  0.4286
  174SAPI    H219685   0.244   3.454  11.017 -1.9888  1.3507 -0.8879
  174SAPI    O219686   0.152   3.341  11.170  0.2414 -0.4682  0.3891
  174SAPI   HO219687   0.136   3.271  11.106  2.5963 -0.9440  0.2405
  174SAPI   C1319688   0.166   3.584  11.167  0.2630  0.0380  0.0692
  174SAPI    H319689   0.161   3.674  11.102 -2.1484 -1.1415 -1.5223
  174SAPI    O319690   0.276   3.583  11.251  0.2116 -0.3436 -0.3143
  174SAPI   HO319691   0.340   3.535  11.199 -0.4670 -1.1643 -0.4118
  174SAPI   C1419692   0.043   3.596  11.252  0.1350  0.2827 -0.1299
  174SAPI    H419693   0.045   3.511  11.323  0.1359 -0.4527 -0.9941
  174SAPI    O419694   0.032   3.717  11.332 -0.0646  0.0534  0.2253
  174SAPI   HO419695   0.063   3.681  11.416  3.1709 -3.9494 -2.2452
  174SAPI   C1519696  -0.090   3.584  11.170 -0.0513  0.7306 -0.7884
  174SAPI    H519697  -0.098   3.679  11.113  2.2633  2.1930  1.1252
  174SAPI    O519698  -0.207   3.576  11.267 -0.1329 -0.4016  0.3620
  174SAPI   HO519699  -0.229   3.662  11.301 -1.3386 -0.9055  0.8868
  174SAPI   C1619700  -0.099   3.468  11.076 -0.6288  0.3873  0.2880
  174SAPI    H619701  -0.109   3.367  11.122  0.8843 -0.3111 -0.8479
  174SAPI    O619702  -0.217   3.481  10.997  0.6017  0.0728 -0.8475
  174SAPI   HO619703  -0.235   3.395  10.960  1.1321 -1.0401  1.3209
  174SAPI   C1119704   0.034   3.470  10.989 -0.4682 -0.6081 -0.4182
  174SAPI    H119705   0.048   3.568  10.939  1.5982  0.7499  2.5833
  174SAPI     P19706   0.104   3.340  10.765 -0.2724 -0.1010 -0.0419
  174SAPI   O1319707   0.117   3.199  10.729 -0.0479 -0.3954 -0.1792
  174SAPI   O1419708   0.228   3.419  10.766  0.2681  0.7167 -0.0029
  174SAPI   O1219709   0.042   3.349  10.915  0.1167 -0.2198 -0.2428
  174SAPI   O1119710  -0.003   3.407  10.671 -0.2576 -0.6679 -1.0623
  174SAPI    C119711  -0.134   3.349  10.654  0.0591  0.4653  0.3286
  174SAPI    HA19712  -0.127   3.241  10.680  1.3811 -0.0737 -1.9790
  174SAPI    HB19713  -0.206   3.398  10.724  1.2206 -1.1708  2.8113
  174SAPI    C219714  -0.190   3.350  10.505  0.6166  0.1132 -0.2118
  174SAPI    HS19715  -0.266   3.269  10.495  0.8148 -0.0536 -0.3955
  174SAPI   O2119716  -0.077   3.339  10.419  0.0541 -0.3679 -0.3344
  174SAPI   C2119717  -0.020   3.223  10.407 -0.0978  0.3887 -0.1048
  174SAPI   O2219718  -0.071   3.114  10.431  0.7133  0.0929  0.0433
  174SAPI   C2219719   0.128   3.246  10.370 -0.4304  0.5122  0.1773
  174SAPI   H2R19720   0.172   3.342  10.405 -0.0986  0.7500 -0.8287
  174SAPI   H2S19721   0.181   3.154  10.402  0.0940  0.6254 -0.3327
  174SAPI    C319722  -0.268   3.489  10.471 -0.1517  0.3854  0.0081
  174SAPI    HX19723  -0.194   3.571  10.486  0.3776  0.1629 -1.2100
  174SAPI    HY19724  -0.345   3.506  10.549  1.1983  0.1539  1.4516
  174SAPI   O3119725  -0.332   3.485  10.345 -0.0399 -0.2367 -0.1108
  174SAPI   C3119726  -0.261   3.518  10.242  0.3529 -0.0622 -0.2625
  174SAPI   O3219727  -0.153   3.572  10.236  0.2453 -0.0478  0.0294
  174SAPI   C3219728  -0.350   3.486  10.116  1.0861  0.9753 -0.4973
  174SAPI   H2X19729  -0.444   3.540  10.139  0.5743  0.0189 -0.2793
  174SAPI   H2Y19730  -0.374   3.377  10.119  4.5192 -0.0179 -2.9091
  174SAPI   C2319731   0.147   3.254  10.217  0.1887 -0.1395  0.1239
  174SAPI   H3R19732   0.253   3.279  10.198  0.7925 -2.5182  0.0157
  174SAPI   H3S19733   0.086   3.343  10.192  0.4635  0.5264  1.6917
  174SAPI   C2419734   0.113   3.130  10.135  0.2267 -0.0347  0.1442
  174SAPI   H4R19735   0.111   3.170  10.031 -2.9445  1.1997  0.5685
  174SAPI   H4S19736   0.012   3.088  10.156 -0.1205 -0.3278 -1.8692
  174SAPI   C2519737   0.206   3.016  10.167 -0.2211 -0.6064  0.1031
  174SAPI   H5R19738   0.222   2.997  10.274  0.8414  0.0980  0.0829
  174SAPI   C2619739   0.263   2.933  10.077  0.0761  0.3320  0.1539
  174SAPI   H6R19740   0.330   2.853  10.112 -1.3691 -0.6638  0.7472
  174SAPI   C2719741   0.245   2.937   9.928  0.6131 -0.0235 -0.0182
  174SAPI   H7R19742   0.324   2.993   9.874 -0.5784  1.3826 -0.3682
  174SAPI   H7S19743   0.160   3.002   9.898  0.8977 -0.6121 -2.2957
  174SAPI   C2819744   0.240   2.796   9.867 -0.1243  0.4121 -0.4797
  174SAPI   H8R19745   0.254   2.708   9.932 -0.5273  1.5210  1.1667
  174SAPI   C2919746   0.227   2.770   9.729  0.1796  0.2786  0.3646
  174SAPI   H9R19747   0.232   2.664   9.700 -1.2195 -0.3909  2.3020
  174SAPI  C21019748   0.221   2.880   9.627  0.2663 -0.3584 -0.9099
  174SAPI  H10R19749   0.323   2.911   9.596 -0.2397  0.5044 -1.7454
  174SAPI  H10S19750   0.168   2.967   9.670 -0.1811 -1.4308  0.8078
  174SAPI  C21119751   0.138   2.845   9.511 -0.1370 -0.0593 -0.2233
  174SAPI  H11R19752   0.030   2.832   9.531  0.0977  1.9743  3.1508
  174SAPI  C21219753   0.170   2.854   9.382 -0.0281  0.5610 -0.7399
  174SAPI  H12R19754   0.089   2.840   9.309 -0.2192 -0.9851 -0.2433
  174SAPI  C21319755   0.300   2.888   9.312 -0.0509 -0.0810  0.5339
  174SAPI  H13R19756   0.315   2.800   9.245 -1.2362  0.4600 -0.4926
  174SAPI  H13S19757   0.379   2.886   9.391  1.1822  0.0257 -0.6623
  174SAPI  C21419758   0.300   3.019   9.232 -0.1543  0.0065 -0.8011
  174SAPI  H14R19759   0.313   3.109   9.293 -0.2359 -0.4555 -0.0845
  174SAPI  C21519760   0.278   3.040   9.102  0.1809  0.2260 -0.3643
  174SAPI  H15R19761   0.274   3.140   9.058 -1.0879  0.2825 -0.1650
  174SAPI  C21619762   0.250   2.942   8.996 -0.3660 -0.8678  0.0109
  174SAPI  H16R19763   0.268   2.836   9.023 -0.0135 -1.2476 -1.6107
  174SAPI  H16S19764   0.333   2.960   8.924 -0.9004 -1.8976 -0.8920
  174SAPI  C21719765   0.113   2.964   8.925  0.7695  0.5101 -0.1369
  174SAPI  H17R19766   0.118   3.058   8.865 -0.7942 -0.2304 -1.5162
  174SAPI  H17S19767   0.028   2.983   8.994  0.4245  2.4878 -1.0233
  174SAPI  C21819768   0.071   2.855   8.827  0.1633 -0.5650 -0.4670
  174SAPI  H18R19769  -0.002   2.904   8.758 -0.1673  2.8159  2.0556
  174SAPI  H18S19770   0.009   2.773   8.868 -0.4203  0.7058  1.3244
  174SAPI  C21919771   0.182   2.786   8.751 -0.3242 -0.4365 -0.0343
  174SAPI  H19R19772   0.241   2.713   8.809 -0.2968 -0.8048 -0.5235
  174SAPI  H19S19773   0.256   2.861   8.715  1.3725 -1.5831  0.9422
  174SAPI  C22019774   0.127   2.707   8.631  0.7247 -0.3044 -0.5627
  174SAPI  H20R19775   0.084   2.773   8.552  1.0665  0.6957  0.0644
  174SAPI  H20S19776   0.049   2.638   8.671 -0.5437  2.1511  1.5119
  174SAPI  H20T19777   0.198   2.635   8.586 -0.3690 -1.9175  0.1870
  174SAPI   C3319778  -0.290   3.517   9.974 -0.9977  0.3008  0.1770
  174SAPI   H3X19779  -0.183   3.491   9.962 -0.7754  1.5490 -0.8251
  174SAPI   H3Y19780  -0.295   3.628   9.968  0.5721  0.3657 -0.1847
  174SAPI   C3419781  -0.374   3.449   9.867 -0.0197 -0.1113  0.5393
  174SAPI   H4X19782  -0.478   3.488   9.874 -0.7752 -2.1984  1.8014
  174SAPI   H4Y19783  -0.390   3.342   9.888 -3.1899  0.4982  1.8295
  174SAPI   C3519784  -0.313   3.487   9.728 -0.0256 -0.4469 -0.1524
  174SAPI   H5X19785  -0.212   3.446   9.708 -0.0751 -0.6605  0.0290
  174SAPI   H5Y19786  -0.298   3.597   9.731 -0.3667 -0.3940  2.6567
  174SAPI   C3619787  -0.413   3.468   9.610  0.5106  0.2451  0.4023
  174SAPI   H6X19788  -0.511   3.506   9.646  0.9117 -0.8785  2.9051
  174SAPI   H6Y19789  -0.432   3.362   9.584  1.1211  0.7983 -2.6775
  174SAPI   C3719790  -0.362   3.522   9.480  0.6033  0.6300 -0.1413
  174SAPI   H7X19791  -0.255   3.494   9.475  0.0463 -1.5423 -1.0628
  174SAPI   H7Y19792  -0.374   3.632   9.489 -0.9413  0.4097  0.8209
  174SAPI   C3819793  -0.431   3.462   9.355 -0.0700 -0.1019  0.3673
  174SAPI   H8X19794  -0.541   3.455   9.371 -0.4718  3.4175 -0.0607
  174SAPI   H8Y19795  -0.388   3.362   9.335  2.3954  1.4307 -3.0064
  174SAPI   C3919796  -0.412   3.555   9.233 -1.0302 -0.6394 -0.6881
  174SAPI   H9X19797  -0.302   3.549   9.222 -0.9177 -0.3168  0.2119
  174SAPI   H9Y19798  -0.443   3.660   9.247 -2.0999 -0.6493 -2.6326
  174SAPI  C31019799  -0.482   3.500   9.115  0.1435  0.0684  0.0460
  174SAPI  H10X19800  -0.588   3.530   9.129  0.6168  1.9471 -0.1536
  174SAPI  H10Y19801  -0.472   3.389   9.110  1.1231  0.1913 -1.5975
  174SAPI  C31119802  -0.439   3.542   8.973  0.0996 -0.3747  0.0104
  174SAPI  H11X19803  -0.329   3.533   8.964 -0.0609 -0.6182 -2.4117
  174SAPI  H11Y19804  -0.448   3.653   8.964 -0.2728 -0.5156 -1.7126
  174SAPI  C31219805  -0.513   3.473   8.866  0.3500  0.3037  0.2706
  174SAPI  H12X19806  -0.622   3.483   8.887  0.2879  1.1680 -0.4151
  174SAPI  H12Y19807  -0.483   3.366   8.872  2.6485  0.5654 -3.4132
  174SAPI  C31319808  -0.471   3.528   8.726 -0.5717  0.5288  0.2110
  174SAPI  H13X19809  -0.361   3.546   8.728 -0.5772  0.6776 -0.5690
  174SAPI  H13Y19810  -0.518   3.629   8.720  2.5250  2.0523 -0.4554
  174SAPI  C31419811  -0.525   3.449   8.603 -0.9423 -0.0614  0.3184
  174SAPI  H14X19812  -0.496   3.497   8.507 -1.9460 -2.0543 -1.0528
  174SAPI  H14Y19813  -0.633   3.424   8.602 -0.7085 -1.1757 -1.3024
  174SAPI  C31519814  -0.441   3.314   8.595  0.4024 -0.2982 -0.3636
  174SAPI  H15X19815  -0.444   3.263   8.694 -0.3559  1.0565  0.3368
  174SAPI  H15Y19816  -0.335   3.342   8.578  0.0801  0.5204 -1.0525
  174SAPI  C31619817  -0.490   3.215   8.487 -0.8478 -0.6541 -0.5551
  174SAPI  H16X19818  -0.446   3.253   8.392  0.9747  0.8671  0.7803
  174SAPI  H16Y19819  -0.600   3.205   8.476 -1.0011 -1.1215  1.2001
  174SAPI  C31719820  -0.437   3.079   8.498 -0.0963  0.5539  0.1677
  174SAPI  H17X19821  -0.493   3.008   8.434  0.8792 -1.1680  1.1253
  174SAPI  H17Y19822  -0.466   3.038   8.597 -1.8097 -1.6557 -1.1573
  174SAPI  C31819823  -0.293   3.068   8.462 -1.1666 -0.0968 -0.3298
  174SAPI  H18X19824  -0.276   2.966   8.421  1.0633 -0.7735  1.9442
  174SAPI  H18Y19825  -0.221   3.067   8.547  0.4592 -2.3293 -1.6081
  174SAPI  H18Z19826  -0.260   3.133   8.379  1.4469  0.4834  1.0521
  175SAPI   C1219827   3.520   0.357   6.045  0.1724  0.6378 -0.2305
  175SAPI    H219828   3.415   0.392   6.049 -0.2810 -0.6255 -0.5668
  175SAPI    O219829   3.528   0.256   5.948 -0.2476 -0.2436 -0.1455
  175SAPI   HO219830   3.446   0.209   5.932 -1.1693  1.5126 -0.9340
  175SAPI   C1319831   3.592   0.484   5.999 -0.3829  0.0116 -0.0927
  175SAPI    H319832   3.594   0.562   6.078  0.5918 -0.0840 -0.0065
  175SAPI    O319833   3.530   0.539   5.881 -0.6826  0.0654  0.1992
  175SAPI   HO319834   3.543   0.480   5.806 -0.3052  0.6305 -0.1934
  175SAPI   C1419835   3.738   0.459   5.977 -0.6262 -0.1629 -0.0329
  175SAPI    H419836   3.764   0.387   5.896  2.1541  1.4442 -0.7050
  175SAPI    O419837   3.804   0.575   5.936 -0.2008 -0.1114  0.7495
  175SAPI   HO419838   3.758   0.609   5.859  0.8522  1.6647  0.8608
  175SAPI   C1519839   3.799   0.394   6.103 -0.0116  0.6180  0.8494
  175SAPI    H519840   3.800   0.469   6.185 -1.8114  1.4338  0.1514
  175SAPI    O519841   3.937   0.364   6.071 -0.6113 -0.0847  0.1051
  175SAPI   HO519842   3.986   0.313   6.135 -0.9037  0.9146  1.1572
  175SAPI   C1619843   3.724   0.265   6.153  0.4321  0.7763 -0.1725
  175SAPI    H619844   3.742   0.187   6.076  2.7423  2.3847 -1.4065
  175SAPI    O619845   3.781   0.221   6.276 -0.7629  0.3435 -0.1635
  175SAPI   HO619846   3.858   0.172   6.246 -0.6060  1.8118 -2.3345
  175SAPI   C1119847   3.578   0.307   6.176  0.5657 -0.2756 -0.0086
  175SAPI    H119848   3.578   0.395   6.244  2.5031 -0.4978  0.3257
  175SAPI     P19849   3.359   0.233   6.309 -0.0907 -0.0845  0.4199
  175SAPI   O1319850   3.266   0.124   6.317  0.0782 -0.0685 -0.8937
  175SAPI   O1419851   3.295   0.359   6.252  0.0061 -0.1967 -0.0339
  175SAPI   O1219852   3.495   0.197   6.229 -0.2385  0.0611  0.0281
  175SAPI   O1119853   3.407   0.252   6.460  0.2532  0.5835 -0.3735
  175SAPI    C119854   3.534   0.211   6.512  0.4732  0.4941 -0.1993
  175SAPI    HA19855   3.548   0.103   6.490  1.2818  0.3137  1.0546
  175SAPI    HB19856   3.609   0.272   6.458  0.1168  1.2805  0.1778
  175SAPI    C219857   3.545   0.244   6.661  0.2289  0.0430 -0.0608
  175SAPI    HS19858   3.643   0.200   6.692 -0.7982 -1.8145  0.7217
  175SAPI   O2119859   3.436   0.187   6.743 -0.3356 -1.1493  0.3111
  175SAPI   C2119860   3.428   0.059   6.750  0.2183 -0.0251  0.4212
  175SAPI   O2219861   3.500  -0.024   6.702 -0.5067  0.9217  0.3151
  175SAPI   C2219862   3.308   0.025   6.843 -0.2671  0.1279 -0.3557
  175SAPI   H2R19863   3.243   0.114   6.858  0.5323  0.8333 -0.9450
  175SAPI   H2S19864   3.247  -0.053   6.792 -1.1120  0.9604 -0.6543
  175SAPI    C319865   3.564   0.395   6.681  0.5484  0.4934  0.3179
  175SAPI    HX19866   3.493   0.447   6.614  1.5352 -1.2409 -2.2328
  175SAPI    HY19867   3.659   0.422   6.631  0.4787  0.1703  0.0087
  175SAPI   O3119868   3.554   0.440   6.816 -0.0619  0.1451  0.6272
  175SAPI   C3119869   3.639   0.387   6.904 -0.2885  0.3159 -0.3409
  175SAPI   O3219870   3.734   0.316   6.880  0.2078  0.1523 -0.2399
  175SAPI   C3219871   3.598   0.435   7.045 -0.0064 -0.1590  0.0559
  175SAPI   H2X19872   3.488   0.430   7.057 -0.2415  2.3098 -0.5371
  175SAPI   H2Y19873   3.625   0.543   7.052 -0.8068  0.5508 -4.6210
  175SAPI   C2319874   3.352  -0.033   6.983  0.3646  0.2150  0.2263
  175SAPI   H3R19875   3.400  -0.133   6.973  1.0712  0.7391 -2.3181
  175SAPI   H3S19876   3.255  -0.068   7.025 -1.7950 -0.1964 -4.4140
  175SAPI   C2419877   3.417   0.067   7.079  0.3082 -0.9495 -0.2903
  175SAPI   H4R19878   3.501   0.114   7.024  2.2239 -5.8224 -2.0818
  175SAPI   H4S19879   3.469   0.014   7.162 -0.2991  1.4686  1.7550
  175SAPI   C2519880   3.321   0.169   7.135  0.3341 -0.0421 -0.4033
  175SAPI   H5R19881   3.289   0.242   7.059 -0.9895  0.4045  0.5535
  175SAPI   C2619882   3.265   0.178   7.258 -0.1956 -0.3481 -0.3022
  175SAPI   H6R19883   3.200   0.265   7.278  0.7925  0.3943 -0.2178
  175SAPI   C2719884   3.285   0.085   7.370  0.1900  0.2383  0.3155
  175SAPI   H7R19885   3.372   0.119   7.431  1.0823 -2.5797  0.7896
  175SAPI   H7S19886   3.304  -0.017   7.330 -1.6805 -0.7376  1.7592
  175SAPI   C2819887   3.154   0.064   7.448  0.3747  0.1647 -0.0237
  175SAPI   H8R19888   3.071   0.031   7.384  1.5896  0.1147 -1.6487
  175SAPI   C2919889   3.132   0.104   7.574 -0.6526 -0.2043  0.0355
  175SAPI   H9R19890   3.030   0.097   7.614 -0.1938  2.5120  1.9208
  175SAPI  C21019891   3.225   0.179   7.664  0.1384  0.5173 -0.2835
  175SAPI  H10R19892   3.167   0.232   7.742 -1.8492 -0.5727 -0.9493
  175SAPI  H10S19893   3.283   0.261   7.615 -0.4191  0.0186 -1.8350
  175SAPI  C21119894   3.322   0.082   7.730 -0.5081 -0.6837  0.4826
  175SAPI  H11R19895   3.420   0.066   7.684 -0.0078 -0.2164  1.3596
  175SAPI  C21219896   3.297   0.004   7.836  1.0615 -0.6353 -0.0378
  175SAPI  H12R19897   3.370  -0.068   7.875  0.1692 -1.2306  0.5711
  175SAPI  C21319898   3.159  -0.007   7.900 -0.2054  0.0384 -0.2004
  175SAPI  H13R19899   3.078   0.038   7.839 -1.5337 -2.5260 -0.4853
  175SAPI  H13S19900   3.162   0.050   7.995 -0.7022  0.5472 -0.4833
  175SAPI  C21419901   3.136  -0.156   7.929 -0.2375  0.5132  0.1045
  175SAPI  H14R19902   3.133  -0.216   7.836 -2.8634 -0.5822  0.8208
  175SAPI  C21519903   3.136  -0.226   8.046  1.1472 -0.3566  0.5572
  175SAPI  H15R19904   3.106  -0.332   8.039 -2.6308  0.6232 -0.2374
  175SAPI  C21619905   3.167  -0.171   8.183 -0.8457 -0.2013 -0.3862
  175SAPI  H16R19906   3.109  -0.223   8.263 -1.9364  0.0357 -1.0054
  175SAPI  H16S19907   3.130  -0.067   8.191  1.3209  0.5029  1.5711
  175SAPI  C21719908   3.321  -0.169   8.210 -0.1921  0.6252  0.1885
  175SAPI  H17R19909   3.389  -0.137   8.127  0.9657  0.3488  1.0035
  175SAPI  H17S19910   3.346  -0.275   8.229  2.2571  1.0534 -0.2417
  175SAPI  C21819911   3.365  -0.096   8.339  0.2181 -0.1187 -0.1632
  175SAPI  H18R19912   3.472  -0.116   8.359  0.1778 -1.2538 -1.0019
  175SAPI  H18S19913   3.303  -0.145   8.418  1.2888 -2.0544 -0.4437
  175SAPI  C21919914   3.345   0.059   8.331 -1.0439 -0.6711  0.1432
  175SAPI  H19R19915   3.240   0.070   8.295 -0.8262  0.7448 -0.1241
  175SAPI  H19S19916   3.409   0.112   8.258 -1.2682 -0.3164  0.2034
  175SAPI  C22019917   3.362   0.130   8.464 -0.2110  0.5334 -0.1749
  175SAPI  H20R19918   3.283   0.106   8.538 -0.5244 -0.7979 -0.9074
  175SAPI  H20S19919   3.349   0.240   8.460 -2.2708  0.3155 -3.7937
  175SAPI  H20T19920   3.462   0.114   8.512 -0.9262  1.3867  1.7061
  175SAPI   C3319921   3.663   0.342   7.147  0.4929  0.0695  0.2190
  175SAPI   H3X19922   3.773   0.351   7.156  0.6102 -0.6576 -0.4352
  175SAPI   H3Y19923   3.637   0.236   7.128 -2.2788  0.7813 -0.3877
  175SAPI   C3419924   3.599   0.365   7.290 -0.9987  0.3903 -0.4631
  175SAPI   H4X19925   3.490   0.342   7.297 -0.8367 -1.4200 -2.5494
  175SAPI   H4Y19926   3.607   0.474   7.312 -0.2154  0.3079 -0.3278
  175SAPI   C3519927   3.679   0.288   7.400  0.9885  0.5463  0.2150
  175SAPI   H5X19928   3.786   0.308   7.376  0.9759 -0.7036 -0.9837
  175SAPI   H5Y19929   3.659   0.179   7.395  0.0625  0.7543 -0.8163
  175SAPI   C3619930   3.650   0.332   7.546 -0.1355 -0.3060 -0.6918
  175SAPI   H6X19931   3.543   0.331   7.573 -0.1383  1.1988 -0.5480
  175SAPI   H6Y19932   3.705   0.428   7.556  3.1032 -1.8709 -2.0213
  175SAPI   C3719933   3.732   0.249   7.640 -0.3878  0.9996  0.3811
  175SAPI   H7X19934   3.841   0.272   7.640  0.6508 -2.9920 -1.4787
  175SAPI   H7Y19935   3.736   0.141   7.612  0.6805 -0.1599  4.3426
  175SAPI   C3819936   3.687   0.253   7.789  0.2960  0.0994 -0.0576
  175SAPI   H8X19937   3.578   0.241   7.805  0.4948 -2.6857 -0.3135
  175SAPI   H8Y19938   3.721   0.347   7.838  0.5874  0.0992 -0.2541
  175SAPI   C3919939   3.750   0.136   7.871  0.6558 -0.1237 -0.2756
  175SAPI   H9X19940   3.856   0.123   7.839  0.8580 -0.4439  0.4948
  175SAPI   H9Y19941   3.700   0.048   7.826 -0.2698 -0.8325  1.9562
  175SAPI  C31019942   3.718   0.130   8.026  0.0634 -0.1031 -0.1884
  175SAPI  H10X19943   3.709   0.025   8.060  0.4558  0.1110  0.5858
  175SAPI  H10Y19944   3.623   0.181   8.053  0.8976  0.0217  2.8269
  175SAPI  C31119945   3.831   0.187   8.121 -0.0219  0.7130 -0.6717
  175SAPI  H11X19946   3.927   0.180   8.065  1.7837 -0.0169  2.3059
  175SAPI  H11Y19947   3.846   0.131   8.215 -2.8423 -2.0459 -1.6601
  175SAPI  C31219948   3.813   0.337   8.163  0.5114  0.0326  0.0346
  175SAPI  H12X19949   3.728   0.353   8.233  0.3706  0.5472 -0.2456
  175SAPI  H12Y19950   3.788   0.384   8.065 -1.0141  0.9339  0.8188
  175SAPI  C31319951   3.945   0.401   8.218  0.3288  0.0255 -0.6301
  175SAPI  H13X19952   3.926   0.509   8.237 -0.2389 -0.2879  0.7418
  175SAPI  H13Y19953   4.029   0.390   8.146  0.5167 -2.9676 -0.0784
  175SAPI  C31419954   3.997   0.344   8.353 -0.2641  0.4708  0.6887
  175SAPI  H14X19955   4.106   0.361   8.371  1.0750 -2.7860 -2.8820
  175SAPI  H14Y19956   3.984   0.234   8.353 -3.0022  0.7335  1.6353
  175SAPI  C31519957   3.923   0.394   8.482  0.1118  0.0350  0.1229
  175SAPI  H15X19958   3.881   0.496   8.466 -1.3162 -0.4006  0.9554
  175SAPI  H15Y19959   3.998   0.413   8.561 -0.2862  1.0371  0.2763
  175SAPI  C31619960   3.822   0.298   8.544  0.1455 -0.2433  0.0186
  175SAPI  H16X19961   3.754   0.251   8.470 -0.4144  0.1348  0.2816
  175SAPI  H16Y19962   3.755   0.345   8.619  0.2818 -2.8667  1.9130
  175SAPI  C31719963   3.880   0.170   8.612 -0.5306  0.0681  0.4416
  175SAPI  H17X19964   3.933   0.185   8.708  0.5780  0.5446 -0.2270
  175SAPI  H17Y19965   3.968   0.144   8.551 -1.0039 -1.2878  0.3124
  175SAPI  C31819966   3.787   0.050   8.615  0.0457 -0.1154  0.0126
  175SAPI  H18X19967   3.686   0.087   8.644  0.1536  1.0729 -1.0329
  175SAPI  H18Y19968   3.825  -0.025   8.688 -0.7515 -1.1456 -0.6032
  175SAPI  H18Z19969   3.774   0.011   8.512  0.6536 -0.5409  0.0886
  176SAPI   C1219970   1.487   6.262   6.191 -0.7121  0.5268 -0.0255
  176SAPI    H219971   1.389   6.307   6.164 -0.1167  1.6714 -0.3658
  176SAPI    O219972   1.468   6.139   6.241  0.6566  0.2811  0.1563
  176SAPI   HO219973   1.542   6.109   6.293 -0.5210 -2.0766  0.6159
  176SAPI   C1319974   1.575   6.251   6.063  0.1577 -0.0284 -0.1508
  176SAPI    H319975   1.577   6.353   6.019 -1.4206  0.4205  0.7221
  176SAPI    O319976   1.516   6.167   5.967  0.0893  0.5143 -0.6103
  176SAPI   HO319977   1.533   6.078   6.000  0.1658  0.6846 -0.1788
  176SAPI   C1419978   1.718   6.201   6.106 -0.0189  0.0296 -0.7237
  176SAPI    H419979   1.703   6.106   6.163 -0.5981 -0.6703 -2.0027
  176SAPI    O419980   1.797   6.168   5.991 -0.1221  0.3273  0.1650
  176SAPI   HO419981   1.836   6.081   5.998  0.9950  0.7442 -0.5221
  176SAPI   C1519982   1.786   6.302   6.208  0.7103 -0.4711  0.4361
  176SAPI    H519983   1.796   6.403   6.165  1.3400 -0.6458  0.1620
  176SAPI    O519984   1.920   6.261   6.242  0.0604  0.9024 -0.2129
  176SAPI   HO519985   1.926   6.166   6.252 -3.2512  0.2873 -2.4171
  176SAPI   C1619986   1.696   6.318   6.333  0.2267 -0.4510 -0.9364
  176SAPI    H619987   1.681   6.221   6.385 -5.2744  1.0399  0.9049
  176SAPI    O619988   1.737   6.418   6.426  0.2928 -0.2553  0.4965
  176SAPI   HO619989   1.656   6.465   6.444 -0.2802 -1.1759  0.3728
  176SAPI   C1119990   1.555   6.358   6.289  0.1246  0.2735  0.1859
  176SAPI    H119991   1.558   6.454   6.234  0.0463  0.2387  0.1205
  176SAPI     P19992   1.367   6.501   6.424 -0.3838  0.0618  0.0010
  176SAPI   O1319993   1.299   6.531   6.295  0.2274  0.2611  0.2372
  176SAPI   O1419994   1.446   6.611   6.483  0.4532 -0.2575 -0.4093
  176SAPI   O1219995   1.477   6.372   6.403  0.2706  0.2391  0.1411
  176SAPI   O1119996   1.269   6.437   6.529 -0.2398 -0.5558  0.0300
  176SAPI    C119997   1.310   6.387   6.654  0.5762 -0.2251 -0.6517
  176SAPI    HA19998   1.305   6.276   6.656 -1.3809 -0.2195 -2.2940
  176SAPI    HB19999   1.417   6.409   6.675  0.4435  1.6805 -1.7093
  176SAPI    C220000   1.242   6.468   6.774 -0.3039  0.0572  0.0443
  176SAPI    HS20001   1.134   6.476   6.750 -0.3852 -1.7821 -0.3076
  176SAPI   O2120002   1.307   6.594   6.792 -0.1133  0.3172  0.1248
  176SAPI   C2120003   1.266   6.695   6.724 -0.2030  0.4038  0.0743
  176SAPI   O2220004   1.182   6.702   6.635  0.3514  0.5110  0.0861
  176SAPI   C2220005   1.350   6.814   6.765 -0.4579  0.6688 -0.3362
  176SAPI   H2R20006   1.446   6.810   6.709  1.1528  0.7005  2.2451
  176SAPI   H2S20007   1.288   6.901   6.735 -0.3920  2.3087  3.6831
  176SAPI    C320008   1.248   6.398   6.914 -0.3179  0.4264  0.1851
  176SAPI    HX20009   1.206   6.466   6.991 -0.0099  0.4312  0.3510
  176SAPI    HY20010   1.355   6.377   6.938 -0.7037 -2.2700 -0.0629
  176SAPI   O3120011   1.179   6.272   6.920 -1.0270  0.2847  0.1384
  176SAPI   C3120012   1.204   6.208   7.028  0.7177 -0.8579  0.5611
  176SAPI   O3220013   1.230   6.256   7.136 -0.1081 -0.0118 -0.0061
  176SAPI   C3220014   1.184   6.056   7.007  0.3730  0.5985  0.1013
  176SAPI   H2X20015   1.234   6.024   6.913  0.9647  2.0336 -0.0983
  176SAPI   H2Y20016   1.081   6.024   6.982  2.1232 -4.7428 -1.7109
  176SAPI   C2320017   1.375   6.821   6.918  0.0178 -0.3003 -0.4119
  176SAPI   H3R20018   1.336   6.730   6.968  0.7633 -1.8020 -2.4410
  176SAPI   H3S20019   1.325   6.912   6.957 -0.6386 -0.8339  0.0085
  176SAPI   C2420020   1.527   6.837   6.961  0.4754  0.6756  0.2339
  176SAPI   H4R20021   1.526   6.833   7.072 -0.6329 -1.0635  0.2056
  176SAPI   H4S20022   1.571   6.931   6.924  1.9652  0.0464  0.3337
  176SAPI   C2520023   1.600   6.715   6.919  0.3144 -0.3850  0.4254
  176SAPI   H5R20024   1.589   6.701   6.811  1.5516 -0.7067  0.3174
  176SAPI   C2620025   1.653   6.617   6.991  0.1112 -0.0782 -1.0714
  176SAPI   H6R20026   1.689   6.528   6.938  1.0797 -0.9193  0.8987
  176SAPI   C2720027   1.667   6.610   7.140 -0.6369 -0.1469 -0.2278
  176SAPI   H7R20028   1.668   6.715   7.177 -1.5907  0.5753 -2.1320
  176SAPI   H7S20029   1.769   6.570   7.156  0.5327  2.6072 -0.1209
  176SAPI   C2820030   1.570   6.521   7.206 -0.4465  0.3091 -0.2290
  176SAPI   H8R20031   1.574   6.417   7.170 -2.0627  1.0464 -2.7722
  176SAPI   C2920032   1.493   6.551   7.316  0.3672  0.1289  0.3927
  176SAPI   H9R20033   1.428   6.467   7.345  0.4275 -0.6807 -1.6272
  176SAPI  C21020034   1.478   6.687   7.385  0.8299  0.1053 -0.1080
  176SAPI  H10R20035   1.535   6.766   7.331  2.3542 -1.7800 -1.3645
  176SAPI  H10S20036   1.511   6.675   7.490 -0.4785  0.7698  0.4081
  176SAPI  C21120037   1.336   6.745   7.374 -0.2257 -0.2754 -0.9824
  176SAPI  H11R20038   1.301   6.790   7.280 -0.0969 -0.7723 -1.2687
  176SAPI  C21220039   1.257   6.746   7.485 -0.2195  0.0379  0.4782
  176SAPI  H12R20040   1.165   6.806   7.491  1.3700  2.5224  1.7773
  176SAPI  C21320041   1.286   6.689   7.622 -0.2459 -0.0644  0.2118
  176SAPI  H13R20042   1.351   6.599   7.612 -0.5616 -0.0281 -3.3397
  176SAPI  H13S20043   1.194   6.648   7.670 -0.5736 -1.0479 -1.1945
  176SAPI  C21420044   1.347   6.784   7.723 -1.0547  0.3578 -0.0962
  176SAPI  H14R20045   1.428   6.846   7.683 -1.0101  0.2723 -0.1373
  176SAPI  C21520046   1.313   6.810   7.847 -0.0084 -0.1455  0.1702
  176SAPI  H15R20047   1.376   6.881   7.902 -0.2847  0.3021 -0.0851
  176SAPI  C21620048   1.199   6.758   7.923  0.2064 -0.0192  0.1511
  176SAPI  H16R20049   1.217   6.657   7.968 -0.0591 -0.5269 -0.8629
  176SAPI  H16S20050   1.105   6.761   7.864 -1.1223 -0.8297  2.0976
  176SAPI  C21720051   1.182   6.853   8.047  0.6424  0.0863  0.3195
  176SAPI  H17R20052   1.153   6.956   8.016 -0.8632  0.0908  1.6366
  176SAPI  H17S20053   1.278   6.863   8.101 -0.6655  0.4731  2.7066
  176SAPI  C21820054   1.073   6.808   8.141 -0.0795 -0.1649 -1.2980
  176SAPI  H18R20055   1.108   6.711   8.181  2.7749  1.8398  1.5099
  176SAPI  H18S20056   0.980   6.799   8.081 -1.1135  1.7789 -0.0693
  176SAPI  C21920057   1.043   6.912   8.251 -0.4083 -0.2163 -0.6610
  176SAPI  H19R20058   1.139   6.932   8.303 -0.4006  0.1232 -0.8041
  176SAPI  H19S20059   0.985   6.850   8.324 -2.1949  0.9691 -1.0173
  176SAPI  C22020060   0.966   7.038   8.220  0.2867 -1.0911 -0.1835
  176SAPI  H20R20061   0.928   7.089   8.311 -0.0636  0.5847 -1.2182
  176SAPI  H20S20062   0.887   7.020   8.144  0.4090 -4.5567  0.3459
  176SAPI  H20T20063   1.043   7.103   8.172 -0.4092 -0.6601 -0.7380
  176SAPI   C3320064   1.242   5.973   7.127  0.0811  0.0374  0.4762
  176SAPI   H3X20065   1.322   6.036   7.173  1.1919 -0.6839 -0.3937
  176SAPI   H3Y20066   1.286   5.880   7.084  0.4885  0.3297  0.2485
  176SAPI   C3420067   1.138   5.922   7.229 -0.4899 -0.4461  0.3077
  176SAPI   H4X20068   1.058   5.854   7.192  0.3785 -0.8704 -0.8357
  176SAPI   H4Y20069   1.094   6.011   7.280 -1.3795 -0.8811  0.3204
  176SAPI   C3520070   1.224   5.843   7.330  0.3716  0.6286 -0.3041
  176SAPI   H5X20071   1.314   5.798   7.284  0.1198  1.9759 -2.2620
  176SAPI   H5Y20072   1.158   5.757   7.354  1.9536 -1.0955 -1.8875
  176SAPI   C3620073   1.267   5.909   7.455  0.7404  0.2683 -0.0962
  176SAPI   H6X20074   1.195   5.976   7.507  1.3129  0.3552  0.6133
  176SAPI   H6Y20075   1.342   5.988   7.431  0.4377  0.6289  0.1300
  176SAPI   C3720076   1.327   5.806   7.558  0.2247  0.0942  0.2041
  176SAPI   H7X20077   1.415   5.759   7.509 -0.6215 -0.2541 -1.0077
  176SAPI   H7Y20078   1.255   5.722   7.562 -2.5840  2.3543  0.5153
  176SAPI   C3820079   1.362   5.874   7.691  0.6038  0.1976  0.5109
  176SAPI   H8X20080   1.268   5.925   7.720 -0.4256 -0.0382 -2.1570
  176SAPI   H8Y20081   1.438   5.953   7.676  0.0604  0.6564  0.1467
  176SAPI   C3920082   1.399   5.768   7.796 -0.7293  0.3246 -0.2030
  176SAPI   H9X20083   1.496   5.719   7.772 -1.6126 -1.3878 -0.4423
  176SAPI   H9Y20084   1.323   5.687   7.798  0.2745 -0.6315 -0.0436
  176SAPI  C31020085   1.419   5.826   7.938  0.8856 -0.9688 -0.8060
  176SAPI  H10X20086   1.489   5.912   7.949 -0.8637  0.3254  1.1265
  176SAPI  H10Y20087   1.465   5.749   8.003  1.5925  0.9521  1.1222
  176SAPI  C31120088   1.282   5.864   8.009 -0.3499 -0.7926 -0.6064
  176SAPI  H11X20089   1.207   5.802   7.957 -3.1334 -0.2908  2.4629
  176SAPI  H11Y20090   1.250   5.970   7.999 -0.9409 -0.9987 -0.8986
  176SAPI  C31220091   1.266   5.832   8.161 -0.0756  0.3173 -0.2236
  176SAPI  H12X20092   1.261   5.721   8.159 -1.3934  0.3697 -1.3282
  176SAPI  H12Y20093   1.163   5.855   8.196 -0.2897  1.8921 -1.7513
  176SAPI  C31320094   1.375   5.910   8.239 -0.0305  0.5899  0.6865
  176SAPI  H13X20095   1.373   6.014   8.200 -0.9405  1.0211  1.8120
  176SAPI  H13Y20096   1.478   5.876   8.218 -0.6746 -0.0496 -1.6759
  176SAPI  C31420097   1.347   5.920   8.389 -0.8947 -0.5360 -0.0115
  176SAPI  H14X20098   1.365   5.825   8.443 -1.3359 -1.4624 -1.4301
  176SAPI  H14Y20099   1.245   5.964   8.396 -0.5230  0.9095 -2.5715
  176SAPI  C31520100   1.455   6.017   8.449  0.0894  0.7027  0.3313
  176SAPI  H15X20101   1.445   6.114   8.395  1.8701  0.1740 -1.0389
  176SAPI  H15Y20102   1.548   5.964   8.421  0.8680  1.8399  0.7264
  176SAPI  C31620103   1.440   6.026   8.596  0.0260  0.8757  0.2805
  176SAPI  H16X20104   1.465   5.925   8.635 -3.0180  0.1240  0.5399
  176SAPI  H16Y20105   1.336   6.051   8.626 -0.3273 -0.9222  0.6539
  176SAPI  C31720106   1.544   6.118   8.669  1.0900  0.4943  0.0845
  176SAPI  H17X20107   1.644   6.095   8.625  1.7493  2.6861  0.2900
  176SAPI  H17Y20108   1.551   6.092   8.777  1.3651  2.0537  0.4747
  176SAPI  C31820109   1.518   6.268   8.650  0.3254 -0.0271  0.2413
  176SAPI  H18X20110   1.528   6.279   8.539  1.4284 -0.4361  0.2803
  176SAPI  H18Y20111   1.591   6.331   8.704  1.0729 -0.3440 -0.3698
  176SAPI  H18Z20112   1.418   6.305   8.679 -0.4583 -0.0826 -2.1555
  177SLPC     N20113   2.878   3.162  10.978 -0.0993  0.1903 -0.1272
  177SLPC   C1320114   2.952   3.270  10.912  0.6965  0.0740 -0.1771
  177SLPC  H13A20115   2.932   3.353  10.978  0.8277 -0.7993  0.9852
  177SLPC  H13B20116   3.054   3.237  10.902  1.1534  1.4198 -0.0529
  177SLPC  H13C20117   2.912   3.288  10.813 -0.3411 -1.5836 -0.1089
  177SLPC   C1420118   2.919   3.151  11.116 -0.4843  0.3232  0.5511
  177SLPC  H14A20119   2.915   3.245  11.168 -1.5390  0.8345 -0.4013
  177SLPC  H14B20120   2.855   3.080  11.165 -0.9155 -0.7955 -1.4817
  177SLPC  H14C20121   3.018   3.107  11.119 -1.6861 -2.6410  0.0830
  177SLPC   C1520122   2.926   3.035  10.918  0.2368 -0.1088  0.0924
  177SLPC  H15A20123   2.910   3.035  10.811 -0.3756 -0.3939  0.1830
  177SLPC  H15B20124   3.034   3.031  10.930  0.4097  0.7823 -0.9657
  177SLPC  H15C20125   2.873   2.949  10.955  0.2299 -0.7435 -1.3369
  177SLPC   C1220126   2.727   3.187  10.973  0.6373  0.5431  0.0514
  177SLPC  H12A20127   2.699   3.282  11.015 -0.1003  0.1914  0.3716
  177SLPC  H12B20128   2.673   3.121  11.039 -2.2965  2.6512 -0.0581
  177SLPC   C1120129   2.660   3.194  10.836 -0.3497  0.3318 -0.6059
  177SLPC  H11A20130   2.676   3.100  10.779 -1.2659  0.5590 -1.2596
  177SLPC  H11B20131   2.699   3.284  10.785 -3.4120  2.2843  0.2409
  177SLPC     P20132   2.417   3.097  10.851 -0.2809 -0.4456  0.0874
  177SLPC   O1320133   2.489   2.969  10.841 -0.1981  0.0766 -0.0738
  177SLPC   O1420134   2.326   3.112  10.965  0.3897  0.4338 -0.4691
  177SLPC   O1220135   2.518   3.219  10.858 -0.0478 -0.1126 -0.0938
  177SLPC   O1120136   2.334   3.114  10.712  0.3289  0.1330  0.3192
  177SLPC    C120137   2.415   3.122  10.592 -0.1041  0.0444 -0.8498
  177SLPC    HA20138   2.374   3.212  10.541 -0.9328  0.1272 -0.0806
  177SLPC    HB20139   2.519   3.148  10.622 -0.2952 -1.0613  0.9400
  177SLPC    C220140   2.408   2.999  10.511  0.0416  0.0715 -0.1904
  177SLPC    HS20141   2.463   2.919  10.565  0.9988  1.1056  0.3762
  177SLPC   O2120142   2.476   3.033  10.390  0.0509 -0.1541 -0.4545
  177SLPC   C2120143   2.542   2.933  10.332 -0.8022  0.4075  0.1450
  177SLPC   O2220144   2.558   2.819  10.383  0.4198 -0.4061  0.8744
  177SLPC   C2220145   2.594   2.980  10.205  0.3239 -0.1694  0.2195
  177SLPC   H2R20146   2.546   3.075  10.175 -1.1489 -0.7196  0.7486
  177SLPC   H2S20147   2.702   3.004  10.205  0.6528 -1.5442  0.7058
  177SLPC    C320148   2.258   2.960  10.477 -0.6851  0.5109 -0.3215
  177SLPC    HX20149   2.193   3.039  10.435 -2.1032  0.1269  1.0703
  177SLPC    HY20150   2.222   2.963  10.582  0.2730 -2.0751  0.1538
  177SLPC   O3120151   2.237   2.825  10.409 -0.2416  0.4267  0.2007
  177SLPC   C3120152   2.193   2.823  10.285  0.2120 -0.3231  0.6142
  177SLPC   O3220153   2.165   2.921  10.222  0.0463  0.4552  0.3645
  177SLPC   C3220154   2.174   2.676  10.228 -0.0006  0.1982 -0.1429
  177SLPC   H2X20155   2.162   2.604  10.312  1.3254 -0.5925 -0.5938
  177SLPC   H2Y20156   2.278   2.658  10.191  0.3049  0.0365  0.7798
  177SLPC   C2320157   2.561   2.884  10.088 -0.1796 -0.0806  0.4406
  177SLPC   H3R20158   2.454   2.871  10.061  0.1485  0.5432 -1.2776
  177SLPC   H3S20159   2.600   2.783  10.115  0.0531 -0.9408 -2.6856
  177SLPC   C2420160   2.659   2.926   9.977  0.0653  0.1988 -0.4951
  177SLPC   H4R20161   2.763   2.920  10.016 -0.6388  1.6834  1.7878
  177SLPC   H4S20162   2.654   3.034   9.953  1.2236  0.2503 -0.5628
  177SLPC   C2520163   2.643   2.843   9.845  0.4766 -0.1037  0.1162
  177SLPC   H5R20164   2.542   2.839   9.799  0.9047 -0.4289 -0.8141
  177SLPC   H5S20165   2.658   2.734   9.859  0.7213 -0.5699 -3.1494
  177SLPC   C2620166   2.730   2.892   9.736 -0.7085  0.1226 -0.2339
  177SLPC   H6R20167   2.834   2.855   9.747 -0.7945 -0.2264 -0.5584
  177SLPC   H6S20168   2.732   3.003   9.738 -2.1408  0.1517  0.4974
  177SLPC   C2720169   2.673   2.843   9.608  0.3715  0.1803 -0.5554
  177SLPC   H7R20170   2.565   2.868   9.609 -0.0846 -1.6991 -0.5429
  177SLPC   H7S20171   2.686   2.733   9.608  0.3978  0.1844 -0.3335
  177SLPC   C2820172   2.741   2.903   9.481  0.2287  0.7285  0.3259
  177SLPC   H8R20173   2.851   2.892   9.478  0.0671 -1.1541 -0.6002
  177SLPC   H8S20174   2.725   3.012   9.497  1.0823  0.4982  3.4259
  177SLPC   C2920175   2.688   2.860   9.343 -0.1323  0.6962 -0.1983
  177SLPC   H9R20176   2.642   2.760   9.342  0.8636  0.1713  1.5901
  177SLPC  C21020177   2.676   2.937   9.232 -0.9226 -0.4853 -0.2053
  177SLPC  H10R20178   2.640   2.880   9.145  0.6228 -1.3606 -0.3043
  177SLPC  C21120179   2.714   3.083   9.213  0.2996  0.0700 -0.0420
  177SLPC  H11R20180   2.621   3.144   9.218  1.1096  1.2771  1.4055
  177SLPC  H11S20181   2.765   3.125   9.302  2.3964  2.1228 -2.0816
  177SLPC  C21220182   2.802   3.112   9.092  0.1124 -0.0117 -0.0410
  177SLPC  H12R20183   2.803   3.039   9.010 -1.3632  0.8070 -0.8443
  177SLPC  C21320184   2.866   3.227   9.072  0.0317 -0.6438  0.0882
  177SLPC  H13R20185   2.932   3.249   8.987  0.9243  3.2073  1.6018
  177SLPC  C21420186   2.866   3.338   9.172  0.3904  0.2143 -0.0903
  177SLPC  H14R20187   2.961   3.346   9.230 -0.2494 -1.1984  1.2382
  177SLPC  H14S20188   2.782   3.322   9.243  0.0814  0.1897 -0.4583
  177SLPC  C21520189   2.835   3.471   9.102 -0.4454  0.1591  0.4232
  177SLPC  H15R20190   2.897   3.478   9.009  0.3738 -2.7921  0.6441
  177SLPC  H15S20191   2.869   3.564   9.152  2.5751  0.6141 -2.1571
  177SLPC  C21620192   2.687   3.478   9.070 -0.6358  1.2559  0.7985
  177SLPC  H16R20193   2.636   3.483   9.168 -2.9269 -0.5913 -0.2255
  177SLPC  H16S20194   2.658   3.377   9.033  1.3536  0.0274  2.4035
  177SLPC  C21720195   2.643   3.590   8.970 -0.6528 -0.5650  0.1998
  177SLPC  H17R20196   2.671   3.692   9.006 -0.8635 -0.0878 -0.9408
  177SLPC  H17S20197   2.532   3.587   8.973 -0.6152 -1.2697  1.0528
  177SLPC  C21820198   2.687   3.568   8.824 -0.5470  0.8798 -0.0794
  177SLPC  H18R20199   2.640   3.647   8.761  0.4200 -1.2019 -3.7027
  177SLPC  H18S20200   2.652   3.470   8.787  0.6269  0.5467 -0.3295
  177SLPC  H18T20201   2.797   3.567   8.807 -0.6552  4.8761 -2.1129
  177SLPC   C3320202   2.065   2.654  10.122  0.0315  0.2300 -0.5089
  177SLPC   H3X20203   1.967   2.697  10.153  0.1166  0.9031 -1.1466
  177SLPC   H3Y20204   2.045   2.545  10.104  0.8328  0.4118 -2.9460
  177SLPC   C3420205   2.104   2.731   9.992  0.0344  0.3655  0.3115
  177SLPC   H4X20206   2.214   2.716   9.983  0.6383  0.5572  5.2080
  177SLPC   H4Y20207   2.087   2.840   9.993  0.9714  0.5238  1.3059
  177SLPC   C3520208   2.029   2.660   9.870  0.5919  0.1231 -0.1586
  177SLPC   H5X20209   1.921   2.680   9.886  0.4751  0.1752 -0.9628
  177SLPC   H5Y20210   2.042   2.550   9.858  2.0011  0.0783  1.4791
  177SLPC   C3620211   2.062   2.721   9.733  0.5070 -0.6948  0.7616
  177SLPC   H6X20212   2.156   2.680   9.689 -0.1731  0.4408 -2.0041
  177SLPC   H6Y20213   2.087   2.827   9.756  0.3841  0.2168 -2.7217
  177SLPC   C3720214   1.943   2.725   9.630 -0.0841  0.3176 -0.7370
  177SLPC   H7X20215   1.870   2.806   9.654  0.3208  0.7222 -0.8543
  177SLPC   H7Y20216   1.892   2.627   9.638  2.8519 -1.3459 -0.9514
  177SLPC   C3820217   1.995   2.736   9.485  1.2195 -0.4508 -0.1437
  177SLPC   H8X20218   2.054   2.649   9.449  1.8383 -1.6275  3.2873
  177SLPC   H8Y20219   2.053   2.829   9.465 -0.9863  1.3526  1.3748
  177SLPC   C3920220   1.872   2.757   9.390  0.2580  0.7683 -0.1950
  177SLPC   H9X20221   1.802   2.833   9.431  1.2435  0.4528  2.2902
  177SLPC   H9Y20222   1.825   2.658   9.368  1.3048 -0.3938  2.3566
  177SLPC  C31020223   1.919   2.801   9.247  0.0666  0.2017  0.0552
  177SLPC  H10X20224   1.989   2.725   9.207  2.0772  2.0712 -0.1542
  177SLPC  H10Y20225   1.969   2.900   9.256  1.8016 -0.7520  1.6690
  177SLPC  C31120226   1.801   2.809   9.153  0.6586 -0.5172 -0.1807
  177SLPC  H11X20227   1.728   2.886   9.187 -1.4570 -1.9314 -1.2606
  177SLPC  H11Y20228   1.742   2.716   9.165  1.0619 -0.8948 -1.0880
  177SLPC  C31220229   1.833   2.804   9.002  0.2471  1.1797 -0.0157
  177SLPC  H12X20230   1.738   2.813   8.946 -0.9315  1.8329  1.9936
  177SLPC  H12Y20231   1.881   2.710   8.969 -2.9457 -0.4314 -0.4834
  177SLPC  C31320232   1.931   2.909   8.950 -0.1691  0.1496 -0.8143
  177SLPC  H13X20233   2.014   2.927   9.021 -0.7685  0.8726 -0.2744
  177SLPC  H13Y20234   1.870   2.996   8.918 -1.2171 -0.5456 -0.7742
  177SLPC  C31420235   1.990   2.863   8.818  0.0052  0.1238 -0.2857
  177SLPC  H14X20236   1.905   2.826   8.756  0.4697  1.2741 -1.6593
  177SLPC  H14Y20237   2.065   2.782   8.831 -0.2974 -0.0744  0.2468
  177SLPC  C31520238   2.047   2.995   8.760  0.7620 -0.3899 -0.4830
  177SLPC  H15X20239   2.146   2.973   8.713 -0.0115 -3.5853 -0.7825
  177SLPC  H15Y20240   2.067   3.065   8.844 -1.1522 -1.2915  0.7799
  177SLPC  C31620241   1.959   3.081   8.664  0.1970  0.1216  0.1529
  177SLPC  H16X20242   1.864   3.104   8.716  0.6302 -1.9653  1.9674
  177SLPC  H16Y20243   1.931   3.021   8.575 -3.2078  1.1686  0.3700
  177SLPC  C31720244   2.028   3.215   8.618 -0.6803 -0.2878  0.1165
  177SLPC  H17X20245   2.128   3.198   8.572 -1.4864  1.1670 -2.3189
  177SLPC  H17Y20246   2.053   3.264   8.714 -3.1883 -0.7185  1.0572
  177SLPC  C31820247   1.936   3.300   8.522  0.0595  0.4162 -0.4868
  177SLPC  H18X20248   1.836   3.319   8.567  0.0826 -0.3429 -0.0971
  177SLPC  H18Y20249   1.916   3.256   8.422 -1.0024  0.8449 -0.4714
  177SLPC  H18Z20250   1.970   3.403   8.498 -1.7101  0.7158 -1.9310
  178SLPC     N20251   1.919   6.331  11.086  0.6571 -0.1846  1.0828
  178SLPC   C1320252   1.977   6.475  11.066  0.5818 -0.4013 -0.6047
  178SLPC  H13A20253   2.014   6.484  10.965 -0.6844  1.3862 -0.9417
  178SLPC  H13B20254   1.902   6.550  11.083 -0.3275 -1.2358 -0.8189
  178SLPC  H13C20255   2.066   6.488  11.125 -0.2607 -1.0557  0.8490
  178SLPC   C1420256   1.863   6.323  11.220 -0.1009  0.1035  0.2169
  178SLPC  H14A20257   1.829   6.222  11.241  1.0391  0.0259  1.8271
  178SLPC  H14B20258   1.936   6.353  11.293 -0.2505 -1.2018  0.9359
  178SLPC  H14C20259   1.779   6.390  11.233 -0.8713 -0.8070  0.1296
  178SLPC   C1520260   2.036   6.232  11.063  0.8196  0.2494  0.0101
  178SLPC  H15A20261   1.983   6.139  11.057  0.5877  0.3723  0.1329
  178SLPC  H15B20262   2.093   6.247  10.972  0.0423 -1.2909 -0.7627
  178SLPC  H15C20263   2.102   6.228  11.148 -1.1732  1.9097  1.7403
  178SLPC   C1220264   1.812   6.304  10.972  0.1027  0.6797 -0.1235
  178SLPC  H12A20265   1.854   6.323  10.875 -2.2270  3.1869 -0.7587
  178SLPC  H12B20266   1.724   6.367  10.975 -1.5407 -1.3434 -2.2794
  178SLPC   C1120267   1.759   6.160  10.962 -0.2277  0.6738 -0.4821
  178SLPC  H11A20268   1.675   6.164  10.890  0.9764  0.6914 -1.9316
  178SLPC  H11B20269   1.721   6.138  11.064  0.2294 -1.1310 -0.6737
  178SLPC     P20270   1.888   6.042  10.771 -0.3260  0.4206 -0.2155
  178SLPC   O1320271   1.993   6.136  10.731 -1.2233 -0.2749 -0.0370
  178SLPC   O1420272   1.925   5.899  10.756  0.2100 -0.1904 -0.1051
  178SLPC   O1220273   1.853   6.062  10.921  0.1990 -0.0333 -0.3438
  178SLPC   O1120274   1.761   6.071  10.692  0.3095 -0.5142  0.1057
  178SLPC    C120275   1.650   5.972  10.687 -0.0701  0.1099 -0.0615
  178SLPC    HA20276   1.633   5.904  10.773 -0.2255 -0.7432 -0.7540
  178SLPC    HB20277   1.555   6.028  10.669 -0.2886  0.1764  1.1923
  178SLPC    C220278   1.656   5.883  10.554 -0.1107  0.5896  0.3144
  178SLPC    HS20279   1.751   5.826  10.557 -0.1028  0.6265  2.4359
  178SLPC   O2120280   1.666   5.977  10.443  0.3514  0.5189 -0.1146
  178SLPC   C2120281   1.730   5.924  10.338 -0.0820  0.5374 -0.3052
  178SLPC   O2220282   1.790   5.818  10.332  0.2204 -0.5205 -0.2800
  178SLPC   C2220283   1.720   6.029  10.225  0.9473  0.4269 -0.6196
  178SLPC   H2R20284   1.681   6.124  10.266  0.7451 -0.6884  1.9718
  178SLPC   H2S20285   1.822   6.044  10.184  1.5225 -1.0143  0.1963
  178SLPC    C320286   1.529   5.785  10.551  0.1872  0.8712  0.1203
  178SLPC    HX20287   1.447   5.846  10.594  0.2856  0.2656  1.2338
  178SLPC    HY20288   1.552   5.702  10.622 -1.6034 -0.4492 -0.7656
  178SLPC   O3120289   1.490   5.732  10.421 -0.2501  0.3402  0.0383
  178SLPC   C3120290   1.527   5.601  10.401  0.5695 -0.2454  0.0624
  178SLPC   O3220291   1.575   5.529  10.484 -0.0582 -0.4013  0.2261
  178SLPC   C3220292   1.493   5.557  10.255  1.0451 -1.0854  0.3909
  178SLPC   H2X20293   1.478   5.646  10.190 -0.4260 -2.3804 -1.1564
  178SLPC   H2Y20294   1.394   5.508  10.264 -0.0068  0.9575  0.5353
  178SLPC   C2320295   1.632   5.980  10.114 -0.3072 -0.0436  0.2480
  178SLPC   H3R20296   1.601   6.064  10.048 -1.0394 -0.5392 -0.0587
  178SLPC   H3S20297   1.531   5.954  10.154 -0.0524 -2.1805 -0.3950
  178SLPC   C2420298   1.690   5.874  10.021 -0.3780  0.4252  0.9315
  178SLPC   H4R20299   1.711   5.792  10.094 -0.4342  0.7951  1.3707
  178SLPC   H4S20300   1.788   5.903   9.977  1.4946 -0.9855  3.8432
  178SLPC   C2520301   1.593   5.817   9.910 -0.0092  0.4171 -0.4049
  178SLPC   H5R20302   1.570   5.899   9.838  1.3140  1.0756 -0.1051
  178SLPC   H5S20303   1.498   5.791   9.961  0.3255 -0.7636 -0.3459
  178SLPC   C2620304   1.649   5.691   9.833  0.4296 -0.0848 -0.7277
  178SLPC   H6R20305   1.677   5.624   9.916  0.3418  2.4084  1.4297
  178SLPC   H6S20306   1.742   5.722   9.782  0.4854 -0.8367 -1.0993
  178SLPC   C2720307   1.550   5.618   9.738 -0.4131  0.4163 -0.0870
  178SLPC   H7R20308   1.514   5.699   9.671  0.0568  0.8823  0.2124
  178SLPC   H7S20309   1.462   5.571   9.785  0.8868 -0.8685  1.1825
  178SLPC   C2820310   1.635   5.519   9.664  0.6441  0.3403  0.4111
  178SLPC   H8R20311   1.650   5.436   9.736 -0.8915 -0.2998  0.0369
  178SLPC   H8S20312   1.730   5.558   9.624 -1.0612  3.4524 -1.0004
  178SLPC   C2920313   1.551   5.469   9.552  0.0906  0.4054 -0.6231
  178SLPC   H9R20314   1.443   5.488   9.547 -0.0460 -0.6158 -3.2699
  178SLPC  C21020315   1.597   5.409   9.444 -0.2807 -0.3532  0.1066
  178SLPC  H10R20316   1.528   5.393   9.360 -0.0767 -2.5552  0.3138
  178SLPC  C21120317   1.736   5.362   9.416  0.2722 -0.2221  0.4051
  178SLPC  H11R20318   1.791   5.307   9.495 -1.3850 -1.6313  0.6278
  178SLPC  H11S20319   1.790   5.459   9.404 -1.8656  0.9233 -0.6748
  178SLPC  C21220320   1.760   5.286   9.286  0.8124  0.1916 -0.5191
  178SLPC  H12R20321   1.752   5.177   9.291  1.6241  0.1663  0.6953
  178SLPC  C21320322   1.776   5.348   9.160 -0.4742 -0.2447 -0.6876
  178SLPC  H13R20323   1.795   5.281   9.076 -1.6989 -0.9971 -0.3894
  178SLPC  C21420324   1.770   5.495   9.122 -0.1725  0.0194 -0.3061
  178SLPC  H14R20325   1.756   5.563   9.208  1.2257  0.6326 -0.5320
  178SLPC  H14S20326   1.677   5.498   9.062 -0.4407 -1.3040  0.0015
  178SLPC  C21520327   1.896   5.538   9.035  0.2482 -1.1267 -0.0026
  178SLPC  H15R20328   1.879   5.641   8.994  1.0455 -1.3169 -0.8496
  178SLPC  H15S20329   1.900   5.467   8.950 -3.7561 -1.7694  0.1385
  178SLPC  C21620330   2.030   5.533   9.117  0.4628  0.9231 -0.5022
  178SLPC  H16R20331   2.049   5.426   9.141  2.7518  0.8244 -2.3719
  178SLPC  H16S20332   2.011   5.582   9.215 -0.0673 -0.1382 -0.0539
  178SLPC  C21720333   2.146   5.604   9.047 -0.5252 -0.3672 -0.1131
  178SLPC  H17R20334   2.128   5.713   9.051  1.1564  0.0479 -2.1732
  178SLPC  H17S20335   2.144   5.561   8.944  1.9104 -2.5271  0.6173
  178SLPC  C21820336   2.283   5.575   9.109  0.5346 -0.2724  0.1021
  178SLPC  H18R20337   2.319   5.470   9.107  0.4533 -0.2939 -0.5375
  178SLPC  H18S20338   2.286   5.594   9.218  0.1098 -1.0185  0.2504
  178SLPC  H18T20339   2.368   5.632   9.065  1.3428  0.0847  2.0187
  178SLPC   C3320340   1.606   5.464  10.200 -0.6252 -0.5667 -0.8698
  178SLPC   H3X20341   1.635   5.398  10.284 -4.2273  0.8812  1.7919
  178SLPC   H3Y20342   1.697   5.525  10.184  0.7096 -1.2616  3.0831
  178SLPC   C3420343   1.567   5.376  10.076 -0.2213  0.0248 -0.3901
  178SLPC   H4X20344   1.656   5.313  10.056  1.0078  1.5043  0.2192
  178SLPC   H4Y20345   1.541   5.439   9.988 -0.1828  1.2591  0.4540
  178SLPC   C3520346   1.445   5.289  10.096  0.0683  0.7241 -0.0969
  178SLPC   H5X20347   1.403   5.301  10.198  1.5288  2.5050  0.3516
  178SLPC   H5Y20348   1.474   5.182  10.084  0.7716  0.9258 -0.2276
  178SLPC   C3620349   1.338   5.321   9.986  0.4636 -0.2070  0.0751
  178SLPC   H6X20350   1.386   5.320   9.886 -0.3005 -2.1275 -0.3096
  178SLPC   H6Y20351   1.294   5.423   9.999 -1.0295 -1.0597  2.3157
  178SLPC   C3720352   1.224   5.225  10.000  0.8805  0.2489  0.0213
  178SLPC   H7X20353   1.184   5.222  10.103 -0.2514  0.0918 -0.4076
  178SLPC   H7Y20354   1.257   5.121   9.977 -0.7219 -0.0713 -0.9668
  178SLPC   C3820355   1.101   5.263   9.915 -0.2689 -0.0381 -0.0605
  178SLPC   H8X20356   1.068   5.367   9.937 -0.8960 -0.2010 -0.1903
  178SLPC   H8Y20357   1.010   5.210   9.951 -1.2088  1.1022 -0.6843
  178SLPC   C3920358   1.112   5.242   9.767 -0.7192 -0.4020 -0.2703
  178SLPC   H9X20359   1.167   5.148   9.747 -0.4624 -0.1571 -0.7086
  178SLPC   H9Y20360   1.178   5.324   9.731  0.3497 -0.2927  1.7743
  178SLPC  C31020361   0.974   5.240   9.711 -0.1557 -0.1046 -0.0313
  178SLPC  H10X20362   0.912   5.330   9.734  0.2707  0.0570  0.5012
  178SLPC  H10Y20363   0.919   5.156   9.757  1.3768 -0.6243  0.8816
  178SLPC  C31120364   0.973   5.210   9.559  0.1847 -0.0463  0.4674
  178SLPC  H11X20365   1.033   5.119   9.542  1.0144  0.4821  0.4984
  178SLPC  H11Y20366   1.024   5.281   9.491  0.8275 -0.1515  0.8347
  178SLPC  C31220367   0.832   5.187   9.499  0.4966 -0.7124  0.0062
  178SLPC  H12X20368   0.770   5.278   9.511 -0.1576 -1.1029 -0.3541
  178SLPC  H12Y20369   0.784   5.108   9.562 -0.6752  0.6894  0.9405
  178SLPC  C31320370   0.851   5.142   9.363 -0.2155 -0.3010 -0.1371
  178SLPC  H13X20371   0.907   5.046   9.359  0.2771  0.0102 -2.6372
  178SLPC  H13Y20372   0.922   5.207   9.307  3.2970 -2.6949  1.1664
  178SLPC  C31420373   0.716   5.128   9.301  0.0695  0.0450 -0.2655
  178SLPC  H14X20374   0.656   5.219   9.321 -0.9871 -0.7639  0.3583
  178SLPC  H14Y20375   0.654   5.044   9.339 -1.7568  1.7782  0.7404
  178SLPC  C31520376   0.731   5.141   9.149  0.2796  0.1462  0.2427
  178SLPC  H15X20377   0.640   5.182   9.102 -0.4823 -0.6449  0.9821
  178SLPC  H15Y20378   0.810   5.212   9.118  0.8762 -0.2075  0.9054
  178SLPC  C31620379   0.761   5.008   9.080 -0.5588  0.6854  0.3696
  178SLPC  H16X20380   0.750   4.925   9.153  3.4515  0.2751  0.7077
  178SLPC  H16Y20381   0.870   5.009   9.061 -0.7053 -2.4415 -1.2678
  178SLPC  C31720382   0.679   4.996   8.951  0.0015  0.2825  0.6108
  178SLPC  H17X20383   0.712   5.079   8.884  1.1470  0.2106  1.0589
  178SLPC  H17Y20384   0.573   5.015   8.979 -0.3768 -0.1212 -0.4729
  178SLPC  C31820385   0.702   4.857   8.881  0.6989  0.6192  0.2781
  178SLPC  H18X20386   0.630   4.782   8.919  1.1500 -1.4070 -2.5634
  178SLPC  H18Y20387   0.804   4.822   8.905  0.8501  1.4108  0.8333
  178SLPC  H18Z20388   0.677   4.852   8.772  0.1615 -0.9249  0.4521
  179SLPC     N20389   1.137   2.765  10.698  0.3608  0.0896 -0.2651
  179SLPC   C1320390   1.127   2.796  10.846 -0.1413  0.2485  0.4444
  179SLPC  H13A20391   1.177   2.717  10.901  0.6447 -0.0433 -0.6592
  179SLPC  H13B20392   1.165   2.896  10.864 -0.0087  0.2980 -0.1008
  179SLPC  H13C20393   1.022   2.796  10.871 -0.0419 -0.0848  0.8888
  179SLPC   C1420394   1.272   2.798  10.651 -0.0336 -0.2787 -0.7984
  179SLPC  H14A20395   1.298   2.898  10.682  1.1800 -0.6214 -0.6440
  179SLPC  H14B20396   1.347   2.727  10.684  1.1317  1.2370 -0.0864
  179SLPC  H14C20397   1.266   2.804  10.543  1.0527  0.7175 -0.8258
  179SLPC   C1520398   1.042   2.838  10.617  0.2843 -0.6080  0.8209
  179SLPC  H15A20399   1.058   2.945  10.615 -0.3149 -0.4515  2.6735
  179SLPC  H15B20400   1.046   2.804  10.515  0.2720  1.2310  0.1783
  179SLPC  H15C20401   0.936   2.823  10.631 -0.3556  1.7041 -0.9287
  179SLPC   C1220402   1.113   2.614  10.672 -0.3275 -0.1863 -0.0835
  179SLPC  H12A20403   1.184   2.553  10.726  0.9628 -0.1193 -1.6153
  179SLPC  H12B20404   1.135   2.606  10.567 -1.3277  2.8999 -0.6320
  179SLPC   C1120405   0.969   2.561  10.704  0.1122  0.0432 -0.5715
  179SLPC  H11A20406   0.952   2.566  10.813 -1.1720  1.3720 -0.8013
  179SLPC  H11B20407   0.979   2.455  10.672 -1.6967 -0.4383  0.3033
  179SLPC     P20408   0.754   2.556  10.539 -0.1216 -0.2790  0.1669
  179SLPC   O1320409   0.685   2.457  10.622  0.2484 -0.3133 -0.5158
  179SLPC   O1420410   0.666   2.657  10.480 -0.5276 -0.0978 -0.4695
  179SLPC   O1220411   0.870   2.631  10.628  0.1224  0.0482 -0.4124
  179SLPC   O1120412   0.856   2.495  10.431 -0.6446 -0.4090  0.4154
  179SLPC    C120413   0.913   2.567  10.327  0.0158  0.1420  1.0853
  179SLPC    HA20414   0.928   2.671  10.363 -0.6749  0.4945  0.4026
  179SLPC    HB20415   1.010   2.530  10.289 -0.9585 -0.6369 -0.7434
  179SLPC    C220416   0.819   2.578  10.204 -0.1414 -0.8440 -0.0944
  179SLPC    HS20417   0.715   2.604  10.231 -0.6429 -1.0895 -1.6883
  179SLPC   O2120418   0.824   2.447  10.141  0.3204  0.0417 -0.0874
  179SLPC   C2120419   0.713   2.379  10.135  0.3671  0.2226  0.4780
  179SLPC   O2220420   0.607   2.406  10.184  0.3284  0.5905  0.4388
  179SLPC   C2220421   0.726   2.251  10.057 -0.1613 -0.6653 -0.1519
  179SLPC   H2R20422   0.795   2.180  10.109 -1.6568 -1.7915  0.3699
  179SLPC   H2S20423   0.631   2.193  10.052 -0.5480  0.0151 -0.8368
  179SLPC    C320424   0.869   2.683  10.101  0.5026 -0.2915 -0.4028
  179SLPC    HX20425   0.980   2.679  10.106  0.4510 -3.5112  0.7387
  179SLPC    HY20426   0.839   2.785  10.130  1.2802 -0.2724  0.3814
  179SLPC   O3120427   0.831   2.649   9.969  0.3391 -0.1653 -0.0978
  179SLPC   C3120428   0.730   2.715   9.909  0.6473 -0.0774 -1.1868
  179SLPC   O3220429   0.671   2.813   9.959  0.4384  0.6696 -0.0400
  179SLPC   C3220430   0.712   2.658   9.772  0.8005 -0.0810  0.0525
  179SLPC   H2X20431   0.743   2.552   9.777 -0.8912 -0.6025  0.3655
  179SLPC   H2Y20432   0.768   2.716   9.695 -1.2269 -0.3393 -1.7280
  179SLPC   C2320433   0.777   2.291   9.915  0.4693 -0.1128 -0.5736
  179SLPC   H3R20434   0.882   2.329   9.916  0.8644 -1.0707 -2.0906
  179SLPC   H3S20435   0.712   2.367   9.868  1.1525  0.0712 -1.2408
  179SLPC   C2420436   0.784   2.174   9.823  0.1895  0.2077 -0.4536
  179SLPC   H4R20437   0.687   2.120   9.831 -1.3467  2.9404  0.4814
  179SLPC   H4S20438   0.867   2.104   9.847  0.5751  0.9368  0.3941
  179SLPC   C2520439   0.800   2.224   9.675  0.0119 -0.0881  0.2124
  179SLPC   H5R20440   0.877   2.303   9.672 -2.0820  2.1147 -3.6472
  179SLPC   H5S20441   0.710   2.283   9.647  1.2864  1.1226 -1.5850
  179SLPC   C2620442   0.834   2.107   9.581  0.1703 -0.1518  0.5180
  179SLPC   H6R20443   0.762   2.023   9.587  1.8491 -1.7330 -0.3901
  179SLPC   H6S20444   0.930   2.059   9.609  1.2361  1.6486  0.1070
  179SLPC   C2720445   0.834   2.170   9.439 -0.4719  0.1734  0.2107
  179SLPC   H7R20446   0.905   2.256   9.439 -1.7043  1.2348  1.1750
  179SLPC   H7S20447   0.743   2.223   9.405  1.4236  1.8851 -2.6320
  179SLPC   C2820448   0.860   2.067   9.320 -0.3672 -0.4613  0.1148
  179SLPC   H8R20449   0.947   2.006   9.351 -0.6645 -1.7538 -1.4572
  179SLPC   H8S20450   0.891   2.128   9.233 -1.1339  1.1774  0.9332
  179SLPC   C2920451   0.740   1.979   9.270  0.0449 -0.0101 -0.4876
  179SLPC   H9R20452   0.668   1.962   9.351  2.5551 -1.6532  1.5633
  179SLPC  C21020453   0.725   1.916   9.157 -0.4388 -0.6370  0.1808
  179SLPC  H10R20454   0.640   1.847   9.148  0.2583 -2.6118  5.3553
  179SLPC  C21120455   0.823   1.933   9.045 -0.4326 -0.4282  0.1697
  179SLPC  H11R20456   0.930   1.915   9.066  0.3717  2.9291 -0.5734
  179SLPC  H11S20457   0.828   2.040   9.015 -1.6771 -0.9706 -2.2212
  179SLPC  C21220458   0.792   1.854   8.917 -0.4708 -0.6632  0.2737
  179SLPC  H12R20459   0.690   1.811   8.915 -0.2895 -1.1399  1.0183
  179SLPC  C21320460   0.867   1.830   8.811  0.2814  0.3845  0.1738
  179SLPC  H13R20461   0.815   1.775   8.731 -0.3519 -0.0930  0.9059
  179SLPC  C21420462   1.008   1.881   8.800 -0.5695 -0.3116 -0.6656
  179SLPC  H14R20463   1.079   1.800   8.825  1.1244  1.2161 -0.2757
  179SLPC  H14S20464   1.032   1.965   8.868  0.9798 -1.2579 -0.0027
  179SLPC  C21520465   1.034   1.927   8.654 -0.2144  1.2818 -0.4627
  179SLPC  H15R20466   1.020   1.845   8.581  0.5282  0.5352  0.2024
  179SLPC  H15S20467   1.142   1.950   8.641  0.9468 -2.0273  1.7466
  179SLPC  C21620468   0.947   2.042   8.599 -0.5171  0.7020  0.8189
  179SLPC  H16R20469   0.939   2.110   8.687  0.2874  2.1035 -0.1566
  179SLPC  H16S20470   0.845   2.005   8.573 -0.2489  0.5626 -0.0680
  179SLPC  C21720471   1.026   2.102   8.478  0.5879 -0.6906  0.2311
  179SLPC  H17R20472   1.010   2.026   8.398 -1.0508 -0.6185  0.4691
  179SLPC  H17S20473   1.134   2.110   8.502  0.0839 -1.1252  2.8688
  179SLPC  C21820474   0.985   2.240   8.431  0.7016 -0.3896  0.4755
  179SLPC  H18R20475   0.877   2.238   8.403  0.9555  1.4026 -0.8068
  179SLPC  H18S20476   1.029   2.267   8.332  0.1370 -1.0923  0.0215
  179SLPC  H18T20477   1.005   2.320   8.504 -0.1389  0.4953 -0.2259
  179SLPC   C3320478   0.563   2.648   9.722 -0.2293  0.2983 -0.2967
  179SLPC   H3X20479   0.500   2.726   9.770  0.5993  0.6587  0.2274
  179SLPC   H3Y20480   0.526   2.549   9.755  1.2286 -0.4043 -0.6955
  179SLPC   C3420481   0.544   2.668   9.574  0.5646 -0.9291 -0.1248
  179SLPC   H4X20482   0.584   2.771   9.558 -1.5990 -0.2602 -1.5630
  179SLPC   H4Y20483   0.435   2.670   9.552  0.6324  0.1779 -0.4550
  179SLPC   C3520484   0.624   2.578   9.477  0.4712  0.1101 -0.0073
  179SLPC   H5X20485   0.572   2.481   9.466  2.6470 -1.1326 -0.0042
  179SLPC   H5Y20486   0.724   2.558   9.521  0.0768 -0.9445  0.4374
  179SLPC   C3620487   0.647   2.654   9.346 -0.2948 -0.6272  0.4828
  179SLPC   H6X20488   0.683   2.752   9.383 -0.0857 -0.3906 -0.3320
  179SLPC   H6Y20489   0.545   2.664   9.302  0.2127 -0.2092 -0.6271
  179SLPC   C3720490   0.750   2.581   9.259  0.3378  0.1097  0.1715
  179SLPC   H7X20491   0.812   2.531   9.336 -1.2252  1.2386  2.2537
  179SLPC   H7Y20492   0.807   2.657   9.201  0.4162  1.4708  1.9734
  179SLPC   C3820493   0.681   2.474   9.177 -0.1797 -0.0079 -0.0650
  179SLPC   H8X20494   0.596   2.524   9.127  1.5419  1.5915 -1.5425
  179SLPC   H8Y20495   0.642   2.409   9.258  1.3828  0.7197  1.3543
  179SLPC   C3920496   0.771   2.402   9.078 -0.2584 -0.3111 -0.1363
  179SLPC   H9X20497   0.714   2.319   9.031 -1.5143 -0.0749  0.9201
  179SLPC   H9Y20498   0.856   2.351   9.130  1.3362  1.8622 -0.4920
  179SLPC  C31020499   0.836   2.487   8.968  0.1315 -1.1327 -0.1587
  179SLPC  H10X20500   0.898   2.418   8.907 -4.0098 -3.1567 -2.4973
  179SLPC  H10Y20501   0.904   2.563   9.012  0.7496 -0.4277 -2.2322
  179SLPC  C31120502   0.743   2.570   8.871 -0.6960 -0.1655  0.0305
  179SLPC  H11X20503   0.662   2.496   8.853 -0.8025 -0.3919  1.3235
  179SLPC  H11Y20504   0.802   2.595   8.780  0.5224  0.9973  1.1030
  179SLPC  C31220505   0.692   2.708   8.926 -0.2589 -0.2904 -0.5494
  179SLPC  H12X20506   0.774   2.783   8.935 -1.4692  0.8370  1.8685
  179SLPC  H12Y20507   0.641   2.705   9.025 -1.5667  0.1046 -1.1903
  179SLPC  C31320508   0.603   2.777   8.830 -0.4238 -0.7941 -0.1857
  179SLPC  H13X20509   0.569   2.870   8.881 -0.8139 -0.7826 -0.4660
  179SLPC  H13Y20510   0.515   2.712   8.810 -1.3639  0.2979  0.2763
  179SLPC  C31420511   0.669   2.809   8.685  0.2631  0.4852  0.4048
  179SLPC  H14X20512   0.712   2.709   8.663 -0.8058 -0.2317  1.4781
  179SLPC  H14Y20513   0.760   2.871   8.698  1.3197 -0.5680 -1.5221
  179SLPC  C31520514   0.570   2.875   8.582 -0.5616  0.7921 -0.9555
  179SLPC  H15X20515   0.544   2.979   8.610 -0.5584  0.6503 -0.4225
  179SLPC  H15Y20516   0.490   2.798   8.575  0.9552 -0.9802  0.2591
  179SLPC  C31620517   0.636   2.886   8.443  0.3856 -0.4491  0.4696
  179SLPC  H16X20518   0.685   2.789   8.419  1.2477  0.3310 -1.0877
  179SLPC  H16Y20519   0.724   2.955   8.443 -0.3003  0.5062  2.5770
  179SLPC  C31720520   0.545   2.954   8.341  0.1395  0.4884  0.5321
  179SLPC  H17X20521   0.523   3.057   8.378  0.1740  0.6067  0.2259
  179SLPC  H17Y20522   0.449   2.901   8.326  0.3746 -0.0392  0.8694
  179SLPC  C31820523   0.603   2.956   8.206 -0.3583 -0.5892  0.3049
  179SLPC  H18X20524   0.669   2.870   8.182 -1.8417 -2.2596  1.8871
  179SLPC  H18Y20525   0.667   3.046   8.196 -0.1198 -0.6868  0.9447
  179SLPC  H18Z20526   0.530   2.974   8.124  2.1338  0.4518 -1.8196
  180SLPC     N20527   5.813   6.471  10.409 -0.4670 -0.9666  0.1726
  180SLPC   C1320528   5.667   6.490  10.407 -0.4227 -0.2521  0.5675
  180SLPC  H13A20529   5.622   6.522  10.499 -1.3960 -0.3966  0.1523
  180SLPC  H13B20530   5.642   6.566  10.334 -1.9383 -2.0245 -0.8834
  180SLPC  H13C20531   5.611   6.409  10.363 -1.4202  1.3128 -1.2143
  180SLPC   C1420532   5.852   6.431  10.269  0.2793 -0.0982 -0.3882
  180SLPC  H14A20533   5.881   6.520  10.215  0.0881 -0.1591 -0.5942
  180SLPC  H14B20534   5.933   6.360  10.264  0.2177 -0.2926  0.9979
  180SLPC  H14C20535   5.775   6.379  10.212 -0.7059  1.6755 -0.7414
  180SLPC   C1520536   5.835   6.346  10.497 -0.0988  0.4384  0.1464
  180SLPC  H15A20537   5.794   6.362  10.596 -1.4605 -0.4502 -0.2503
  180SLPC  H15B20538   5.785   6.266  10.445 -0.3690  1.5127 -1.2909
  180SLPC  H15C20539   5.941   6.326  10.503  0.0686  1.4090  0.7146
  180SLPC   C1220540   5.889   6.593  10.461  0.4283 -0.0569  0.2893
  180SLPC  H12A20541   5.873   6.677  10.396  2.8422  1.0453  1.0102
  180SLPC  H12B20542   5.993   6.568  10.445  0.4683  0.4060 -0.1787
  180SLPC   C1120543   5.866   6.638  10.607 -0.3749  0.2756  0.0503
  180SLPC  H11A20544   5.906   6.570  10.685  0.2415  1.7540  1.0720
  180SLPC  H11B20545   5.757   6.646  10.627 -0.7697  3.5136 -2.4982
  180SLPC     P20546   5.867   6.869  10.724 -0.0635 -0.4408  0.0720
  180SLPC   O1320547   5.753   6.810  10.801 -0.0758 -0.2987  0.2818
  180SLPC   O1420548   5.976   6.919  10.815  0.0650 -0.5018  0.1352
  180SLPC   O1220549   5.932   6.772  10.625  0.1745  0.4746 -0.0986
  180SLPC   O1120550   5.812   6.982  10.636 -0.4125 -0.2434  0.4036
  180SLPC    C120551   5.691   6.971  10.554 -0.1877 -0.4538  0.4216
  180SLPC    HA20552   5.624   6.891  10.593 -2.8598  1.6024  0.3708
  180SLPC    HB20553   5.635   7.067  10.553 -1.1743 -0.9989 -1.9821
  180SLPC    C220554   5.720   6.955  10.407  0.4293  0.9919  0.9384
  180SLPC    HS20555   5.769   6.855  10.399 -1.1208  0.1533  1.4091
  180SLPC   O2120556   5.785   7.071  10.350 -0.3501  0.0674  0.1172
  180SLPC   C2120557   5.886   7.039  10.268 -0.1327 -0.3731 -0.2049
  180SLPC   O2220558   5.942   6.929  10.273 -0.1012  0.0615  0.2507
  180SLPC   C2220559   5.923   7.161  10.176  0.0252  0.7391  0.1121
  180SLPC   H2R20560   5.826   7.198  10.138 -0.4440  0.0175  0.5923
  180SLPC   H2S20561   5.970   7.238  10.241  0.2174 -0.3805  1.3415
  180SLPC    C320562   5.586   6.945  10.326  0.1490 -0.6459  0.2982
  180SLPC    HX20563   5.560   7.052  10.341 -0.9209 -0.8968  0.2978
  180SLPC    HY20564   5.508   6.877  10.368 -0.9086  1.3991  1.8382
  180SLPC   O3120565   5.607   6.941  10.184 -0.1568  0.1167  0.5729
  180SLPC   C3120566   5.610   6.820  10.130  0.7072 -0.7133  0.5114
  180SLPC   O3220567   5.621   6.716  10.192  0.1202  0.0036  0.0787
  180SLPC   C3220568   5.603   6.824   9.970  0.4157 -0.2853 -1.0330
  180SLPC   H2X20569   5.545   6.911   9.932 -0.5024 -0.9579 -1.2024
  180SLPC   H2Y20570   5.545   6.742   9.922  1.2715 -0.8748 -1.0932
  180SLPC   C2320571   6.033   7.126  10.072  0.5792 -0.1399  0.3417
  180SLPC   H3R20572   5.996   7.045  10.007  0.2037 -0.2578  0.6975
  180SLPC   H3S20573   6.127   7.089  10.119  1.9761  2.1405 -0.4966
  180SLPC   C2420574   6.055   7.246   9.975 -0.2132 -0.6262 -0.5875
  180SLPC   H4R20575   6.153   7.231   9.924  1.1350  0.6020  1.5170
  180SLPC   H4S20576   6.052   7.338  10.037 -0.2399 -2.6540  2.6371
  180SLPC   C2520577   5.954   7.249   9.863 -0.4036  0.5839  0.8583
  180SLPC   H5R20578   5.853   7.241   9.910 -0.7924  0.1220 -0.0432
  180SLPC   H5S20579   5.963   7.161   9.796  2.3006  1.3183  0.1452
  180SLPC   C2620580   5.954   7.378   9.784 -0.5175 -0.3388  0.4524
  180SLPC   H6R20581   5.967   7.465   9.853  0.7680 -0.0689 -0.0877
  180SLPC   H6S20582   5.867   7.383   9.715  1.0132 -1.1595 -1.6605
  180SLPC   C2720583   6.075   7.398   9.686  0.1508 -0.2386  0.2491
  180SLPC   H7R20584   6.158   7.357   9.746  0.0295 -1.6851 -0.5183
  180SLPC   H7S20585   6.102   7.504   9.670  0.7262 -0.5708 -1.0944
  180SLPC   C2820586   6.056   7.324   9.552 -0.4252 -0.6078 -0.8864
  180SLPC   H8R20587   5.973   7.361   9.489 -0.1337 -0.1625 -1.0169
  180SLPC   H8S20588   6.017   7.224   9.581 -3.1626  0.4681 -0.5693
  180SLPC   C2920589   6.186   7.326   9.471  0.3127 -0.1358 -0.8607
  180SLPC   H9R20590   6.224   7.423   9.435 -0.8675  0.2365 -1.1520
  180SLPC  C21020591   6.267   7.221   9.447 -0.0519  0.0774  0.3992
  180SLPC  H10R20592   6.350   7.244   9.379 -1.9961  2.0405 -1.4679
  180SLPC  C21120593   6.243   7.081   9.490  0.9315 -0.4096  0.7917
  180SLPC  H11R20594   6.213   7.030   9.396  2.6481  1.5077 -0.9162
  180SLPC  H11S20595   6.157   7.070   9.559 -0.1657 -0.3426 -0.5026
  180SLPC  C21220596   6.375   7.027   9.542  0.7909 -0.5499 -0.4204
  180SLPC  H12R20597   6.466   7.042   9.481 -0.6623 -0.0617 -2.5714
  180SLPC  C21320598   6.394   6.937   9.647 -0.0160 -0.0480  0.4440
  180SLPC  H13R20599   6.499   6.916   9.673  0.7102  1.0426 -1.3826
  180SLPC  C21420600   6.287   6.873   9.736  0.1634 -0.0897  0.4664
  180SLPC  H14R20601   6.268   6.767   9.708 -0.0617 -0.7333  2.8581
  180SLPC  H14S20602   6.194   6.929   9.717  1.1748  1.6825  0.5479
  180SLPC  C21520603   6.317   6.892   9.886 -0.7024 -0.0223  0.0821
  180SLPC  H15R20604   6.226   6.885   9.949 -1.0765  0.2945 -0.4221
  180SLPC  H15S20605   6.350   6.998   9.897  0.1963 -0.1663 -1.0465
  180SLPC  C21620606   6.430   6.804   9.941 -0.2370  0.1646 -0.0386
  180SLPC  H16R20607   6.529   6.825   9.894 -0.3132  1.2642  0.2479
  180SLPC  H16S20608   6.403   6.697   9.935 -2.0486  0.6864 -2.1076
  180SLPC  C21720609   6.455   6.831  10.089  0.5304 -0.1132  0.3709
  180SLPC  H17R20610   6.358   6.819  10.141 -0.1245  1.9835 -0.2423
  180SLPC  H17S20611   6.482   6.937  10.111  1.3256 -0.5594  1.6175
  180SLPC  C21820612   6.558   6.747  10.161 -0.1890  0.0037  0.1127
  180SLPC  H18R20613   6.538   6.638  10.157 -2.8467  0.3342  1.9735
  180SLPC  H18S20614   6.541   6.766  10.269  1.3919  0.1393  0.3632
  180SLPC  H18T20615   6.663   6.776  10.135 -0.1889 -0.0602  0.0416
  180SLPC   C3320616   5.746   6.827   9.916 -0.1824  0.6852  0.1594
  180SLPC   H3X20617   5.809   6.753   9.969 -1.3252  0.4411  1.2152
  180SLPC   H3Y20618   5.796   6.925   9.933  1.4869  0.0043 -0.5252
  180SLPC   C3420619   5.757   6.786   9.766 -0.3680 -0.4484  0.1289
  180SLPC   H4X20620   5.710   6.871   9.712 -2.2969 -1.2058  0.5161
  180SLPC   H4Y20621   5.698   6.693   9.747 -1.7545  0.4300 -0.0244
  180SLPC   C3520622   5.905   6.782   9.725 -0.3726  0.5303  0.0597
  180SLPC   H5X20623   5.962   6.707   9.784 -0.6333  0.7372  0.5868
  180SLPC   H5Y20624   5.950   6.878   9.759 -0.2802  0.3716  0.3961
  180SLPC   C3620625   5.929   6.780   9.569  0.3363 -0.1114 -0.3328
  180SLPC   H6X20626   5.888   6.680   9.544  2.5388 -1.3043  0.4973
  180SLPC   H6Y20627   6.036   6.800   9.545  0.3962  2.8032  1.8274
  180SLPC   C3720628   5.856   6.888   9.489 -0.1164 -0.3422 -0.3595
  180SLPC   H7X20629   5.883   6.987   9.531  0.8632 -0.9297  0.4463
  180SLPC   H7Y20630   5.749   6.859   9.502 -0.0996 -1.0244 -1.5681
  180SLPC   C3820631   5.891   6.880   9.338 -0.4275  0.2938 -0.0856
  180SLPC   H8X20632   5.845   6.794   9.286 -0.3293 -0.4304  1.0037
  180SLPC   H8Y20633   6.002   6.868   9.338 -0.4538  0.0555  0.4091
  180SLPC   C3920634   5.873   7.015   9.271 -0.6138  0.5769  0.4860
  180SLPC   H9X20635   5.921   7.101   9.323  1.0342  0.4479 -0.7690
  180SLPC   H9Y20636   5.764   7.037   9.272 -0.3052  2.3247 -0.4198
  180SLPC  C31020637   5.926   7.010   9.127 -0.8350  0.4528 -0.0410
  180SLPC  H10X20638   5.879   6.920   9.082 -1.5586 -0.1344  1.7530
  180SLPC  H10Y20639   6.034   6.997   9.150 -1.1960  2.0382  3.1009
  180SLPC  C31120640   5.912   7.135   9.048 -0.2177 -0.1348  0.0672
  180SLPC  H11X20641   5.979   7.212   9.089  1.4929 -1.9527  0.8245
  180SLPC  H11Y20642   5.809   7.169   9.073  1.3461  3.7422  2.1055
  180SLPC  C31220643   5.941   7.116   8.895 -0.1899 -0.3572 -0.2462
  180SLPC  H12X20644   5.902   7.200   8.834 -1.7457  0.5092  1.8277
  180SLPC  H12Y20645   5.888   7.027   8.855  1.1187 -0.0215 -2.9408
  180SLPC  C31320646   6.089   7.094   8.855  0.2167  0.0103 -0.3606
  180SLPC  H13X20647   6.074   7.053   8.753 -2.5619 -2.2206  0.8055
  180SLPC  H13Y20648   6.156   7.022   8.906 -0.9801 -0.2776  0.8694
  180SLPC  C31420649   6.161   7.233   8.853  0.6171 -0.0075 -0.1890
  180SLPC  H14X20650   6.166   7.272   8.956 -1.5786  2.0753 -0.7807
  180SLPC  H14Y20651   6.086   7.301   8.807  0.7202  1.5906  1.8686
  180SLPC  C31520652   6.299   7.242   8.790  0.2895 -0.7261 -0.1116
  180SLPC  H15X20653   6.342   7.345   8.791  0.1127 -0.6439 -0.7144
  180SLPC  H15Y20654   6.290   7.217   8.682 -0.9191 -3.0697  0.4758
  180SLPC  C31620655   6.405   7.157   8.854  0.4885  0.0974 -0.0977
  180SLPC  H16X20656   6.504   7.182   8.809  0.9883 -2.7734 -0.7584
  180SLPC  H16Y20657   6.398   7.053   8.816  1.4341  0.8101 -2.4226
  180SLPC  C31720658   6.397   7.157   9.010 -0.0828  0.3884 -0.0254
  180SLPC  H17X20659   6.489   7.103   9.042  0.7757  2.3178  0.9198
  180SLPC  H17Y20660   6.305   7.107   9.047 -0.0606  0.4331  0.0911
  180SLPC  C31820661   6.395   7.294   9.072  0.5868  0.3777  0.6403
  180SLPC  H18X20662   6.488   7.353   9.059 -0.2695  1.3868 -1.4633
  180SLPC  H18Y20663   6.371   7.285   9.180  0.5124 -0.6226  0.5487
  180SLPC  H18Z20664   6.328   7.372   9.028 -0.3486 -0.3957  0.6626
  181SLPC     N20665   1.144   4.709  10.903 -0.2176  0.8584  0.1407
  181SLPC   C1320666   1.059   4.796  10.824  0.3585  0.2195 -1.4875
  181SLPC  H13A20667   1.083   4.801  10.719 -0.2316  1.5440 -1.5797
  181SLPC  H13B20668   0.958   4.759  10.823  1.0356 -1.8357 -0.8685
  181SLPC  H13C20669   1.065   4.899  10.855  1.4614  0.4307 -2.3218
  181SLPC   C1420670   1.140   4.570  10.850 -0.5586 -0.2773  0.6921
  181SLPC  H14A20671   1.041   4.531  10.832 -0.3508 -0.8929  0.8512
  181SLPC  H14B20672   1.196   4.567  10.757 -0.0250  0.2299  0.9851
  181SLPC  H14C20673   1.194   4.508  10.921  1.7789  1.9435  1.0339
  181SLPC   C1520674   1.089   4.707  11.045 -0.3695  0.9754  0.1369
  181SLPC  H15A20675   1.102   4.808  11.082 -3.1672  1.5981 -0.3865
  181SLPC  H15B20676   0.983   4.687  11.043 -0.6327  2.3192 -0.3417
  181SLPC  H15C20677   1.133   4.627  11.103  0.4111 -0.5931 -2.4798
  181SLPC   C1220678   1.279   4.762  10.907 -0.8588  0.1008  0.2283
  181SLPC  H12A20679   1.339   4.715  10.984  0.2098  1.3165  0.1737
  181SLPC  H12B20680   1.264   4.865  10.933 -0.4380  0.1621  0.2370
  181SLPC   C1120681   1.357   4.764  10.774  0.1068 -0.0956  0.0623
  181SLPC  H11A20682   1.441   4.837  10.780  2.4038 -2.6779  2.8236
  181SLPC  H11B20683   1.287   4.811  10.702  1.2642  1.1650 -0.2712
  181SLPC     P20684   1.518   4.571  10.814 -0.1473 -0.5859  0.0578
  181SLPC   O1320685   1.621   4.675  10.830 -0.1835  0.2310 -0.0805
  181SLPC   O1420686   1.466   4.505  10.938  0.1411 -0.0875  0.3446
  181SLPC   O1220687   1.399   4.635  10.729 -0.0746  0.2362  0.0033
  181SLPC   O1120688   1.576   4.462  10.713 -0.0303  0.0660  0.6453
  181SLPC    C120689   1.660   4.504  10.595 -0.2257 -1.5704 -0.2876
  181SLPC    HA20690   1.724   4.589  10.624 -1.5473 -0.4210 -0.6550
  181SLPC    HB20691   1.736   4.423  10.581  1.8904  0.3639 -0.5957
  181SLPC    C220692   1.591   4.540  10.454 -0.0919  0.0573 -0.8021
  181SLPC    HS20693   1.659   4.527  10.367  1.5066 -0.9962  0.5450
  181SLPC   O2120694   1.528   4.669  10.461 -0.0870 -0.2027  0.2180
  181SLPC   C2120695   1.605   4.772  10.439  0.1121 -0.8826  0.6335
  181SLPC   O2220696   1.729   4.766  10.429 -0.3318 -0.1753 -0.5943
  181SLPC   C2220697   1.518   4.896  10.417 -0.8268 -0.2419 -0.4650
  181SLPC   H2R20698   1.456   4.920  10.506 -2.1968 -0.6631 -1.2728
  181SLPC   H2S20699   1.600   4.968  10.396  0.8645 -1.8966  0.1787
  181SLPC    C320700   1.477   4.432  10.436 -0.0931 -0.4752  0.2902
  181SLPC    HX20701   1.400   4.466  10.509  0.0183 -0.2017  0.2809
  181SLPC    HY20702   1.508   4.332  10.473  0.4242  0.6653  3.2748
  181SLPC   O3120703   1.408   4.442  10.305 -0.6588 -0.2448  0.0630
  181SLPC   C3120704   1.455   4.354  10.214  0.1342  0.1132  0.0699
  181SLPC   O3220705   1.551   4.277  10.237  0.8814 -0.2701 -0.0189
  181SLPC   C3220706   1.382   4.364  10.086  0.1433  0.2092  0.1824
  181SLPC   H2X20707   1.286   4.419  10.100  1.2761  3.2102 -2.4008
  181SLPC   H2Y20708   1.358   4.259  10.060 -1.6178  0.2886  1.2982
  181SLPC   C2320709   1.424   4.868  10.294 -0.1305  0.4918  0.2763
  181SLPC   H3R20710   1.340   4.939  10.302 -0.0784  0.6857 -0.7227
  181SLPC   H3S20711   1.372   4.771  10.306  1.2923 -0.2386  0.8570
  181SLPC   C2420712   1.501   4.882  10.167  0.3770 -0.2789 -0.0090
  181SLPC   H4R20713   1.596   4.826  10.155  0.7408  0.7950 -3.2730
  181SLPC   H4S20714   1.547   4.984  10.169  0.0132 -0.0627 -1.5152
  181SLPC   C2520715   1.420   4.850  10.043  0.4823 -0.9551  0.1901
  181SLPC   H5R20716   1.339   4.925  10.050  1.1800 -0.2950  1.6117
  181SLPC   H5S20717   1.380   4.748  10.059  0.1881 -1.1280 -1.4607
  181SLPC   C2620718   1.500   4.857   9.905  0.2328 -1.1741 -0.0590
  181SLPC   H6R20719   1.438   4.821   9.821  0.0347 -0.4965 -0.2100
  181SLPC   H6S20720   1.582   4.783   9.917  0.9010 -0.5442 -0.6199
  181SLPC   C2720721   1.551   5.001   9.873  0.7965 -0.2771 -0.2417
  181SLPC   H7R20722   1.602   5.049   9.960  0.7688  1.3518 -1.0672
  181SLPC   H7S20723   1.457   5.056   9.852 -1.0246 -3.7763 -1.8946
  181SLPC   C2820724   1.662   5.004   9.762 -0.1298  0.4351  0.7185
  181SLPC   H8R20725   1.616   4.978   9.664  1.4870  1.9631 -0.4924
  181SLPC   H8S20726   1.728   4.922   9.798 -0.0739  0.9790  1.9090
  181SLPC   C2920727   1.732   5.140   9.764 -0.4825  0.6963  0.1255
  181SLPC   H9R20728   1.680   5.212   9.700  0.1641 -1.2016 -2.7381
  181SLPC  C21020729   1.834   5.178   9.843 -0.1097  0.2643  0.9331
  181SLPC  H10R20730   1.877   5.277   9.822 -0.2528 -0.2023 -2.0862
  181SLPC  C21120731   1.908   5.095   9.954 -0.6719  0.1623  0.1537
  181SLPC  H11R20732   1.891   4.985   9.940  1.3928  0.1138 -3.0658
  181SLPC  H11S20733   1.879   5.126  10.056 -0.9950 -0.9601  0.4252
  181SLPC  C21220734   2.061   5.108   9.933  0.3135 -0.0372  0.0499
  181SLPC  H12R20735   2.104   5.141  10.029 -1.8801  1.8257  0.4783
  181SLPC  C21320736   2.153   5.099   9.830 -0.7461 -0.1886  0.2193
  181SLPC  H13R20737   2.257   5.119   9.859 -0.4128 -2.1849  0.5778
  181SLPC  C21420738   2.124   5.067   9.685 -0.2123  0.2963 -0.0016
  181SLPC  H14R20739   2.014   5.067   9.664 -0.5086  1.0863  1.4061
  181SLPC  H14S20740   2.161   4.970   9.647 -1.7860 -0.3359 -0.0058
  181SLPC  C21520741   2.185   5.171   9.586  0.2502  0.4283 -0.0898
  181SLPC  H15R20742   2.295   5.169   9.571  0.1211 -0.2855 -1.0389
  181SLPC  H15S20743   2.150   5.269   9.623  1.0182  0.3877  0.7678
  181SLPC  C21620744   2.124   5.164   9.444 -0.9385 -0.5808  0.6937
  181SLPC  H16R20745   2.158   5.250   9.384 -0.1486 -1.6868 -0.5100
  181SLPC  H16S20746   2.013   5.171   9.446 -0.8623  0.6816  1.0965
  181SLPC  C21720747   2.162   5.043   9.360 -0.0815  0.8831  0.4767
  181SLPC  H17R20748   2.130   4.953   9.417 -0.0795  0.7784  0.3133
  181SLPC  H17S20749   2.271   5.046   9.340 -0.4550  1.4499 -1.7857
  181SLPC  C21820750   2.092   5.033   9.227 -0.4030 -0.7404 -0.6180
  181SLPC  H18R20751   2.088   4.928   9.191 -0.9056 -0.7201 -0.6216
  181SLPC  H18S20752   2.149   5.092   9.152  0.5076 -1.2593 -0.3510
  181SLPC  H18T20753   1.986   5.065   9.230 -0.6014 -1.4479  1.0465
  181SLPC   C3320754   1.462   4.427   9.968 -0.4602  0.3025  0.2965
  181SLPC   H3X20755   1.541   4.358   9.933 -0.2272  1.3781 -1.4154
  181SLPC   H3Y20756   1.514   4.521   9.998  1.0982  0.2810 -2.0920
  181SLPC   C3420757   1.369   4.461   9.856  0.3733  0.0069  0.1519
  181SLPC   H4X20758   1.303   4.548   9.870  1.7281  0.9676  0.7893
  181SLPC   H4Y20759   1.306   4.372   9.836  1.8186 -0.6976 -1.5851
  181SLPC   C3520760   1.448   4.482   9.728 -0.1647 -0.3825 -0.6027
  181SLPC   H5X20761   1.519   4.396   9.719  1.6964  0.9567  0.4902
  181SLPC   H5Y20762   1.503   4.578   9.732 -0.6602 -0.1220  0.0330
  181SLPC   C3620763   1.367   4.478   9.602  0.3590  0.5023 -0.0852
  181SLPC   H6X20764   1.317   4.577   9.594 -1.5606 -0.4511 -0.4343
  181SLPC   H6Y20765   1.286   4.402   9.603  2.4814 -1.9074  1.3778
  181SLPC   C3720766   1.460   4.450   9.479 -0.2676 -1.3767  0.4011
  181SLPC   H7X20767   1.519   4.356   9.476 -0.0242 -1.2274 -1.9374
  181SLPC   H7Y20768   1.520   4.543   9.468 -2.7459  0.4257  1.1863
  181SLPC   C3820769   1.389   4.455   9.348  0.5068  0.1683  0.7786
  181SLPC   H8X20770   1.354   4.558   9.327  0.7942  0.1069 -0.0524
  181SLPC   H8Y20771   1.298   4.391   9.346  0.6102  0.0289  0.1978
  181SLPC   C3920772   1.473   4.412   9.226 -0.4490 -0.1623 -0.2893
  181SLPC   H9X20773   1.524   4.319   9.259  0.2558  0.4709  0.4394
  181SLPC   H9Y20774   1.548   4.492   9.208  1.2282 -2.0635 -2.3104
  181SLPC  C31020775   1.396   4.377   9.103 -0.3343  0.1830  0.3899
  181SLPC  H10X20776   1.373   4.467   9.042  0.5887  0.2478  0.1334
  181SLPC  H10Y20777   1.299   4.326   9.121 -0.8627  1.4787  1.4668
  181SLPC  C31120778   1.480   4.301   9.010  0.3300 -0.2271  0.3433
  181SLPC  H11X20779   1.533   4.216   9.058 -0.6143  0.3239  2.4792
  181SLPC  H11Y20780   1.567   4.363   8.980 -0.2099  0.3297 -0.1132
  181SLPC  C31220781   1.404   4.246   8.889 -0.4649 -0.0492 -0.2534
  181SLPC  H12X20782   1.325   4.186   8.939 -1.1131  1.6610  0.8660
  181SLPC  H12Y20783   1.467   4.186   8.820  0.0446 -0.4811  0.5814
  181SLPC  C31320784   1.326   4.359   8.820 -0.2440 -0.2289 -0.9336
  181SLPC  H13X20785   1.389   4.449   8.807 -0.0242 -0.3395 -0.6300
  181SLPC  H13Y20786   1.236   4.386   8.880 -0.7361  3.0865 -2.9302
  181SLPC  C31420787   1.262   4.325   8.690  0.2304  0.8440 -0.0722
  181SLPC  H14X20788   1.183   4.250   8.710  0.5656  0.2508 -0.9060
  181SLPC  H14Y20789   1.338   4.291   8.616  0.6261  0.1436  0.6362
  181SLPC  C31520790   1.189   4.440   8.611 -0.2993  0.5738  0.7484
  181SLPC  H15X20791   1.267   4.514   8.583 -0.0310 -0.3807 -1.1851
  181SLPC  H15Y20792   1.109   4.483   8.675  0.5899 -0.1283  2.3854
  181SLPC  C31620793   1.111   4.383   8.487 -0.3424 -0.3091  0.6449
  181SLPC  H16X20794   1.022   4.449   8.474 -0.0320  0.6681  3.0707
  181SLPC  H16Y20795   1.075   4.279   8.500  0.5759 -0.5723  1.1152
  181SLPC  C31720796   1.206   4.397   8.365 -0.7365  0.3315  1.0488
  181SLPC  H17X20797   1.193   4.308   8.299 -1.0857  0.5066  0.8745
  181SLPC  H17Y20798   1.312   4.381   8.392  1.4074  2.8875 -4.3323
  181SLPC  C31820799   1.200   4.533   8.288 -0.0522  0.0242  0.0793
  181SLPC  H18X20800   1.107   4.555   8.231 -0.9853  1.1567  1.9411
  181SLPC  H18Y20801   1.275   4.527   8.206  0.1014 -2.5425  0.3150
  181SLPC  H18Z20802   1.227   4.614   8.359  0.4035  1.0962 -1.2835
  182SLPC     N20803   6.087   5.027  11.099 -0.1104 -0.0202  0.1799
  182SLPC   C1320804   6.059   5.154  11.163  0.2576 -0.1262 -0.3646
  182SLPC  H13A20805   6.129   5.166  11.245  0.3322 -1.0594 -0.2807
  182SLPC  H13B20806   6.071   5.247  11.110 -0.3758  1.4112  2.0294
  182SLPC  H13C20807   5.964   5.157  11.213 -0.6976  1.5334 -2.1407
  182SLPC   C1420808   6.046   4.918  11.189 -0.1299 -0.3487 -0.1975
  182SLPC  H14A20809   5.939   4.913  11.199 -0.1983  0.7621 -0.2517
  182SLPC  H14B20810   6.073   4.821  11.150 -1.1409  0.7771 -4.0772
  182SLPC  H14C20811   6.086   4.931  11.288 -1.5061  3.3413  0.0163
  182SLPC   C1520812   6.238   5.020  11.070 -0.1276 -0.6338  0.0814
  182SLPC  H15A20813   6.248   4.919  11.033 -4.3470 -0.6276 -1.6667
  182SLPC  H15B20814   6.265   5.095  10.997  1.9616 -0.0646  1.3623
  182SLPC  H15C20815   6.299   5.028  11.159  0.0121  0.7572 -0.1172
  182SLPC   C1220816   6.009   5.024  10.972 -0.5217  0.3668  0.0085
  182SLPC  H12A20817   6.027   5.110  10.910 -0.5958 -1.6431 -2.9779
  182SLPC  H12B20818   5.903   5.016  10.994 -0.6305  1.2273 -0.1697
  182SLPC   C1120819   6.043   4.908  10.877  0.4688 -0.2229  0.0756
  182SLPC  H11A20820   5.965   4.909  10.798 -0.8059 -2.7347  1.1651
  182SLPC  H11B20821   6.035   4.812  10.932 -0.1356  1.5029  3.2511
  182SLPC     P20822   6.216   4.838  10.687  0.0012 -0.4408 -0.1473
  182SLPC   O1320823   6.344   4.891  10.638  0.2110  0.2384  0.2054
  182SLPC   O1420824   6.221   4.693  10.734  0.6077 -0.7331  0.2494
  182SLPC   O1220825   6.172   4.927  10.810  0.5045  0.6956  0.3007
  182SLPC   O1120826   6.097   4.858  10.578 -0.2332 -0.4552 -0.6712
  182SLPC    C120827   6.089   4.982  10.507 -0.1243 -0.1745 -0.4596
  182SLPC    HA20828   5.985   5.000  10.472 -0.2352  0.0188 -0.0324
  182SLPC    HB20829   6.105   5.073  10.569  2.8795 -1.4383  0.8574
  182SLPC    C220830   6.177   4.977  10.379 -0.0401 -0.1784 -0.1155
  182SLPC    HS20831   6.277   5.022  10.395  0.3216 -1.7889  2.9015
  182SLPC   O2120832   6.106   5.054  10.277  0.4592  0.4688  0.7817
  182SLPC   C2120833   6.102   5.187  10.296 -0.5588 -0.4428  0.1534
  182SLPC   O2220834   6.158   5.243  10.387  0.3198  0.0926 -0.6698
  182SLPC   C2220835   6.018   5.256  10.190  0.0860 -0.1060 -0.6991
  182SLPC   H2R20836   5.967   5.175  10.133  0.2598 -0.2625 -0.6346
  182SLPC   H2S20837   5.942   5.319  10.240 -0.6980 -0.7807 -1.0141
  182SLPC    C320838   6.186   4.831  10.328  0.6061 -0.4876  0.1878
  182SLPC    HX20839   6.082   4.791  10.336  0.1860  0.7825  1.4598
  182SLPC    HY20840   6.248   4.768  10.394  2.2466 -0.0507 -0.8601
  182SLPC   O3120841   6.238   4.816  10.192 -0.8646  0.3150 -0.3278
  182SLPC   C3120842   6.367   4.802  10.175  0.0274 -0.5063  0.8365
  182SLPC   O3220843   6.453   4.838  10.255 -0.5207 -0.0898 -0.1278
  182SLPC   C3220844   6.394   4.731  10.044  0.9048  0.6053  0.8448
  182SLPC   H2X20845   6.314   4.753   9.970  0.7911 -1.4023  0.3278
  182SLPC   H2Y20846   6.379   4.624  10.068  0.9581  0.2776 -0.4983
  182SLPC   C2320847   6.111   5.342  10.093  0.4019 -0.0118 -0.3955
  182SLPC   H3R20848   6.174   5.406  10.159 -0.8749 -1.5742  2.5352
  182SLPC   H3S20849   6.040   5.409  10.040  1.7414  0.6579 -1.3870
  182SLPC   C2420850   6.203   5.261  10.001  0.1869  0.1564  0.5037
  182SLPC   H4R20851   6.268   5.200  10.067 -0.6969 -0.6960  0.6117
  182SLPC   H4S20852   6.253   5.330   9.929 -0.2038 -0.6308 -0.5411
  182SLPC   C2520853   6.135   5.167   9.907  0.0437  0.0716  0.0027
  182SLPC   H5R20854   6.056   5.216   9.846  0.1946  1.0942  0.5921
  182SLPC   H5S20855   6.099   5.082   9.970  0.7981 -0.4944 -0.3226
  182SLPC   C2620856   6.239   5.111   9.799  0.0562 -0.6541 -0.1098
  182SLPC   H6R20857   6.329   5.063   9.843 -0.5665 -0.5040  1.3901
  182SLPC   H6S20858   6.272   5.187   9.725 -0.6921 -2.9998 -3.0531
  182SLPC   C2720859   6.164   5.012   9.714 -0.3737 -0.0349  0.0794
  182SLPC   H7R20860   6.065   5.032   9.668 -1.5403 -0.0453  2.4405
  182SLPC   H7S20861   6.154   4.919   9.774 -1.7233  0.6529  0.9855
  182SLPC   C2820862   6.253   4.966   9.586  0.7627 -0.7898 -0.2619
  182SLPC   H8R20863   6.354   4.936   9.620  0.4880 -0.5560  0.8134
  182SLPC   H8S20864   6.270   5.062   9.534  1.1171  0.1545  1.5390
  182SLPC   C2920865   6.188   4.872   9.487  0.2502  0.2498 -0.0801
  182SLPC   H9R20866   6.161   4.777   9.536  0.8874  1.4738  2.8900
  182SLPC  C21020867   6.165   4.888   9.358  0.3011 -0.0366 -0.1422
  182SLPC  H10R20868   6.122   4.800   9.308 -0.2960 -1.2344  2.2913
  182SLPC  C21120869   6.197   5.005   9.271 -0.0077  0.0180  0.2578
  182SLPC  H11R20870   6.297   4.984   9.226  0.9040 -1.3709  2.7354
  182SLPC  H11S20871   6.201   5.096   9.334 -2.6083  1.8454 -1.9883
  182SLPC  C21220872   6.092   5.020   9.165 -0.6228  0.4920  0.4144
  182SLPC  H12R20873   6.025   5.107   9.174 -2.3131 -0.6861 -0.3422
  182SLPC  C21320874   6.068   4.944   9.051 -0.6133  0.2726 -0.6936
  182SLPC  H13R20875   5.981   4.955   8.985 -0.4393  2.1807 -0.6336
  182SLPC  C21420876   6.152   4.819   9.022  0.0225 -0.7310 -0.2381
  182SLPC  H14R20877   6.132   4.740   9.097 -1.0568 -0.2194  0.0428
  182SLPC  H14S20878   6.260   4.846   9.017 -0.2096  0.0261 -1.9821
  182SLPC  C21520879   6.116   4.754   8.891  0.0898  0.7956 -0.4698
  182SLPC  H15R20880   6.005   4.746   8.885  0.1932 -0.5516 -0.9945
  182SLPC  H15S20881   6.151   4.649   8.904 -4.1044 -0.7135  0.4149
  182SLPC  C21620882   6.176   4.816   8.768  0.0912  0.0890 -0.0556
  182SLPC  H16R20883   6.284   4.790   8.778  0.3183  0.9915 -0.0284
  182SLPC  H16S20884   6.156   4.925   8.778 -0.0226  0.0650 -0.0214
  182SLPC  C21720885   6.129   4.755   8.638 -0.7313 -0.1836  0.0981
  182SLPC  H17R20886   6.142   4.645   8.630  3.8517  0.1296  0.9047
  182SLPC  H17S20887   6.180   4.797   8.548 -0.6225 -1.4816 -0.4847
  182SLPC  C21820888   5.977   4.781   8.613  0.1241 -0.1395 -0.3226
  182SLPC  H18R20889   5.923   4.713   8.681  1.4205 -0.6240  0.2428
  182SLPC  H18S20890   5.953   4.732   8.516  1.3707 -3.4538  0.9179
  182SLPC  H18T20891   5.950   4.888   8.629 -1.1813 -0.7662  2.0001
  182SLPC   C3320892   6.530   4.767   9.990 -0.2506 -0.2409 -0.0886
  182SLPC   H3X20893   6.596   4.754  10.078 -2.0480 -0.5263  1.2910
  182SLPC   H3Y20894   6.539   4.872   9.954  1.2409 -0.4784 -0.4361
  182SLPC   C3420895   6.574   4.685   9.874 -0.3810  0.2533  0.5495
  182SLPC   H4X20896   6.570   4.582   9.916 -3.2154  0.6264  1.3961
  182SLPC   H4Y20897   6.677   4.717   9.850 -0.3113 -0.6846 -0.5236
  182SLPC   C3520898   6.488   4.698   9.750  0.0883 -0.2656  0.4708
  182SLPC   H5X20899   6.509   4.794   9.699 -0.5252 -0.4467 -0.1475
  182SLPC   H5Y20900   6.377   4.694   9.747  0.0599  0.4360  0.4948
  182SLPC   C3620901   6.528   4.602   9.643 -0.2383 -0.5383  0.6227
  182SLPC   H6X20902   6.477   4.506   9.665  2.0332 -1.7989  0.7771
  182SLPC   H6Y20903   6.638   4.586   9.637 -0.0769  1.0652 -2.0042
  182SLPC   C3720904   6.493   4.662   9.505  0.2515 -0.0254  0.4691
  182SLPC   H7X20905   6.539   4.762   9.486  0.3819 -0.1564  0.0868
  182SLPC   H7Y20906   6.384   4.685   9.500  0.1464 -0.7626 -1.5203
  182SLPC   C3820907   6.529   4.576   9.387  0.8071 -0.8244  1.0636
  182SLPC   H8X20908   6.470   4.482   9.398  0.2432 -0.7785 -1.0948
  182SLPC   H8Y20909   6.639   4.563   9.378  0.6766 -1.3950  0.1066
  182SLPC   C3920910   6.480   4.630   9.248  0.6717  0.6859 -0.3141
  182SLPC   H9X20911   6.512   4.736   9.238 -2.0668  1.6671  0.2507
  182SLPC   H9Y20912   6.369   4.639   9.245  0.6037  0.3732  0.8131
  182SLPC  C31020913   6.530   4.536   9.139 -0.2075  0.6123  0.7597
  182SLPC  H10X20914   6.487   4.434   9.149  1.1791 -0.1234 -0.5017
  182SLPC  H10Y20915   6.641   4.527   9.143 -0.0601  2.0370  0.3135
  182SLPC  C31120916   6.494   4.591   8.992  0.0443 -0.7825  0.1448
  182SLPC  H11X20917   6.530   4.692   8.964 -0.0634 -0.4583  1.1611
  182SLPC  H11Y20918   6.383   4.588   8.986  0.1002 -0.9255 -1.0424
  182SLPC  C31220919   6.540   4.501   8.876 -0.0805  0.2624  0.3454
  182SLPC  H12X20920   6.518   4.396   8.905  1.4413 -0.2464 -0.2724
  182SLPC  H12Y20921   6.649   4.508   8.857 -0.2684 -2.1472 -2.1338
  182SLPC  C31320922   6.463   4.543   8.748  0.2891 -0.2894  0.4758
  182SLPC  H13X20923   6.386   4.615   8.782  0.0332 -0.6745  0.7026
  182SLPC  H13Y20924   6.422   4.455   8.696  0.5016 -0.2913  0.3079
  182SLPC  C31420925   6.556   4.625   8.653  0.4388  0.6893  0.0771
  182SLPC  H14X20926   6.610   4.693   8.722  0.0141 -0.6564  1.8429
  182SLPC  H14Y20927   6.490   4.691   8.593 -1.9372  0.3892  2.1921
  182SLPC  C31520928   6.668   4.557   8.569 -0.3615  0.9031 -0.0023
  182SLPC  H15X20929   6.722   4.483   8.632  2.4798  0.7658 -2.3796
  182SLPC  H15Y20930   6.744   4.626   8.526  1.9903 -0.5739  1.5755
  182SLPC  C31620931   6.601   4.473   8.462 -0.0339 -0.1377  0.2794
  182SLPC  H16X20932   6.557   4.539   8.384  2.0728  1.3419  0.2700
  182SLPC  H16Y20933   6.508   4.425   8.501  0.5032 -0.5724  1.0452
  182SLPC  C31720934   6.708   4.372   8.400 -0.3883 -0.2487 -0.3650
  182SLPC  H17X20935   6.744   4.295   8.471 -0.1261 -0.3728 -0.6323
  182SLPC  H17Y20936   6.796   4.436   8.378  0.2645 -0.8852  0.3290
  182SLPC  C31820937   6.667   4.305   8.278 -0.7306  0.0824  0.0072
  182SLPC  H18X20938   6.754   4.244   8.246 -0.2434  1.0527 -0.5712
  182SLPC  H18Y20939   6.628   4.368   8.195 -1.7484 -0.2373  0.2265
  182SLPC  H18Z20940   6.582   4.239   8.305 -1.1427 -0.1540 -1.7325
  183SLPC     N20941   6.362   6.652  10.736 -0.5730 -0.1578 -0.8268
  183SLPC   C1320942   6.224   6.708  10.707 -0.0336  0.0421  0.3403
  183SLPC  H13A20943   6.168   6.630  10.657 -1.7426 -0.2621  2.5999
  183SLPC  H13B20944   6.169   6.736  10.795 -0.8695 -3.1735  0.9474
  183SLPC  H13C20945   6.235   6.793  10.640 -1.1640  1.1936  1.5523
  183SLPC   C1420946   6.451   6.770  10.777 -0.2326  0.0134 -0.9777
  183SLPC  H14A20947   6.411   6.819  10.865 -0.4527  0.3081 -1.2444
  183SLPC  H14B20948   6.554   6.745  10.798 -0.9030 -0.5651  2.2735
  183SLPC  H14C20949   6.447   6.856  10.713  0.2794  1.9474  1.4173
  183SLPC   C1520950   6.417   6.596  10.614 -0.1481  0.0657 -0.2476
  183SLPC  H15A20951   6.368   6.505  10.585 -0.3809 -0.7387  2.4096
  183SLPC  H15B20952   6.424   6.674  10.539  2.7779  0.9961  0.8256
  183SLPC  H15C20953   6.522   6.576  10.631  0.0110  1.9807  1.5632
  183SLPC   C1220954   6.351   6.547  10.846  0.3982  0.0548 -0.3257
  183SLPC  H12A20955   6.278   6.475  10.813 -0.8365  1.2621 -0.3350
  183SLPC  H12B20956   6.307   6.597  10.931 -1.1903 -1.2309 -0.3595
  183SLPC   C1120957   6.482   6.475  10.880  0.3020 -0.7183  0.1121
  183SLPC  H11A20958   6.461   6.407  10.964 -0.9688 -2.5201 -1.5822
  183SLPC  H11B20959   6.560   6.542  10.923 -1.1554 -0.5196  2.6057
  183SLPC     P20960   6.457   6.266  10.721 -0.4314  0.1331  0.0221
  183SLPC   O1320961   6.542   6.156  10.764  0.1568  0.3041  0.5964
  183SLPC   O1420962   6.319   6.262  10.767 -0.5891  0.6488  0.0494
  183SLPC   O1220963   6.524   6.400  10.767 -0.2698  0.0602 -0.2238
  183SLPC   O1120964   6.460   6.261  10.562  0.3594  0.0355  0.1489
  183SLPC    C120965   6.574   6.315  10.492 -0.2258 -0.1946 -0.5711
  183SLPC    HA20966   6.556   6.416  10.450  0.3210 -0.7169 -2.1403
  183SLPC    HB20967   6.664   6.326  10.556 -0.6906 -2.8829  0.7127
  183SLPC    C220968   6.602   6.218  10.378  0.2363 -0.0867 -0.4731
  183SLPC    HS20969   6.670   6.271  10.308 -1.3874  2.5106 -0.2271
  183SLPC   O2120970   6.485   6.168  10.299 -0.3703  0.0940  0.4019
  183SLPC   C2120971   6.436   6.249  10.201 -0.6118 -0.4264 -0.1393
  183SLPC   O2220972   6.481   6.361  10.182  0.3319 -0.6551 -0.0799
  183SLPC   C2220973   6.345   6.166  10.112 -0.5997 -0.5683  0.7279
  183SLPC   H2R20974   6.309   6.081  10.174 -1.1166 -0.9375 -0.0615
  183SLPC   H2S20975   6.255   6.228  10.091  0.9953  2.1538  1.3953
  183SLPC    C320976   6.682   6.095  10.426 -0.1850  0.3881  0.3410
  183SLPC    HX20977   6.624   6.026  10.491 -1.8909  0.4596 -1.0378
  183SLPC    HY20978   6.760   6.132  10.496  1.0314  0.8512 -1.2036
  183SLPC   O3120979   6.747   6.032  10.319  0.0803  0.3280 -0.7288
  183SLPC   C3120980   6.761   5.900  10.337  0.5766  0.0001  0.0454
  183SLPC   O3220981   6.769   5.848  10.449  1.0792  0.1010  0.6970
  183SLPC   C3220982   6.779   5.829  10.205 -0.3815 -0.4475 -0.0877
  183SLPC   H2X20983   6.800   5.720  10.209 -1.0577 -0.5965 -0.4989
  183SLPC   H2Y20984   6.872   5.880  10.171 -0.7351  2.1332  2.4436
  183SLPC   C2320985   6.399   6.122   9.974  0.0751 -0.1981  0.6728
  183SLPC   H3R20986   6.362   6.020   9.949 -0.6519  0.4122 -0.8565
  183SLPC   H3S20987   6.507   6.108   9.996  0.4754  1.1066 -0.3310
  183SLPC   C2420988   6.385   6.209   9.845  0.2705  0.9460 -0.7122
  183SLPC   H4R20989   6.468   6.175   9.779 -1.0518 -0.1659 -1.8887
  183SLPC   H4S20990   6.388   6.318   9.866  0.1958  1.2941 -2.3600
  183SLPC   C2520991   6.257   6.176   9.767  0.2110 -0.6997  0.0787
  183SLPC   H5R20992   6.179   6.166   9.845 -1.2315  1.2505 -1.0216
  183SLPC   H5S20993   6.278   6.074   9.729 -0.2832 -0.7915  0.0453
  183SLPC   C2620994   6.221   6.270   9.652 -0.1557 -0.1622  0.0643
  183SLPC   H6R20995   6.128   6.237   9.602 -0.7514  1.6566 -0.0883
  183SLPC   H6S20996   6.300   6.258   9.575 -0.7213 -0.6828 -0.4538
  183SLPC   C2720997   6.211   6.414   9.690 -0.2962  0.1143 -0.7379
  183SLPC   H7R20998   6.309   6.447   9.733 -0.9718 -0.3132  1.2528
  183SLPC   H7S20999   6.139   6.415   9.774  1.4218  1.7863  0.8181
  183SLPC   C2821000   6.154   6.501   9.579 -0.2885 -0.1367 -1.0841
  183SLPC   H8R21001   6.138   6.603   9.621  0.8179  0.0142 -0.9947
  183SLPC   H8S21002   6.052   6.464   9.560  1.0360 -4.5626 -0.6241
  183SLPC   C2921003   6.246   6.524   9.459  0.4410  0.7542 -1.1308
  183SLPC   H9R21004   6.352   6.500   9.475  0.2352  0.8206  0.4653
  183SLPC  C21021005   6.207   6.558   9.333  0.8311  0.0820 -0.4501
  183SLPC  H10R21006   6.290   6.578   9.263 -0.8233  2.9193 -1.7947
  183SLPC  C21121007   6.066   6.580   9.281  0.2625 -0.4733  0.6451
  183SLPC  H11R21008   6.069   6.678   9.227  0.4792 -0.6332  0.3611
  183SLPC  H11S21009   5.990   6.576   9.361  1.6319  1.5000  2.1423
  183SLPC  C21221010   6.034   6.478   9.175  0.4885 -0.5561 -0.2336
  183SLPC  H12R21011   5.980   6.392   9.218 -1.0924  1.0156  1.0621
  183SLPC  C21321012   6.044   6.500   9.040 -0.6927  0.5012 -0.0912
  183SLPC  H13R21013   6.014   6.417   8.974  1.7485 -0.0703 -0.5674
  183SLPC  C21421014   6.111   6.615   8.975  0.3025 -0.2027  0.3859
  183SLPC  H14R21015   6.147   6.703   9.032  1.3188  0.3990 -1.1197
  183SLPC  H14S21016   6.038   6.660   8.905  0.4385  0.3416  0.5905
  183SLPC  C21521017   6.235   6.561   8.896 -0.4959 -0.0541 -0.1391
  183SLPC  H15R21018   6.209   6.468   8.842  1.5194  0.0158 -1.3297
  183SLPC  H15S21019   6.311   6.535   8.973 -0.9893 -1.1307  0.0029
  183SLPC  C21621020   6.285   6.665   8.793  0.3875  0.5958 -0.1618
  183SLPC  H16R21021   6.301   6.760   8.846 -1.3613  0.6854  0.2809
  183SLPC  H16S21022   6.218   6.679   8.705  1.3412  0.5782 -0.9094
  183SLPC  C21721023   6.418   6.614   8.730 -0.1231  0.0359 -0.2574
  183SLPC  H17R21024   6.405   6.508   8.697 -0.2864 -0.2564  0.6909
  183SLPC  H17S21025   6.494   6.610   8.811 -0.8472  0.1655  0.4439
  183SLPC  C21821026   6.462   6.712   8.613 -0.3636  0.0843 -0.2431
  183SLPC  H18R21027   6.392   6.694   8.528 -1.3944 -0.8273  0.7650
  183SLPC  H18S21028   6.562   6.675   8.581 -1.0260 -0.2639 -2.0796
  183SLPC  H18T21029   6.456   6.818   8.644 -0.2377 -0.7007  2.7512
  183SLPC   C3321030   6.669   5.858  10.098  0.3570  1.1105  0.2612
  183SLPC   H3X21031   6.692   5.950  10.039 -0.9894 -0.3872 -2.8021
  183SLPC   H3Y21032   6.570   5.866  10.148  0.2420  0.3432  0.1534
  183SLPC   C3421033   6.652   5.749   9.989 -0.3372  0.1666  0.3585
  183SLPC   H4X21034   6.574   5.675  10.015 -0.4814 -0.2597 -1.1882
  183SLPC   H4Y21035   6.742   5.685   9.981 -2.0451 -2.1060 -3.0015
  183SLPC   C3521036   6.606   5.815   9.848 -0.0893  0.6051 -0.5445
  183SLPC   H5X21037   6.682   5.896   9.833 -1.1874  1.3837 -2.1307
  183SLPC   H5Y21038   6.507   5.862   9.861 -0.2412  0.7907 -2.1710
  183SLPC   C3621039   6.598   5.712   9.735 -0.3657  0.2391  0.3590
  183SLPC   H6X21040   6.516   5.639   9.753  0.9301 -1.4313 -0.2223
  183SLPC   H6Y21041   6.687   5.647   9.747  0.1753  1.0345  0.7659
  183SLPC   C3721042   6.600   5.758   9.584  0.8086 -0.7067 -1.0430
  183SLPC   H7X21043   6.614   5.665   9.525  1.3430 -0.4439 -1.3313
  183SLPC   H7Y21044   6.685   5.829   9.579 -1.0248  1.8240  1.1053
  183SLPC   C3821045   6.477   5.843   9.540 -0.5868 -0.6482  0.1863
  183SLPC   H8X21046   6.430   5.884   9.632  0.2289 -0.9009  0.7246
  183SLPC   H8Y21047   6.405   5.769   9.498 -0.7833 -0.3665  0.0170
  183SLPC   C3921048   6.512   5.965   9.450 -0.5904  0.0156  0.3394
  183SLPC   H9X21049   6.575   5.923   9.369 -1.6798 -1.0408  0.0043
  183SLPC   H9Y21050   6.574   6.042   9.500  0.0792  0.3749 -1.0073
  183SLPC  C31021051   6.388   6.029   9.389  1.0451 -0.4531 -0.7954
  183SLPC  H10X21052   6.404   6.131   9.349 -2.2467  1.8496  3.0511
  183SLPC  H10Y21053   6.317   6.051   9.471 -2.0648 -0.7794 -3.2274
  183SLPC  C31121054   6.321   5.933   9.293  0.0851  0.9519  0.5121
  183SLPC  H11X21055   6.300   5.837   9.346  3.7618 -0.6749 -0.6060
  183SLPC  H11Y21056   6.400   5.907   9.219 -0.7429 -2.7487  0.7458
  183SLPC  C31221057   6.201   6.004   9.226 -0.3029 -0.4748  0.0382
  183SLPC  H12X21058   6.239   6.100   9.184 -3.3372  0.0857 -1.7281
  183SLPC  H12Y21059   6.138   6.050   9.305  1.4106  2.7461 -0.2811
  183SLPC  C31321060   6.121   5.933   9.118  0.3402 -0.2474 -0.4512
  183SLPC  H13X21061   6.057   5.997   9.053 -0.3542 -0.6584 -0.1896
  183SLPC  H13Y21062   6.049   5.863   9.166 -1.9057  1.9563 -0.4078
  183SLPC  C31421063   6.220   5.859   9.023 -0.4993  0.1076  0.5120
  183SLPC  H14X21064   6.282   5.783   9.076 -0.1421 -1.0585 -1.4753
  183SLPC  H14Y21065   6.291   5.938   8.992  0.2841  0.2536  2.4905
  183SLPC  C31521066   6.157   5.786   8.902 -0.1014  0.0739  1.2020
  183SLPC  H15X21067   6.082   5.845   8.845 -0.9992 -0.3774  1.8848
  183SLPC  H15Y21068   6.105   5.697   8.944 -1.8555  0.0308 -0.9161
  183SLPC  C31621069   6.255   5.733   8.799 -0.3467  0.2168  0.0728
  183SLPC  H16X21070   6.211   5.650   8.740 -1.5381 -0.4471  1.8323
  183SLPC  H16Y21071   6.339   5.691   8.859  0.0754 -0.5222 -1.0082
  183SLPC  C31721072   6.291   5.841   8.696  0.0439  0.3939  0.7557
  183SLPC  H17X21073   6.389   5.830   8.646 -0.6834 -1.0342 -0.4294
  183SLPC  H17Y21074   6.287   5.941   8.745 -0.1040 -0.7743  3.3329
  183SLPC  C31821075   6.185   5.831   8.583 -0.1043 -0.2841 -0.5928
  183SLPC  H18X21076   6.197   5.915   8.511 -1.1462 -0.2912 -0.7925
  183SLPC  H18Y21077   6.084   5.848   8.627 -0.3439  0.9332 -1.5676
  183SLPC  H18Z21078   6.190   5.729   8.539 -2.1261 -1.2254  1.1696
  184SLPC     N21079   4.369   1.655  10.445 -0.1614 -0.3165 -0.3891
  184SLPC   C1321080   4.356   1.708  10.578 -0.2050  0.1013 -0.0558
  184SLPC  H13A21081   4.251   1.722  10.603  0.6380  0.6067  3.6597
  184SLPC  H13B21082   4.402   1.632  10.638  0.8856  0.9593  0.2201
  184SLPC  H13C21083   4.418   1.796  10.584  2.1286 -1.4928  0.3490
  184SLPC   C1421084   4.308   1.753  10.351 -1.1801  0.7440 -0.8435
  184SLPC  H14A21085   4.339   1.738  10.248  0.9243  3.8834 -0.8139
  184SLPC  H14B21086   4.201   1.764  10.344 -1.5629 -1.2585  0.9160
  184SLPC  H14C21087   4.345   1.852  10.374 -0.4636  0.9954 -2.8535
  184SLPC   C1521088   4.296   1.529  10.432  0.7374 -0.5793 -0.3448
  184SLPC  H15A21089   4.267   1.499  10.333  2.9528 -0.2946 -1.1267
  184SLPC  H15B21090   4.344   1.443  10.477  0.5764 -0.9395 -0.8501
  184SLPC  H15C21091   4.202   1.542  10.484  1.1564 -0.2306  0.3428
  184SLPC   C1221092   4.520   1.632  10.414  0.4237 -0.1155 -0.4619
  184SLPC  H12A21093   4.539   1.593  10.316  2.2544 -0.7146  0.0919
  184SLPC  H12B21094   4.552   1.561  10.489 -0.2344  1.5097  1.4601
  184SLPC   C1121095   4.613   1.756  10.410 -0.0044  0.1079  0.1496
  184SLPC  H11A21096   4.612   1.801  10.511  0.3579  1.0768 -0.2747
  184SLPC  H11B21097   4.574   1.821  10.329 -1.1306 -2.6314 -1.6753
  184SLPC     P21098   4.869   1.803  10.390 -0.2025  0.3885 -0.2333
  184SLPC   O1321099   4.833   1.933  10.447  0.1263 -0.5281 -0.1060
  184SLPC   O1421100   4.990   1.738  10.451  0.3267  0.7867 -0.3318
  184SLPC   O1221101   4.745   1.702  10.392  0.1116 -0.0538  0.4761
  184SLPC   O1121102   4.906   1.826  10.239  0.1605  0.1697  0.8499
  184SLPC    C121103   4.904   1.700  10.164  0.0242 -0.6216  0.8005
  184SLPC    HA21104   5.009   1.695  10.128 -0.4755 -1.4571 -0.6064
  184SLPC    HB21105   4.893   1.608  10.225  1.1624 -0.4231  1.3326
  184SLPC    C221106   4.804   1.696  10.048  0.3974 -0.2999 -0.6504
  184SLPC    HS21107   4.781   1.589  10.030 -0.0513 -0.1090 -1.2508
  184SLPC   O2121108   4.871   1.760   9.937  0.1009  0.5929  0.1785
  184SLPC   C2121109   4.853   1.703   9.821  0.1446  0.2051 -0.4047
  184SLPC   O2221110   4.791   1.599   9.802  0.2323  0.4439  0.0471
  184SLPC   C2221111   4.938   1.786   9.712  0.5546 -0.2868 -0.2129
  184SLPC   H2R21112   4.941   1.893   9.742  1.8231 -0.4603  0.3587
  184SLPC   H2S21113   5.043   1.750   9.725  0.0617 -1.0633  2.1401
  184SLPC    C321114   4.665   1.759  10.068  0.1370  0.2985  0.3797
  184SLPC    HX21115   4.673   1.863  10.108 -2.0660  1.1013 -1.0573
  184SLPC    HY21116   4.607   1.697  10.140 -2.2093  2.6850  0.7145
  184SLPC   O3121117   4.594   1.761   9.941 -0.0524 -0.1157 -0.4523
  184SLPC   C3121118   4.465   1.744   9.934  0.0630 -0.9322  0.2147
  184SLPC   O3221119   4.398   1.696  10.018  0.0410  0.2990 -0.4846
  184SLPC   C3221120   4.424   1.800   9.796  0.5638  0.5883 -0.0197
  184SLPC   H2X21121   4.473   1.900   9.791  0.8340  0.6282  2.3375
  184SLPC   H2Y21122   4.316   1.821   9.787  0.9003  1.7201 -2.0483
  184SLPC   C2321123   4.889   1.770   9.565  0.0440  0.2820  0.0562
  184SLPC   H3R21124   4.785   1.809   9.558  0.0414  0.2057 -0.3622
  184SLPC   H3S21125   4.887   1.662   9.541  0.3512  0.8001 -2.5897
  184SLPC   C2421126   4.970   1.836   9.455  0.3315 -0.5331 -0.5752
  184SLPC   H4R21127   5.073   1.796   9.469 -0.2369 -1.5308  1.0361
  184SLPC   H4S21128   4.965   1.947   9.458  0.7446 -0.5276  0.6126
  184SLPC   C2521129   4.912   1.783   9.323 -0.2522 -0.1953  0.4479
  184SLPC   H5R21130   4.882   1.678   9.341 -0.5174 -0.0394  0.9396
  184SLPC   H5S21131   4.993   1.785   9.247  0.0966 -0.6120  0.8077
  184SLPC   C2621132   4.786   1.868   9.278 -0.7936 -0.2453  0.2163
  184SLPC   H6R21133   4.807   1.977   9.281  1.7896 -0.6863  0.1842
  184SLPC   H6S21134   4.703   1.857   9.352 -1.0360  1.0575  0.1619
  184SLPC   C2721135   4.744   1.829   9.138  0.3855  0.6662 -0.2009
  184SLPC   H7R21136   4.710   1.723   9.146 -0.5490  0.9969  0.3940
  184SLPC   H7S21137   4.835   1.832   9.074  1.4360  0.9281  1.2448
  184SLPC   C2821138   4.630   1.909   9.071  0.1032  0.0107  0.3045
  184SLPC   H8R21139   4.554   1.932   9.149  1.9391 -2.0585  2.8660
  184SLPC   H8S21140   4.595   1.836   8.995  1.5229 -0.9518  0.5352
  184SLPC   C2921141   4.697   2.037   9.012  0.1093  0.1522  0.8915
  184SLPC   H9R21142   4.741   2.109   9.083  2.5904  0.8000 -1.1342
  184SLPC  C21021143   4.717   2.063   8.881 -0.7192  0.3514  0.4163
  184SLPC  H10R21144   4.775   2.153   8.854  1.1641 -0.6823  0.8528
  184SLPC  C21121145   4.677   1.983   8.757  0.6536 -0.2294 -0.3766
  184SLPC  H11R21146   4.568   1.963   8.765  0.6038  0.1243 -0.1234
  184SLPC  H11S21147   4.728   1.885   8.766  0.5882 -0.2404 -0.1330
  184SLPC  C21221148   4.709   2.049   8.625  0.2611 -0.1930  0.9712
  184SLPC  H12R21149   4.735   2.156   8.626  1.3825 -0.3532 -1.6972
  184SLPC  C21321150   4.692   1.989   8.509  0.6711 -0.0677  0.5157
  184SLPC  H13R21151   4.723   2.039   8.416  1.0460  0.5543  0.9692
  184SLPC  C21421152   4.647   1.848   8.475  0.3330 -0.6529  0.2758
  184SLPC  H14R21153   4.647   1.784   8.566  0.1275 -1.3817 -0.2268
  184SLPC  H14S21154   4.724   1.811   8.404  0.8383  1.1351 -0.1640
  184SLPC  C21521155   4.509   1.850   8.417  0.2391 -0.0347  0.5743
  184SLPC  H15R21156   4.489   1.749   8.375  1.8358 -0.3319  0.4795
  184SLPC  H15S21157   4.508   1.925   8.335 -2.2830 -1.7081 -1.0741
  184SLPC  C21621158   4.404   1.898   8.518  0.1450 -0.7972 -0.8209
  184SLPC  H16R21159   4.409   2.007   8.536 -2.7403 -0.6519 -0.3986
  184SLPC  H16S21160   4.409   1.843   8.614  1.2536  2.6480  1.2833
  184SLPC  C21721161   4.265   1.885   8.455  0.2939 -0.1992  0.2257
  184SLPC  H17R21162   4.242   1.776   8.456  1.5739 -0.4892 -0.0767
  184SLPC  H17S21163   4.266   1.917   8.349  0.2472 -0.8585  0.0202
  184SLPC  C21821164   4.160   1.959   8.540  0.6268 -0.0757  0.1145
  184SLPC  H18R21165   4.136   1.907   8.635  1.2395 -0.5794  0.0018
  184SLPC  H18S21166   4.064   1.968   8.484  0.6800 -1.8857 -0.3338
  184SLPC  H18T21167   4.193   2.061   8.569 -0.3434  0.6459 -1.2205
  184SLPC   C3321168   4.479   1.712   9.681 -0.1979 -0.2683 -0.3097
  184SLPC   H3X21169   4.446   1.607   9.698 -0.1204 -0.1803  0.4068
  184SLPC   H3Y21170   4.589   1.701   9.694 -0.5329 -0.5279  3.3221
  184SLPC   C3421171   4.432   1.761   9.547 -0.2593  0.3352 -0.0710
  184SLPC   H4X21172   4.506   1.837   9.513 -0.1604  0.0897 -0.4034
  184SLPC   H4Y21173   4.336   1.817   9.552  1.4398  3.4755  0.6139
  184SLPC   C3521174   4.421   1.642   9.443 -0.3046  0.2721  0.1845
  184SLPC   H5X21175   4.364   1.561   9.494  0.7022 -0.4339  0.2428
  184SLPC   H5Y21176   4.522   1.598   9.429  1.7120  3.9382  1.7444
  184SLPC   C3621177   4.360   1.685   9.308 -0.1473 -0.0112 -0.0556
  184SLPC   H6X21178   4.430   1.762   9.269 -0.5627 -0.1502 -1.1101
  184SLPC   H6Y21179   4.264   1.740   9.319 -0.0113  0.1841  0.1331
  184SLPC   C3721180   4.352   1.577   9.193  0.2655 -0.3848 -0.4020
  184SLPC   H7X21181   4.251   1.540   9.165  0.2695 -0.5827 -0.1679
  184SLPC   H7Y21182   4.404   1.485   9.229  2.0386  0.1005 -1.6038
  184SLPC   C3821183   4.430   1.622   9.069  0.0953 -0.5024  0.2602
  184SLPC   H8X21184   4.533   1.633   9.111 -0.3741 -1.9872  1.9128
  184SLPC   H8Y21185   4.404   1.725   9.039  0.8163 -0.5459 -0.5599
  184SLPC   C3921186   4.435   1.523   8.951  0.2877  0.6402 -0.1749
  184SLPC   H9X21187   4.335   1.511   8.904  0.5579  0.7322 -0.7813
  184SLPC   H9Y21188   4.466   1.426   8.996 -0.5873 -0.3200 -1.5641
  184SLPC  C31021189   4.516   1.574   8.827 -1.0647  0.1511  0.1853
  184SLPC  H10X21190   4.613   1.603   8.871 -0.8841 -0.2295  0.0443
  184SLPC  H10Y21191   4.464   1.664   8.788 -0.2289  0.1786 -0.9081
  184SLPC  C31121192   4.529   1.467   8.714 -0.2541 -0.6821 -0.3180
  184SLPC  H11X21193   4.579   1.380   8.761  3.1525  0.1345 -2.1626
  184SLPC  H11Y21194   4.601   1.510   8.642 -1.9699 -0.0711 -1.7383
  184SLPC  C31221195   4.399   1.431   8.641 -0.1896  0.3644  0.7629
  184SLPC  H12X21196   4.365   1.506   8.567  1.2589 -1.3241 -1.7857
  184SLPC  H12Y21197   4.317   1.410   8.713  1.1615  0.2002  2.3212
  184SLPC  C31321198   4.422   1.307   8.552 -0.7502  0.0640 -0.0401
  184SLPC  H13X21199   4.449   1.228   8.625  1.4044 -1.0222 -1.8756
  184SLPC  H13Y21200   4.517   1.322   8.497  1.6729 -0.5410  3.6348
  184SLPC  C31421201   4.311   1.281   8.450  0.0039  0.6898  0.5177
  184SLPC  H14X21202   4.298   1.369   8.384  3.1890  1.0026  0.1510
  184SLPC  H14Y21203   4.216   1.258   8.503 -0.7089 -0.2703 -1.0942
  184SLPC  C31521204   4.327   1.153   8.376 -0.1039  0.5809  0.3419
  184SLPC  H15X21205   4.355   1.064   8.437  3.4050 -0.2718 -2.2093
  184SLPC  H15Y21206   4.417   1.153   8.311 -0.8137  1.9585 -0.6908
  184SLPC  C31621207   4.205   1.108   8.288  0.0690 -0.7981 -0.6233
  184SLPC  H16X21208   4.126   1.088   8.363 -0.1155  0.0634 -0.5754
  184SLPC  H16Y21209   4.223   1.016   8.229  0.1676 -0.8213 -0.5574
  184SLPC  C31721210   4.150   1.219   8.198 -0.1837  0.5611  0.8050
  184SLPC  H17X21211   4.233   1.251   8.133 -0.2978 -1.0444 -0.2032
  184SLPC  H17Y21212   4.120   1.309   8.256  0.3866  2.0131 -1.0673
  184SLPC  C31821213   4.036   1.170   8.112 -0.1832 -0.5104 -0.0187
  184SLPC  H18X21214   3.958   1.122   8.175 -0.7679  0.5307  0.0771
  184SLPC  H18Y21215   4.072   1.113   8.023 -0.3835 -0.3472 -0.2063
  184SLPC  H18Z21216   3.977   1.253   8.066 -3.4149 -1.7210  1.5849
  185SLPC     N21217   2.283   5.846   5.927 -0.0092 -0.1915 -0.2276
  185SLPC   C1321218   2.429   5.837   5.916 -0.0645 -0.1016  0.6062
  185SLPC  H13A21219   2.484   5.930   5.921  1.3565 -0.9542  1.4157
  185SLPC  H13B21220   2.468   5.768   5.989 -1.1087 -2.3191 -0.8522
  185SLPC  H13C21221   2.457   5.811   5.816 -3.0313 -0.5197 -0.2208
  185SLPC   C1421222   2.218   5.710   5.888 -0.3408 -0.1709  0.1836
  185SLPC  H14A21223   2.250   5.624   5.946 -3.1100 -1.4005  0.0454
  185SLPC  H14B21224   2.111   5.718   5.897 -0.2586  3.9503 -0.7006
  185SLPC  H14C21225   2.228   5.684   5.784 -2.3542 -0.7663  0.1027
  185SLPC   C1521226   2.224   5.941   5.833  0.5025 -0.4423 -0.3869
  185SLPC  H15A21227   2.266   6.040   5.847  0.3906 -0.5520  0.8119
  185SLPC  H15B21228   2.245   5.916   5.730 -2.6768  0.1725 -1.2932
  185SLPC  H15C21229   2.118   5.945   5.852  0.3853 -0.3524 -1.0639
  185SLPC   C1221230   2.238   5.876   6.067 -0.3978  0.3325 -0.0233
  185SLPC  H12A21231   2.289   5.806   6.132  0.9731  1.9049  0.6634
  185SLPC  H12B21232   2.131   5.868   6.071 -0.2479 -1.7818  1.0057
  185SLPC   C1121233   2.279   6.015   6.114 -0.2132 -0.0056 -0.0271
  185SLPC  H11A21234   2.234   6.038   6.214 -0.4980 -2.0312  0.3628
  185SLPC  H11B21235   2.226   6.097   6.062 -0.2451 -0.4474 -0.6961
  185SLPC     P21236   2.519   5.996   6.221 -0.1494  0.0862  0.0654
  185SLPC   O1321237   2.491   5.850   6.244 -0.7344  0.4506  0.9515
  185SLPC   O1421238   2.658   6.019   6.186 -0.0760  0.5649  0.0337
  185SLPC   O1221239   2.418   6.044   6.112 -0.3238  0.0472 -0.4848
  185SLPC   O1121240   2.483   6.072   6.353  0.3621 -0.3066  0.0999
  185SLPC    C121241   2.514   6.206   6.389 -0.4707 -0.3286  0.2201
  185SLPC    HA21242   2.612   6.229   6.343 -1.2209  0.1178 -1.1864
  185SLPC    HB21243   2.434   6.277   6.358 -1.5447 -2.5087 -2.3811
  185SLPC    C221244   2.529   6.225   6.543 -0.0931  0.7467 -0.4324
  185SLPC    HS21245   2.628   6.183   6.572 -0.7561 -0.1748  0.5840
  185SLPC   O2121246   2.421   6.154   6.611 -0.4161 -0.2608 -0.2683
  185SLPC   C2121247   2.438   6.028   6.630 -0.1615 -0.7036 -0.5671
  185SLPC   O2221248   2.543   5.969   6.612  0.1288  0.1141 -0.4618
  185SLPC   C2221249   2.310   5.964   6.682  0.0961 -0.5499  0.4340
  185SLPC   H2R21250   2.247   6.035   6.740 -0.2448  1.5678 -2.3768
  185SLPC   H2S21251   2.256   5.949   6.586 -0.2305  2.4048  0.0586
  185SLPC    C321252   2.521   6.373   6.590 -0.5729  0.6006 -0.7869
  185SLPC    HX21253   2.431   6.427   6.553 -0.3009  1.2799 -0.4867
  185SLPC    HY21254   2.612   6.416   6.541  1.5320 -0.2538  2.1076
  185SLPC   O3121255   2.535   6.394   6.732 -0.2104  0.5279 -0.0142
  185SLPC   C3121256   2.421   6.405   6.797  0.5963 -0.4158 -0.0842
  185SLPC   O3221257   2.311   6.420   6.743  0.4370 -0.3696  0.2432
  185SLPC   C3221258   2.447   6.405   6.944  0.1201 -0.1674 -0.1569
  185SLPC   H2X21259   2.550   6.365   6.958 -0.1847 -0.9701 -0.1752
  185SLPC   H2Y21260   2.381   6.338   7.003  0.3696  1.3968  2.0051
  185SLPC   C2321261   2.344   5.833   6.761  0.5878  0.5630  0.4525
  185SLPC   H3R21262   2.409   5.763   6.703  0.3237  1.6302 -1.2066
  185SLPC   H3S21263   2.250   5.776   6.774  0.2588  0.3895 -2.1079
  185SLPC   C2421264   2.405   5.854   6.905 -0.2797 -0.1914  0.5348
  185SLPC   H4R21265   2.502   5.904   6.887 -0.7550  0.9294  0.9919
  185SLPC   H4S21266   2.427   5.753   6.944  1.8146  0.3264  0.7871
  185SLPC   C2521267   2.330   5.937   7.004  0.0048 -0.4104 -0.3349
  185SLPC   H5R21268   2.226   5.897   7.013  0.3210 -1.5423 -1.3424
  185SLPC   H5S21269   2.325   6.042   6.969 -1.0076 -0.2217  0.3352
  185SLPC   C2621270   2.385   5.953   7.148 -0.4862  0.1852  0.0758
  185SLPC   H6R21271   2.470   6.024   7.147  1.7019 -2.3174 -0.1393
  185SLPC   H6S21272   2.421   5.857   7.190 -1.0284 -0.9416 -1.8698
  185SLPC   C2721273   2.293   6.012   7.257  0.6849  0.1770  0.1907
  185SLPC   H7R21274   2.213   5.937   7.274 -0.0299  1.3960  2.5487
  185SLPC   H7S21275   2.250   6.105   7.215 -1.0849 -1.5663 -2.2418
  185SLPC   C2821276   2.356   6.049   7.392  0.6620 -0.0180  1.0157
  185SLPC   H8R21277   2.278   6.099   7.452  0.0507  0.8053 -0.4080
  185SLPC   H8S21278   2.434   6.125   7.368  1.2796 -0.5738  1.2353
  185SLPC   C2921279   2.438   5.946   7.457 -0.6981  0.4638  0.0289
  185SLPC   H9R21280   2.496   5.878   7.393 -0.4882 -0.6223  1.3206
  185SLPC  C21021281   2.472   5.946   7.590 -0.3999 -0.0020 -0.0753
  185SLPC  H10R21282   2.534   5.863   7.628 -1.5026 -0.2225  1.2921
  185SLPC  C21121283   2.426   6.039   7.699 -0.3975  0.0484 -0.7287
  185SLPC  H11R21284   2.366   5.989   7.778 -2.5792  0.8880 -1.7798
  185SLPC  H11S21285   2.370   6.129   7.665 -0.7967  0.4122  0.8111
  185SLPC  C21221286   2.548   6.098   7.772 -0.0031  0.1914 -0.2810
  185SLPC  H12R21287   2.618   6.152   7.705 -1.1402  1.8895 -0.1682
  185SLPC  C21321288   2.591   6.075   7.898 -0.1205 -0.3699  0.3625
  185SLPC  H13R21289   2.687   6.123   7.923  0.7748 -2.5800  1.3530
  185SLPC  C21421290   2.517   6.000   8.007 -0.0973 -0.0048  0.5418
  185SLPC  H14R21291   2.564   5.900   8.003 -1.5815 -0.7192  0.6664
  185SLPC  H14S21292   2.409   5.982   7.989 -0.7657  1.6756  2.4913
  185SLPC  C21521293   2.541   6.058   8.148  0.0336  0.3491 -0.0579
  185SLPC  H15R21294   2.508   6.164   8.145  3.5704  1.5549 -1.4837
  185SLPC  H15S21295   2.649   6.060   8.171 -0.3571 -1.8588  2.5303
  185SLPC  C21621296   2.471   5.990   8.269  0.5357  0.5109 -0.1423
  185SLPC  H16R21297   2.360   5.985   8.259  0.4586 -1.9327  1.2031
  185SLPC  H16S21298   2.500   6.045   8.361  0.1602 -0.2404  0.4316
  185SLPC  C21721299   2.516   5.838   8.287 -0.7300 -0.1256  0.6366
  185SLPC  H17R21300   2.471   5.778   8.204  0.7792 -0.8421  0.3013
  185SLPC  H17S21301   2.459   5.793   8.372 -2.2336 -0.8636 -0.6985
  185SLPC  C21821302   2.664   5.814   8.283  0.2297 -0.3829 -0.0069
  185SLPC  H18R21303   2.719   5.832   8.189 -1.4405 -0.6293 -1.0773
  185SLPC  H18S21304   2.691   5.707   8.300 -3.7569 -1.1584  2.8119
  185SLPC  H18T21305   2.717   5.868   8.364  2.1430 -2.1445 -0.0109
  185SLPC   C3321306   2.448   6.549   6.996  0.0695 -0.3194  0.2943
  185SLPC   H3X21307   2.342   6.577   7.014  0.3317  0.3695  0.8061
  185SLPC   H3Y21308   2.489   6.617   6.919  0.6026 -0.3588  0.5407
  185SLPC   C3421309   2.527   6.569   7.122  0.5025  0.0299 -0.4246
  185SLPC   H4X21310   2.520   6.677   7.148 -0.6933 -0.4192  1.2321
  185SLPC   H4Y21311   2.631   6.535   7.103  0.6739 -0.5485  1.4253
  185SLPC   C3521312   2.461   6.498   7.242 -0.0294 -0.1599  0.3640
  185SLPC   H5X21313   2.540   6.502   7.319  1.0931 -2.2673 -0.5830
  185SLPC   H5Y21314   2.436   6.393   7.217  0.7878 -0.1020 -0.7969
  185SLPC   C3621315   2.333   6.567   7.294  0.3465 -0.8424 -0.1437
  185SLPC   H6X21316   2.264   6.576   7.207  0.2198 -0.7115 -0.0305
  185SLPC   H6Y21317   2.361   6.663   7.342 -1.0705  0.0397 -1.0190
  185SLPC   C3721318   2.262   6.478   7.397  0.2899 -0.1682  0.4965
  185SLPC   H7X21319   2.243   6.380   7.346  1.4546 -1.1686  1.9125
  185SLPC   H7Y21320   2.166   6.529   7.420  0.5116  0.8862 -0.8082
  185SLPC   C3821321   2.341   6.431   7.515 -0.3374  0.0290  0.0192
  185SLPC   H8X21322   2.393   6.518   7.561 -1.3788  1.3097 -1.1445
  185SLPC   H8Y21323   2.408   6.354   7.471 -1.8834  0.0838 -2.6692
  185SLPC   C3921324   2.242   6.365   7.621 -0.4736  0.5165  0.0679
  185SLPC   H9X21325   2.301   6.305   7.694  0.7786  2.1390  0.4336
  185SLPC   H9Y21326   2.178   6.291   7.568  1.0653 -1.9699  1.4601
  185SLPC  C31021327   2.163   6.473   7.694 -0.4359 -0.0627  0.2908
  185SLPC  H10X21328   2.066   6.482   7.641  0.2146 -0.8812 -1.0730
  185SLPC  H10Y21329   2.214   6.571   7.683  1.6885 -1.1359  0.2327
  185SLPC  C31121330   2.130   6.434   7.846  0.3521  0.0245 -0.1148
  185SLPC  H11X21331   2.103   6.327   7.833 -1.3641  0.4759 -0.4115
  185SLPC  H11Y21332   2.041   6.481   7.893  1.8427  0.5182  2.4474
  185SLPC  C31221333   2.255   6.448   7.937  0.7644  0.2665 -0.2181
  185SLPC  H12X21334   2.260   6.558   7.920  0.5425  0.0900 -1.5372
  185SLPC  H12Y21335   2.340   6.398   7.887  2.5559  3.0512 -0.1618
  185SLPC  C31321336   2.222   6.402   8.082 -0.3211 -0.9767  0.5792
  185SLPC  H13X21337   2.223   6.292   8.065  1.9246 -0.7374 -1.3551
  185SLPC  H13Y21338   2.125   6.438   8.123 -0.2354 -0.5981  0.4548
  185SLPC  C31421339   2.332   6.429   8.185 -1.0067  0.2405  0.5858
  185SLPC  H14X21340   2.325   6.531   8.229 -0.1293  0.0390  1.2155
  185SLPC  H14Y21341   2.433   6.411   8.142 -1.5058  0.8177 -0.9138
  185SLPC  C31521342   2.306   6.355   8.318 -0.6133  0.1105 -0.3145
  185SLPC  H15X21343   2.247   6.262   8.304 -2.7262  1.7572 -3.5953
  185SLPC  H15Y21344   2.238   6.423   8.374 -0.9989  1.2977 -2.1565
  185SLPC  C31621345   2.425   6.336   8.404  0.6309  0.1745  0.5308
  185SLPC  H16X21346   2.497   6.264   8.357  0.2432 -0.4658  0.9080
  185SLPC  H16Y21347   2.397   6.288   8.500  4.2631 -2.6232  0.4114
  185SLPC  C31721348   2.489   6.471   8.440 -0.8359  0.5029 -0.0609
  185SLPC  H17X21349   2.413   6.533   8.491 -1.5909 -0.4445 -0.0032
  185SLPC  H17Y21350   2.527   6.519   8.347 -1.2396  2.2026  0.6185
  185SLPC  C31821351   2.613   6.458   8.530  0.0759  0.3331 -0.4160
  185SLPC  H18X21352   2.682   6.378   8.496  1.1796  0.3492  1.6222
  185SLPC  H18Y21353   2.570   6.424   8.627  0.7122 -1.2440 -0.6647
  185SLPC  H18Z21354   2.671   6.548   8.561  0.0612  0.1399  0.2035
  186SLPC     N21355   3.115   1.888   5.927 -0.6567 -0.6065 -0.2028
  186SLPC   C1321356   3.263   1.855   5.899 -0.5767  0.2963  0.2127
  186SLPC  H13A21357   3.313   1.841   5.993 -1.6616 -0.2454  0.7324
  186SLPC  H13B21358   3.261   1.765   5.840 -0.6946  0.5328 -0.1496
  186SLPC  H13C21359   3.315   1.930   5.842 -0.2585 -0.0921 -0.0132
  186SLPC   C1421360   3.042   1.893   5.795 -0.0613  0.6078 -0.9096
  186SLPC  H14A21361   3.048   1.791   5.761  1.2637 -0.2476  1.5918
  186SLPC  H14B21362   2.936   1.909   5.809 -0.3321 -0.2218 -1.9630
  186SLPC  H14C21363   3.075   1.963   5.719  2.3524  1.6568  0.9651
  186SLPC   C1521364   3.117   2.024   5.987 -0.2962 -0.4182 -0.7217
  186SLPC  H15A21365   3.178   2.085   5.922  1.7604  0.0471  1.5231
  186SLPC  H15B21366   3.015   2.059   5.997  0.0389  0.6030 -0.7632
  186SLPC  H15C21367   3.154   2.028   6.088  2.2442  1.3381 -1.6422
  186SLPC   C1221368   3.038   1.790   6.020  0.1074  0.0199  0.3330
  186SLPC  H12A21369   3.070   1.690   5.996 -0.9896 -0.1144 -0.7100
  186SLPC  H12B21370   2.934   1.795   5.989  0.6243 -0.2657 -1.5684
  186SLPC   C1121371   3.057   1.794   6.174  0.0277  0.3156 -0.0190
  186SLPC  H11A21372   3.001   1.708   6.217 -0.4860  1.9054  2.7573
  186SLPC  H11B21373   3.017   1.885   6.224  0.2456  0.3247  0.1402
  186SLPC     P21374   3.265   1.642   6.171 -0.4469 -0.2098 -0.3556
  186SLPC   O1321375   3.172   1.558   6.099 -0.2181 -0.2287 -0.0637
  186SLPC   O1421376   3.393   1.662   6.092  0.0582  0.1600  0.1652
  186SLPC   O1221377   3.194   1.776   6.204  0.3083  0.0869 -0.5599
  186SLPC   O1121378   3.295   1.583   6.313  0.3063  0.2006  0.0721
  186SLPC    C121379   3.228   1.596   6.435  0.3957 -0.4666 -0.1214
  186SLPC    HA21380   3.163   1.686   6.433  3.0135  1.5656 -1.2484
  186SLPC    HB21381   3.160   1.509   6.445 -0.5547  0.0205 -1.9824
  186SLPC    C221382   3.333   1.612   6.549 -0.2335 -0.5366  0.4752
  186SLPC    HS21383   3.410   1.532   6.551 -1.2755 -1.6098 -0.5125
  186SLPC   O2121384   3.262   1.621   6.669 -0.0996  0.5621  0.4243
  186SLPC   C2121385   3.222   1.500   6.710  0.1542 -0.2441  0.1245
  186SLPC   O2221386   3.248   1.390   6.661  0.0322 -0.5421  0.1751
  186SLPC   C2221387   3.140   1.515   6.833 -0.6567 -0.6099  0.0928
  186SLPC   H2R21388   3.179   1.599   6.895  2.5925 -1.2766 -0.8970
  186SLPC   H2S21389   3.036   1.544   6.806  0.0780  1.3619 -0.8073
  186SLPC    C321390   3.416   1.738   6.524  0.4481  0.4635 -0.3323
  186SLPC    HX21391   3.351   1.826   6.544  0.9531  0.7295  0.1777
  186SLPC    HY21392   3.434   1.748   6.415 -0.9868  1.9810 -0.4782
  186SLPC   O3121393   3.543   1.744   6.590  0.3547  0.9410 -0.7372
  186SLPC   C3121394   3.595   1.860   6.605 -0.2773  0.0795 -0.7361
  186SLPC   O3221395   3.545   1.970   6.570  0.0149 -0.2602 -0.1133
  186SLPC   C3221396   3.735   1.852   6.668  0.1962  0.4511 -0.0383
  186SLPC   H2X21397   3.808   1.864   6.586 -2.9098  0.9008 -2.9819
  186SLPC   H2Y21398   3.745   1.745   6.699  0.5358 -0.4080 -2.8066
  186SLPC   C2321399   3.143   1.389   6.925 -0.9860 -0.4768  0.1258
  186SLPC   H3R21400   3.251   1.362   6.934 -0.7578 -0.5820 -2.2502
  186SLPC   H3S21401   3.101   1.295   6.884 -1.3993 -1.0521  1.7970
  186SLPC   C2421402   3.090   1.422   7.072 -0.2943  0.4903  0.0931
  186SLPC   H4R21403   2.980   1.424   7.056 -0.6344 -0.4023  2.0459
  186SLPC   H4S21404   3.119   1.526   7.101 -3.7873  1.3309  1.0753
  186SLPC   C2521405   3.151   1.321   7.171  0.5169 -0.1477  0.0639
  186SLPC   H5R21406   3.260   1.322   7.149  0.5478  0.7979  0.2005
  186SLPC   H5S21407   3.104   1.222   7.154 -0.2898 -0.0991  1.8384
  186SLPC   C2621408   3.127   1.367   7.314 -0.3320 -0.7723  1.1556
  186SLPC   H6R21409   3.017   1.374   7.323 -0.2309  2.2390  1.1289
  186SLPC   H6S21410   3.161   1.472   7.332 -0.1039 -0.7453  0.5655
  186SLPC   C2721411   3.181   1.268   7.412  0.1939  0.0736  0.2442
  186SLPC   H7R21412   3.289   1.275   7.388  0.8595 -2.2842  2.1476
  186SLPC   H7S21413   3.143   1.165   7.391  0.2599  0.1227 -0.1192
  186SLPC   C2821414   3.163   1.308   7.560  0.4319  0.5291 -0.3635
  186SLPC   H8R21415   3.197   1.413   7.569 -3.1617  1.6918  1.7945
  186SLPC   H8S21416   3.237   1.255   7.623  0.2896 -2.4510 -2.4751
  186SLPC   C2921417   3.022   1.289   7.613  0.0516 -0.0730 -0.6992
  186SLPC   H9R21418   2.935   1.327   7.556 -0.5079  0.8313  0.7100
  186SLPC  C21021419   2.996   1.238   7.735 -0.0321 -0.4978 -0.3178
  186SLPC  H10R21420   2.889   1.222   7.756  0.2534 -0.2030  1.4732
  186SLPC  C21121421   3.090   1.181   7.842  0.5632  0.4368  0.1717
  186SLPC  H11R21422   3.071   1.240   7.934  0.9612 -0.9695  1.1973
  186SLPC  H11S21423   3.199   1.200   7.834  0.8124 -0.6132  0.9242
  186SLPC  C21221424   3.062   1.035   7.865  0.1257  0.4309 -0.1441
  186SLPC  H12R21425   3.087   0.968   7.781  1.6251  1.2842 -0.4123
  186SLPC  C21321426   3.004   0.985   7.979 -0.8718 -0.2866  0.2320
  186SLPC  H13R21427   2.994   0.876   7.990  1.7014 -0.5481  0.5154
  186SLPC  C21421428   2.957   1.063   8.101 -0.0989 -0.3581  0.5520
  186SLPC  H14R21429   3.029   1.144   8.124  1.7031 -1.7191 -0.0675
  186SLPC  H14S21430   2.959   1.003   8.194  2.6223  0.4653  1.0969
  186SLPC  C21521431   2.820   1.123   8.081  0.5908 -0.0809 -0.9112
  186SLPC  H15R21432   2.745   1.042   8.070  0.8041 -0.7969  2.0513
  186SLPC  H15S21433   2.814   1.185   7.989 -1.1145 -1.2825 -1.6599
  186SLPC  C21621434   2.780   1.208   8.207 -0.4363  0.3321 -0.2249
  186SLPC  H16R21435   2.831   1.306   8.209  0.0532  0.1138 -1.0844
  186SLPC  H16S21436   2.811   1.149   8.295 -1.8819 -1.0297 -0.5764
  186SLPC  C21721437   2.627   1.234   8.202 -0.3650  0.1965 -0.1346
  186SLPC  H17R21438   2.581   1.134   8.220  0.7562  0.1616  3.1549
  186SLPC  H17S21439   2.592   1.279   8.107  1.0109 -0.8383 -1.1806
  186SLPC  C21821440   2.573   1.319   8.310 -0.3233  0.2087  0.3954
  186SLPC  H18R21441   2.588   1.427   8.289  0.0489 -0.1747 -1.5108
  186SLPC  H18S21442   2.618   1.290   8.407  1.3742  3.6244  0.7822
  186SLPC  H18T21443   2.466   1.300   8.332 -0.3691  1.6368  1.5459
  186SLPC   C3321444   3.735   1.958   6.782  0.0407 -0.0531 -0.3565
  186SLPC   H3X21445   3.637   1.969   6.833 -0.4233  2.3139 -1.6188
  186SLPC   H3Y21446   3.766   2.057   6.742  0.5561  0.6254  1.6134
  186SLPC   C3421447   3.841   1.911   6.881 -0.1416 -0.5858  0.2051
  186SLPC   H4X21448   3.943   1.914   6.838 -0.3125 -0.1807 -0.1870
  186SLPC   H4Y21449   3.819   1.813   6.927 -0.6642  0.2671  1.8807
  186SLPC   C3521450   3.841   2.019   6.995 -0.2873 -0.5812 -0.8168
  186SLPC   H5X21451   3.740   2.015   7.041 -0.4159  0.3890 -0.9972
  186SLPC   H5Y21452   3.850   2.119   6.948 -1.5888  0.0710  0.2376
  186SLPC   C3621453   3.952   1.984   7.098  0.0479  0.2641 -0.0785
  186SLPC   H6X21454   4.034   1.952   7.030 -2.1969 -2.8855 -1.5312
  186SLPC   H6Y21455   3.908   1.900   7.156 -1.4441 -0.1967 -1.7818
  186SLPC   C3721456   3.970   2.093   7.194 -0.7940 -0.2807 -0.2957
  186SLPC   H7X21457   3.871   2.139   7.217 -0.6823 -0.9327  1.7254
  186SLPC   H7Y21458   4.036   2.174   7.155 -0.2148 -0.2415  0.7100
  186SLPC   C3821459   4.016   2.043   7.335  0.0506  0.4538  0.1608
  186SLPC   H8X21460   4.099   1.971   7.317 -0.3250  0.5912 -2.4744
  186SLPC   H8Y21461   3.933   1.985   7.380 -1.8043  2.1699 -0.8848
  186SLPC   C3921462   4.072   2.150   7.425 -0.5398 -0.2140 -0.5717
  186SLPC   H9X21463   3.995   2.229   7.442  1.5837  1.4578  2.1425
  186SLPC   H9Y21464   4.147   2.197   7.358 -0.3479  0.3592  0.0325
  186SLPC  C31021465   4.129   2.098   7.560  0.4527 -0.0973 -0.1652
  186SLPC  H10X21466   4.191   2.186   7.586  1.9010 -0.5082 -2.0475
  186SLPC  H10Y21467   4.185   2.003   7.556 -0.1421 -0.7124  3.0325
  186SLPC  C31121468   4.027   2.087   7.666  0.1499 -0.4730  0.1621
  186SLPC  H11X21469   3.953   2.010   7.634  0.5741 -0.3904 -1.0480
  186SLPC  H11Y21470   3.956   2.172   7.670 -1.3518 -1.7142  2.2069
  186SLPC  C31221471   4.082   2.052   7.801 -0.0565 -0.2882 -0.1359
  186SLPC  H12X21472   4.166   1.980   7.789  0.8075  0.7841 -0.7167
  186SLPC  H12Y21473   4.009   2.004   7.870  1.1773 -1.3830  0.4588
  186SLPC  C31321474   4.137   2.181   7.868  0.1059 -0.3503  0.3140
  186SLPC  H13X21475   4.052   2.248   7.894 -0.7241 -1.1841 -0.2081
  186SLPC  H13Y21476   4.193   2.233   7.788 -2.0481 -0.5642 -1.4443
  186SLPC  C31421477   4.223   2.141   7.988 -0.4615 -0.4015  0.0065
  186SLPC  H14X21478   4.292   2.056   7.967  0.1852 -0.1636  1.0955
  186SLPC  H14Y21479   4.156   2.092   8.062  0.3958 -1.9480 -0.1922
  186SLPC  C31521480   4.291   2.254   8.052  0.0184 -0.2129  0.3399
  186SLPC  H15X21481   4.230   2.347   8.060 -1.3553 -1.0676  0.0577
  186SLPC  H15Y21482   4.383   2.271   7.993  0.1705  1.6639  1.0425
  186SLPC  C31621483   4.339   2.214   8.199  0.6743  0.7311 -0.2326
  186SLPC  H16X21484   4.407   2.129   8.179  0.3672  0.2659  0.6618
  186SLPC  H16Y21485   4.260   2.178   8.267  0.0618  2.2169 -0.1222
  186SLPC  C31721486   4.408   2.329   8.268  0.1178 -0.4740  0.5214
  186SLPC  H17X21487   4.337   2.414   8.276  2.1487  1.6988 -2.2116
  186SLPC  H17Y21488   4.496   2.369   8.213 -0.0192 -0.6138  0.1981
  186SLPC  C31821489   4.439   2.302   8.416  0.2112 -0.9263  0.0510
  186SLPC  H18X21490   4.493   2.206   8.433  0.5711 -1.0663 -1.7082
  186SLPC  H18Y21491   4.347   2.300   8.478  1.6020  2.3690  2.5252
  186SLPC  H18Z21492   4.505   2.385   8.450 -1.3196 -0.2319  1.4840
  187SLPC     N21493   3.440   3.499   6.196 -0.7108  0.6481 -0.6605
  187SLPC   C1321494   3.298   3.540   6.203  0.1225 -0.5838  0.2022
  187SLPC  H13A21495   3.248   3.523   6.297 -0.0518 -1.2756 -0.0037
  187SLPC  H13B21496   3.293   3.643   6.172  1.7048 -0.4319  0.3881
  187SLPC  H13C21497   3.234   3.484   6.135 -5.2963  0.6130  3.6883
  187SLPC   C1421498   3.463   3.473   6.046  0.6099 -0.4637  0.6907
  187SLPC  H14A21499   3.387   3.424   5.987  0.7706 -0.6083  0.6050
  187SLPC  H14B21500   3.485   3.567   5.997 -0.3160  0.6940  2.4002
  187SLPC  H14C21501   3.552   3.415   6.027  0.6210 -0.0822 -0.5197
  187SLPC   C1521502   3.453   3.358   6.251 -0.0477  0.7922 -0.2226
  187SLPC  H15A21503   3.552   3.318   6.233 -0.3636  0.6948 -1.9236
  187SLPC  H15B21504   3.426   3.360   6.356 -0.3583 -0.0968 -0.2735
  187SLPC  H15C21505   3.383   3.296   6.197  0.7885  1.3182 -1.9684
  187SLPC   C1221506   3.531   3.597   6.256  0.3242  0.5604  0.2572
  187SLPC  H12A21507   3.525   3.689   6.201 -0.8335  0.3784  0.0515
  187SLPC  H12B21508   3.632   3.562   6.244  1.0994  2.6624  0.2898
  187SLPC   C1121509   3.522   3.612   6.414  0.1910 -0.1237  0.1056
  187SLPC  H11A21510   3.425   3.650   6.451  0.1806 -1.5252  1.6213
  187SLPC  H11B21511   3.585   3.700   6.441 -0.0028  0.5093 -1.4120
  187SLPC     P21512   3.687   3.430   6.509  0.2198 -0.1158  0.0698
  187SLPC   O1321513   3.694   3.292   6.462  0.8334  0.9535 -0.2924
  187SLPC   O1421514   3.778   3.517   6.438 -0.4976 -0.8770 -0.7036
  187SLPC   O1221515   3.543   3.484   6.479  0.2676  0.2043 -0.0431
  187SLPC   O1121516   3.706   3.446   6.661  0.3560 -0.0210 -0.1798
  187SLPC    C121517   3.598   3.457   6.758 -0.6933  0.3203 -0.1326
  187SLPC    HA21518   3.499   3.412   6.735 -1.6944  0.7761  2.9122
  187SLPC    HB21519   3.647   3.414   6.847  1.5370  1.0040 -0.9484
  187SLPC    C221520   3.568   3.608   6.782  0.9772 -0.4566  0.1843
  187SLPC    HS21521   3.519   3.645   6.690 -1.1530  3.7806  2.6982
  187SLPC   O2121522   3.689   3.677   6.824 -0.0590  0.0840  0.0317
  187SLPC   C2121523   3.684   3.804   6.787 -0.2752  0.4096 -1.5411
  187SLPC   O2221524   3.597   3.850   6.715  0.1137 -0.0605 -0.0257
  187SLPC   C2221525   3.806   3.879   6.828 -0.3416 -0.3416  0.4562
  187SLPC   H2R21526   3.888   3.847   6.760  0.9816 -0.2506  1.9794
  187SLPC   H2S21527   3.782   3.984   6.803 -0.8313 -0.5040  0.2230
  187SLPC    C321528   3.462   3.631   6.891 -0.6615  0.8942 -0.0055
  187SLPC    HX21529   3.370   3.575   6.861  0.4525 -0.2849 -1.3408
  187SLPC    HY21530   3.443   3.740   6.886  0.7168  1.2522  1.8993
  187SLPC   O3121531   3.499   3.594   7.025  0.4809 -0.0744  0.4891
  187SLPC   C3121532   3.535   3.686   7.109 -0.1257 -0.4513  1.0302
  187SLPC   O3221533   3.519   3.803   7.092 -0.7148 -0.3969 -0.5142
  187SLPC   C3221534   3.583   3.629   7.240 -0.1572  0.2385 -0.8151
  187SLPC   H2X21535   3.693   3.632   7.229  0.0365  0.8816  0.9513
  187SLPC   H2Y21536   3.558   3.521   7.240  1.6429 -0.2724  1.5088
  187SLPC   C2321537   3.851   3.868   6.976 -0.6553 -1.1614 -0.1342
  187SLPC   H3R21538   3.871   3.765   7.011 -0.1453 -1.0801 -0.1705
  187SLPC   H3S21539   3.778   3.905   7.050  1.1808 -0.3755  1.3637
  187SLPC   C2421540   3.981   3.946   6.999 -0.4035  0.4617  0.1660
  187SLPC   H4R21541   3.984   4.056   6.981  3.6503  0.8863  2.3059
  187SLPC   H4S21542   4.052   3.903   6.925  0.0492  1.2789  0.1122
  187SLPC   C2521543   4.040   3.919   7.142  0.4267 -0.5144  1.5450
  187SLPC   H5R21544   4.145   3.954   7.141  0.0230  0.8435 -0.5737
  187SLPC   H5S21545   4.045   3.811   7.167 -1.2144 -0.6836  1.2879
  187SLPC   C2621546   3.959   3.985   7.247 -0.5614  0.4584 -0.9154
  187SLPC   H6R21547   3.854   3.950   7.246 -1.1231  1.6538  2.6020
  187SLPC   H6S21548   3.957   4.094   7.226  0.2848  0.6040 -0.2588
  187SLPC   C2721549   4.022   3.965   7.386  0.2542 -0.2695 -0.0853
  187SLPC   H7R21550   4.131   3.975   7.367  0.2000 -2.0727 -1.5729
  187SLPC   H7S21551   4.024   3.859   7.416  2.1700  0.3780  2.4535
  187SLPC   C2821552   3.966   4.055   7.486 -0.5973 -0.1940  0.2554
  187SLPC   H8R21553   3.856   4.053   7.471 -0.5493  1.8015 -0.6838
  187SLPC   H8S21554   3.997   4.160   7.464 -1.3132 -0.4594 -2.3261
  187SLPC   C2921555   4.011   4.011   7.623 -0.0725 -0.1283  0.3269
  187SLPC   H9R21556   4.120   4.004   7.620  0.1519  1.5235  2.4793
  187SLPC  C21021557   3.941   3.989   7.735  0.1154 -0.4689 -0.7859
  187SLPC  H10R21558   3.980   3.939   7.826  1.6217 -0.8217 -1.5980
  187SLPC  C21121559   3.790   4.007   7.742  0.3653  0.5017 -0.7019
  187SLPC  H11R21560   3.746   3.906   7.756  1.6641  0.0224  0.0773
  187SLPC  H11S21561   3.739   4.047   7.652 -0.9134 -0.6346 -0.5005
  187SLPC  C21221562   3.751   4.101   7.855 -0.6209  0.1793 -0.3844
  187SLPC  H12R21563   3.766   4.209   7.848 -0.0761  0.0245 -2.2321
  187SLPC  C21321564   3.723   4.064   7.981 -0.5395  0.4466  0.1656
  187SLPC  H13R21565   3.696   4.140   8.057 -1.6217  0.2122  0.0344
  187SLPC  C21421566   3.726   3.921   8.037 -0.4944 -0.5903  0.6796
  187SLPC  H14R21567   3.830   3.900   8.068  0.5177 -0.7452 -2.4971
  187SLPC  H14S21568   3.694   3.851   7.957 -1.6434 -3.0715  3.1744
  187SLPC  C21521569   3.620   3.887   8.146  0.6040 -0.5846 -0.0485
  187SLPC  H15R21570   3.646   3.785   8.180  2.0154 -0.2736 -0.1175
  187SLPC  H15S21571   3.524   3.889   8.091  2.7119  0.7350 -4.0776
  187SLPC  C21621572   3.625   3.976   8.272  0.3893  0.2404  0.0201
  187SLPC  H16R21573   3.595   4.077   8.238 -0.6838  0.4897  1.6099
  187SLPC  H16S21574   3.720   3.988   8.328 -0.4195 -1.8898  2.0299
  187SLPC  C21721575   3.513   3.937   8.373  0.0594  0.2421 -0.4195
  187SLPC  H17R21576   3.423   3.899   8.322 -0.9952 -2.1873  2.8851
  187SLPC  H17S21577   3.487   4.030   8.429  0.1994 -0.4156  0.7667
  187SLPC  C21821578   3.564   3.835   8.478 -0.0029 -0.2504 -0.1183
  187SLPC  H18R21579   3.621   3.764   8.414  2.6213  1.6094 -0.0154
  187SLPC  H18S21580   3.485   3.784   8.537 -0.7251  2.0896  1.0627
  187SLPC  H18T21581   3.646   3.881   8.538  1.5532 -1.0022 -1.5703
  187SLPC   C3321582   3.542   3.706   7.363 -0.2815 -0.4844 -0.3320
  187SLPC   H3X21583   3.434   3.727   7.376 -0.4794 -1.3920 -0.4289
  187SLPC   H3Y21584   3.587   3.808   7.371 -0.1331 -0.5233 -0.6418
  187SLPC   C3421585   3.587   3.617   7.491 -0.8548 -0.3814 -0.6741
  187SLPC   H4X21586   3.698   3.607   7.497 -0.7684 -0.4757 -2.1184
  187SLPC   H4Y21587   3.556   3.511   7.481 -1.1386 -0.5192  1.2088
  187SLPC   C3521588   3.536   3.666   7.621  0.5145  0.6931  0.0644
  187SLPC   H5X21589   3.430   3.635   7.636  1.4500 -1.9588  1.9807
  187SLPC   H5Y21590   3.537   3.777   7.626 -0.1045  0.7224 -0.3215
  187SLPC   C3621591   3.607   3.611   7.749  0.0379 -0.9907 -0.1657
  187SLPC   H6X21592   3.695   3.676   7.766  0.1041  0.0826 -3.7131
  187SLPC   H6Y21593   3.646   3.513   7.716  0.4513 -1.2804  1.1360
  187SLPC   C3721594   3.512   3.604   7.874 -0.4500  0.4147  0.9328
  187SLPC   H7X21595   3.456   3.697   7.896 -1.2829  0.7559 -2.1816
  187SLPC   H7Y21596   3.430   3.532   7.852 -1.8423  2.6145 -1.5804
  187SLPC   C3821597   3.590   3.547   7.993  1.2680  0.5584 -0.5326
  187SLPC   H8X21598   3.648   3.637   8.022  1.3621  0.1424  0.6219
  187SLPC   H8Y21599   3.660   3.470   7.955 -0.5915 -0.7636 -1.4061
  187SLPC   C3921600   3.514   3.496   8.116 -0.0217 -0.4090  0.1285
  187SLPC   H9X21601   3.442   3.416   8.090 -0.7413  0.6879 -1.4452
  187SLPC   H9Y21602   3.461   3.574   8.175  2.8830  0.4735  1.7908
  187SLPC  C31021603   3.611   3.440   8.211 -0.0355  0.2322 -0.6882
  187SLPC  H10X21604   3.680   3.519   8.247  1.5365 -0.4997 -1.9534
  187SLPC  H10Y21605   3.667   3.357   8.162  0.8278  0.1962  0.3215
  187SLPC  C31121606   3.539   3.377   8.336 -0.2510  0.2360 -0.2870
  187SLPC  H11X21607   3.476   3.295   8.297 -0.0288  0.6464 -1.5516
  187SLPC  H11Y21608   3.469   3.447   8.386 -0.3272 -0.8747  1.2168
  187SLPC  C31221609   3.636   3.327   8.446 -0.1811 -0.4986 -0.4097
  187SLPC  H12X21610   3.693   3.408   8.497  1.4300 -1.0690 -1.2108
  187SLPC  H12Y21611   3.717   3.275   8.389 -0.1294  0.6036 -1.3825
  187SLPC  C31321612   3.575   3.234   8.551 -0.2191 -0.4607  0.3428
  187SLPC  H13X21613   3.521   3.157   8.493 -0.6901 -0.9218  1.3578
  187SLPC  H13Y21614   3.495   3.292   8.601  0.3940  0.8413 -0.1227
  187SLPC  C31421615   3.675   3.171   8.643 -0.1566  0.3594  0.2885
  187SLPC  H14X21616   3.752   3.115   8.585 -1.3000  1.1485 -2.1294
  187SLPC  H14Y21617   3.619   3.088   8.692 -0.6214  1.0689  0.9791
  187SLPC  C31521618   3.731   3.252   8.752 -0.0627 -0.1725  0.0669
  187SLPC  H15X21619   3.646   3.293   8.810 -0.1516 -1.2136  0.6981
  187SLPC  H15Y21620   3.792   3.335   8.711 -0.2937 -0.5990 -1.1942
  187SLPC  C31621621   3.828   3.161   8.841  0.5872 -0.3387 -0.0108
  187SLPC  H16X21622   3.762   3.081   8.882 -1.8086  0.0791 -2.7285
  187SLPC  H16Y21623   3.858   3.220   8.930 -0.2195 -0.6796  0.4916
  187SLPC  C31721624   3.943   3.094   8.766  0.8775 -0.6369  0.5353
  187SLPC  H17X21625   4.014   3.168   8.722  1.1808 -1.2435 -0.0053
  187SLPC  H17Y21626   3.900   3.032   8.685  0.1870  0.7908 -0.2241
  187SLPC  C31821627   4.025   3.003   8.854  0.0915 -0.1088  0.1756
  187SLPC  H18X21628   3.960   2.917   8.880  1.1219 -1.3334 -1.1966
  187SLPC  H18Y21629   4.058   3.056   8.946 -0.7071 -0.4631  0.6839
  187SLPC  H18Z21630   4.116   2.964   8.805 -2.7291 -6.4362 -0.9924
  188SLPC     N21631   5.137   6.564   6.167 -0.9705  0.0075  0.4509
  188SLPC   C1321632   5.250   6.503   6.091 -0.5830 -0.3086  0.0274
  188SLPC  H13A21633   5.235   6.488   5.985  1.8596  1.2830 -0.6437
  188SLPC  H13B21634   5.334   6.571   6.084 -2.1507  1.6336 -0.9136
  188SLPC  H13C21635   5.281   6.410   6.137 -1.0754 -0.2436  0.5047
  188SLPC   C1421636   5.033   6.459   6.176 -0.0011  0.3573 -0.4700
  188SLPC  H14A21637   5.080   6.367   6.206 -0.0116  0.7539  0.8306
  188SLPC  H14B21638   4.961   6.495   6.249 -0.4329 -1.3926  0.0009
  188SLPC  H14C21639   4.975   6.435   6.088  0.0655 -2.9004  0.2692
  188SLPC   C1521640   5.080   6.687   6.110 -0.6852  0.5386  0.2581
  188SLPC  H15A21641   5.084   6.685   6.002 -1.2826  0.9435  0.2264
  188SLPC  H15B21642   4.978   6.699   6.143 -1.1723 -1.0495 -0.5854
  188SLPC  H15C21643   5.148   6.764   6.144 -2.0199  1.4594  0.9610
  188SLPC   C1221644   5.185   6.592   6.308  0.1143  0.1152  0.3823
  188SLPC  H12A21645   5.101   6.638   6.358  0.7145 -0.3158  1.8398
  188SLPC  H12B21646   5.264   6.664   6.317 -2.3440  3.0646 -0.2326
  188SLPC   C1121647   5.222   6.471   6.401 -0.3606 -0.0568 -0.1094
  188SLPC  H11A21648   5.129   6.414   6.420  0.9017 -2.5772 -1.0733
  188SLPC  H11B21649   5.250   6.523   6.495 -1.3104 -1.3917  0.9518
  188SLPC     P21650   5.444   6.347   6.432 -0.2172 -0.3373  0.0472
  188SLPC   O1321651   5.490   6.218   6.382  0.3658 -0.0049  0.0026
  188SLPC   O1421652   5.538   6.466   6.429  1.0216 -0.1890 -0.0441
  188SLPC   O1221653   5.321   6.384   6.356 -0.4897 -0.3723 -0.7308
  188SLPC   O1121654   5.396   6.334   6.584 -0.1737  0.6420 -0.0587
  188SLPC    C121655   5.301   6.232   6.621 -0.9881  0.4043 -0.1662
  188SLPC    HA21656   5.204   6.266   6.579 -1.4650 -1.0280 -0.2986
  188SLPC    HB21657   5.316   6.134   6.571  0.8041  0.1482  0.7888
  188SLPC    C221658   5.291   6.217   6.778  0.9198  0.2132 -0.0982
  188SLPC    HS21659   5.188   6.185   6.805  1.3512  0.3405  1.8214
  188SLPC   O2121660   5.321   6.338   6.839 -0.1292 -0.1369 -0.0694
  188SLPC   C2121661   5.218   6.419   6.862  0.0960 -0.0931  0.1371
  188SLPC   O2221662   5.104   6.398   6.838 -0.0820  0.5816  0.4451
  188SLPC   C2221663   5.270   6.558   6.910  0.7978 -0.3138 -0.1804
  188SLPC   H2R21664   5.379   6.573   6.894  0.8139  2.3178  1.6906
  188SLPC   H2S21665   5.210   6.635   6.857  0.4912 -0.9630 -0.7987
  188SLPC    C321666   5.380   6.096   6.835 -0.6794  0.3413 -0.1820
  188SLPC    HX21667   5.489   6.112   6.832 -0.5641  1.0387  3.5070
  188SLPC    HY21668   5.338   6.005   6.786  0.4878  0.3219 -1.1693
  188SLPC   O3121669   5.351   6.088   6.975  0.4001 -0.4863 -0.4502
  188SLPC   C3121670   5.314   5.968   7.021 -0.5563 -1.7069  0.7649
  188SLPC   O3221671   5.327   5.860   6.966  0.1884  0.1299  0.3233
  188SLPC   C3221672   5.265   5.984   7.173 -0.6623  0.3462 -0.1901
  188SLPC   H2X21673   5.159   6.016   7.162 -0.7380 -0.6305 -3.1446
  188SLPC   H2Y21674   5.331   6.067   7.207 -1.9973  2.1160 -1.6917
  188SLPC   C2321675   5.254   6.591   7.065  0.0530 -0.4377 -0.0235
  188SLPC   H3R21676   5.147   6.586   7.094  0.3976 -0.1188  1.3572
  188SLPC   H3S21677   5.293   6.694   7.075 -2.9143  0.5636  3.4893
  188SLPC   C2421678   5.342   6.504   7.148  0.4747  0.3750 -0.5192
  188SLPC   H4R21679   5.452   6.515   7.138  0.5751 -0.1856 -0.0998
  188SLPC   H4S21680   5.318   6.398   7.126 -0.0895 -0.0648  1.8838
  188SLPC   C2521681   5.300   6.504   7.303 -0.2098 -0.2322 -0.2974
  188SLPC   H5R21682   5.294   6.613   7.327 -1.7013 -0.4955  0.7146
  188SLPC   H5S21683   5.381   6.460   7.365 -0.4347  1.0512  0.9550
  188SLPC   C2621684   5.170   6.432   7.338 -0.4129 -0.2892 -0.5281
  188SLPC   H6R21685   5.175   6.326   7.304  1.2697 -1.2643  2.3188
  188SLPC   H6S21686   5.090   6.492   7.291 -1.3089 -1.0776 -0.0350
  188SLPC   C2721687   5.158   6.428   7.492  0.1551 -0.1799  0.1425
  188SLPC   H7R21688   5.194   6.528   7.527  0.1999  0.4907 -1.7164
  188SLPC   H7S21689   5.233   6.351   7.520 -0.0234 -0.8974 -1.2829
  188SLPC   C2821690   5.019   6.396   7.552  0.4179 -0.1988 -0.5170
  188SLPC   H8R21691   4.991   6.300   7.505  1.3898 -1.5601  1.5253
  188SLPC   H8S21692   4.949   6.468   7.505  0.3736 -0.4206 -0.7891
  188SLPC   C2921693   5.007   6.386   7.702 -0.4155  0.0175 -0.3779
  188SLPC   H9R21694   5.100   6.423   7.748  0.6404 -0.1677 -2.2771
  188SLPC  C21021695   4.914   6.318   7.770  0.6674 -0.9836  0.4086
  188SLPC  H10R21696   4.908   6.311   7.880  0.0866 -1.5280  0.3522
  188SLPC  C21121697   4.789   6.250   7.706  0.2542  0.2508 -0.7840
  188SLPC  H11R21698   4.750   6.318   7.628 -0.9865  0.5811  0.0901
  188SLPC  H11S21699   4.698   6.247   7.771 -0.6089  0.9221 -1.9411
  188SLPC  C21221700   4.823   6.114   7.651  0.3766 -0.1613  0.0669
  188SLPC  H12R21701   4.863   6.125   7.550  0.6611  2.0392  0.3751
  188SLPC  C21321702   4.824   5.990   7.709  0.1771  0.7593  0.4548
  188SLPC  H13R21703   4.860   5.907   7.646  2.0561  1.7309  0.1693
  188SLPC  C21421704   4.794   5.965   7.858  0.1989  0.4631  0.6970
  188SLPC  H14R21705   4.747   5.865   7.871  1.7758 -0.1778  1.7550
  188SLPC  H14S21706   4.732   6.038   7.914  0.1804  0.1779  1.0511
  188SLPC  C21521707   4.921   5.964   7.949 -0.2782 -0.0167  0.0102
  188SLPC  H15R21708   4.968   6.064   7.934  0.5738 -0.6342 -1.7593
  188SLPC  H15S21709   4.993   5.885   7.919 -0.7070 -1.0670  1.6671
  188SLPC  C21621710   4.879   5.936   8.094  0.5161 -0.2327  0.1510
  188SLPC  H16R21711   4.777   5.981   8.101 -1.0323 -3.0696 -2.1776
  188SLPC  H16S21712   4.941   5.989   8.169 -1.2915  0.2608  1.3669
  188SLPC  C21721713   4.860   5.784   8.132 -0.7257  0.0451  0.1850
  188SLPC  H17R21714   4.819   5.734   8.042 -0.1198  0.7368 -0.4871
  188SLPC  H17S21715   4.785   5.776   8.213 -0.8025  1.6929  0.3119
  188SLPC  C21821716   4.984   5.712   8.185  0.0057  0.3159  0.1955
  188SLPC  H18R21717   5.052   5.694   8.099  0.0697  0.3078  0.2465
  188SLPC  H18S21718   4.944   5.614   8.218 -3.6348  0.3602 -3.4024
  188SLPC  H18T21719   5.033   5.759   8.273 -0.4130 -1.2097  1.2840
  188SLPC   C3321720   5.297   5.857   7.250  0.2018 -0.7282  0.2091
  188SLPC   H3X21721   5.404   5.827   7.240 -0.0435 -1.1454 -1.6136
  188SLPC   H3Y21722   5.230   5.778   7.212 -0.1199 -0.3074 -0.1131
  188SLPC   C3421723   5.268   5.872   7.405  0.2441  0.7609  0.1934
  188SLPC   H4X21724   5.302   5.776   7.450 -0.2865  0.7725  0.6401
  188SLPC   H4Y21725   5.157   5.881   7.403  0.1568  0.7569  2.4115
  188SLPC   C3521726   5.333   5.987   7.480  0.0152  0.2333  0.5804
  188SLPC   H5X21727   5.314   6.083   7.428 -0.8817 -0.5908 -0.6773
  188SLPC   H5Y21728   5.441   5.961   7.485  0.1334  0.8913  1.8231
  188SLPC   C3621729   5.280   5.997   7.626  0.0052  0.1886  0.0092
  188SLPC   H6X21730   5.275   5.895   7.669 -2.1095  0.7111  1.1413
  188SLPC   H6Y21731   5.173   6.027   7.625  0.1461  0.8450  1.8230
  188SLPC   C3721732   5.355   6.099   7.711 -0.3636  0.3793 -0.6382
  188SLPC   H7X21733   5.360   6.189   7.646 -0.5312  0.3568 -0.6845
  188SLPC   H7Y21734   5.456   6.055   7.723 -0.5748 -0.3981 -1.6304
  188SLPC   C3821735   5.295   6.121   7.853 -0.1699 -0.0181 -0.3702
  188SLPC   H8X21736   5.301   6.031   7.917  1.5276  0.7665  0.6245
  188SLPC   H8Y21737   5.188   6.151   7.845 -0.2108  0.0808  0.4379
  188SLPC   C3921738   5.359   6.231   7.933 -0.1454 -0.7287  0.6574
  188SLPC   H9X21739   5.294   6.278   8.009 -0.5844 -0.3937  0.0852
  188SLPC   H9Y21740   5.378   6.315   7.862 -0.2609  1.5184  3.1393
  188SLPC  C31021741   5.488   6.193   8.002 -0.0890  0.3052 -0.6251
  188SLPC  H10X21742   5.550   6.131   7.933  0.2599 -0.8060  0.6585
  188SLPC  H10Y21743   5.474   6.133   8.094 -0.5815 -0.9403 -1.4876
  188SLPC  C31121744   5.557   6.319   8.045 -0.0700  0.0157  0.2198
  188SLPC  H11X21745   5.487   6.377   8.109  0.0596 -0.8905  1.2203
  188SLPC  H11Y21746   5.594   6.377   7.959 -0.9949  0.3822  0.0630
  188SLPC  C31221747   5.676   6.291   8.137 -0.4808  0.0140 -0.3943
  188SLPC  H12X21748   5.723   6.389   8.160 -2.1252  0.4911  1.1634
  188SLPC  H12Y21749   5.750   6.227   8.085 -0.6466 -1.0848  0.6779
  188SLPC  C31321750   5.644   6.237   8.276 -0.2938 -0.2523 -0.1753
  188SLPC  H13X21751   5.634   6.127   8.276  0.7781 -0.3628 -0.0677
  188SLPC  H13Y21752   5.549   6.285   8.308 -0.3465 -0.9198  0.6789
  188SLPC  C31421753   5.768   6.277   8.369  1.3299 -0.8191 -0.2983
  188SLPC  H14X21754   5.738   6.263   8.476  2.4126  2.2730  0.5240
  188SLPC  H14Y21755   5.792   6.385   8.369 -1.2607 -0.1552  1.4406
  188SLPC  C31521756   5.897   6.197   8.343 -0.3530 -0.7255  0.1317
  188SLPC  H15X21757   5.956   6.225   8.253  1.8000 -1.6586  1.1775
  188SLPC  H15Y21758   5.865   6.090   8.334  0.8162 -0.9069 -3.5212
  188SLPC  C31621759   6.008   6.213   8.451 -0.0485  0.4565  0.5423
  188SLPC  H16X21760   6.098   6.151   8.431  0.7458  1.1904  1.7494
  188SLPC  H16Y21761   5.966   6.183   8.549  1.7173 -1.2914  0.8356
  188SLPC  C31721762   6.052   6.358   8.476 -0.5610  0.2838  0.2472
  188SLPC  H17X21763   5.962   6.421   8.491 -0.0648  2.3066 -3.8984
  188SLPC  H17Y21764   6.108   6.385   8.384 -1.8597  0.7061 -0.4413
  188SLPC  C31821765   6.142   6.378   8.591 -0.3159 -0.1633 -0.3790
  188SLPC  H18X21766   6.228   6.308   8.592  0.3679  0.4414 -3.9434
  188SLPC  H18Y21767   6.092   6.372   8.690  1.5262 -0.9678  0.5594
  188SLPC  H18Z21768   6.180   6.480   8.566 -0.9345  0.2178  0.2061
  189SLPC     N21769   1.071   2.258   5.946 -0.9295  0.3572  0.4989
  189SLPC   C1321770   0.939   2.253   5.877 -0.3400 -0.2827  0.0289
  189SLPC  H13A21771   0.921   2.351   5.837  1.2742 -0.7679 -2.1124
  189SLPC  H13B21772   0.951   2.189   5.790 -0.8994 -1.2811  0.6666
  189SLPC  H13C21773   0.852   2.213   5.926 -0.5599  0.7979  0.5430
  189SLPC   C1421774   1.167   2.347   5.874  0.2286 -0.0948  0.4587
  189SLPC  H14A21775   1.196   2.308   5.777 -0.9177  0.8447 -0.3056
  189SLPC  H14B21776   1.134   2.449   5.858 -0.4224 -0.4825 -0.8324
  189SLPC  H14C21777   1.258   2.350   5.931  1.2775  0.9116 -1.1956
  189SLPC   C1521778   1.123   2.117   5.942  0.3980  0.5574 -0.0759
  189SLPC  H15A21779   1.152   2.081   5.845  0.8204 -0.3317  0.3658
  189SLPC  H15B21780   1.210   2.113   6.006  0.3256 -0.4863 -0.0371
  189SLPC  H15C21781   1.044   2.051   5.974 -2.0358  3.6707  0.9497
  189SLPC   C1221782   1.059   2.297   6.090  0.1232 -0.5387  0.0431
  189SLPC  H12A21783   0.986   2.241   6.147 -0.3422 -0.4587 -0.4635
  189SLPC  H12B21784   1.012   2.394   6.099  2.2466  0.4509  1.0634
  189SLPC   C1121785   1.193   2.297   6.175  0.0925  0.7816  0.4677
  189SLPC  H11A21786   1.166   2.339   6.274  1.9074  1.5651  0.6589
  189SLPC  H11B21787   1.280   2.358   6.144  1.3647 -0.1830  1.9919
  189SLPC     P21788   1.314   2.111   6.305  0.2341 -0.1773 -0.4089
  189SLPC   O1321789   1.323   1.964   6.283  0.4999  0.3435 -0.4015
  189SLPC   O1421790   1.441   2.181   6.323  0.1269 -0.2863  0.3963
  189SLPC   O1221791   1.243   2.167   6.183 -0.0147 -0.6972  0.0848
  189SLPC   O1121792   1.212   2.151   6.413 -0.2567 -0.3866 -0.2147
  189SLPC    C121793   1.256   2.160   6.552  0.3222  0.0586  0.4033
  189SLPC    HA21794   1.345   2.227   6.556  0.7407 -0.5785  2.2360
  189SLPC    HB21795   1.181   2.211   6.617 -0.7263  0.4984 -1.0692
  189SLPC    C221796   1.310   2.026   6.621 -0.1860 -0.5468 -0.3654
  189SLPC    HS21797   1.387   1.980   6.555 -1.8169 -3.0947 -0.5998
  189SLPC   O2121798   1.198   1.938   6.633  0.2519 -0.2533 -0.0880
  189SLPC   C2121799   1.219   1.811   6.662  0.2682 -0.1322 -0.1029
  189SLPC   O2221800   1.329   1.758   6.670  0.3221  0.2601  0.7129
  189SLPC   C2221801   1.089   1.745   6.680  0.1863 -0.0001  0.5735
  189SLPC   H2R21802   1.037   1.797   6.764 -0.6111  0.7230 -0.3449
  189SLPC   H2S21803   1.023   1.750   6.591 -1.2725 -0.8657  1.5548
  189SLPC    C321804   1.385   2.050   6.762 -0.4971 -0.5828  0.0494
  189SLPC    HX21805   1.429   1.956   6.800 -2.2194 -1.5801 -0.3293
  189SLPC    HY21806   1.298   2.072   6.828 -0.4906 -0.1745 -0.0746
  189SLPC   O3121807   1.475   2.165   6.772  0.5732  0.4652  0.0531
  189SLPC   C3121808   1.598   2.126   6.733 -0.0240  0.5694  1.0757
  189SLPC   O3221809   1.626   2.012   6.703 -0.0566  0.3913 -0.3951
  189SLPC   C3221810   1.690   2.249   6.745  0.5776  0.3350 -0.0907
  189SLPC   H2X21811   1.631   2.343   6.748  0.4366  0.2445 -0.0087
  189SLPC   H2Y21812   1.757   2.257   6.657  1.0818  1.0073  0.3427
  189SLPC   C2321813   1.100   1.595   6.710  1.1719  0.4883 -0.0795
  189SLPC   H3R21814   1.181   1.541   6.657 -0.0706 -2.3465  0.7268
  189SLPC   H3S21815   1.011   1.551   6.660 -0.0533  2.3928  0.3075
  189SLPC   C2421816   1.113   1.554   6.856  0.3004  0.1198  0.2579
  189SLPC   H4R21817   1.027   1.609   6.900  0.0093 -1.7765  2.2025
  189SLPC   H4S21818   1.213   1.588   6.890  0.8692  1.7230 -2.6622
  189SLPC   C2521819   1.096   1.404   6.875 -0.0885 -0.0889  0.2406
  189SLPC   H5R21820   1.168   1.346   6.812 -2.0993 -2.7796  0.2324
  189SLPC   H5S21821   1.005   1.365   6.825  0.9347 -1.7653 -0.4217
  189SLPC   C2621822   1.089   1.364   7.025 -0.3981  0.0136  0.9299
  189SLPC   H6R21823   1.010   1.419   7.082  0.7756 -0.5001  3.1655
  189SLPC   H6S21824   1.181   1.416   7.060 -0.9211  1.6597 -0.0133
  189SLPC   C2721825   1.084   1.208   7.056  0.5540  0.5235  0.8004
  189SLPC   H7R21826   1.177   1.172   7.007 -1.5542 -3.5914 -0.6169
  189SLPC   H7S21827   0.996   1.169   7.001  1.2659  2.8994 -2.3727
  189SLPC   C2821828   1.085   1.178   7.204 -0.6970  0.0345 -0.1036
  189SLPC   H8R21829   1.074   1.068   7.213  2.2027 -0.4867 -1.7174
  189SLPC   H8S21830   0.999   1.222   7.259 -0.5993  2.0786 -1.4646
  189SLPC   C2921831   1.214   1.214   7.273  0.1512 -0.2430 -0.0365
  189SLPC   H9R21832   1.304   1.221   7.210  0.1228  2.9861  0.1038
  189SLPC  C21021833   1.224   1.240   7.401 -0.5071  0.6393 -0.1518
  189SLPC  H10R21834   1.323   1.266   7.442 -0.8067 -1.0245  1.7938
  189SLPC  C21121835   1.122   1.236   7.514 -0.6312 -0.6593  0.6389
  189SLPC  H11R21836   1.182   1.210   7.604  0.2248 -0.0439  0.2621
  189SLPC  H11S21837   1.053   1.153   7.491 -0.3929 -0.8423  0.5787
  189SLPC  C21221838   1.036   1.360   7.551  0.7130  1.0428  0.1497
  189SLPC  H12R21839   1.009   1.422   7.465 -1.4635 -0.8503 -0.6289
  189SLPC  C21321840   0.974   1.379   7.667  0.3808 -0.5932 -0.5490
  189SLPC  H13R21841   0.931   1.479   7.683  1.9400 -0.1278  1.1735
  189SLPC  C21421842   0.983   1.292   7.793  0.1523 -0.0044 -0.2621
  189SLPC  H14R21843   1.073   1.227   7.781  0.0250  0.0227 -1.4847
  189SLPC  H14S21844   0.894   1.225   7.794  0.8121 -1.0123 -2.4987
  189SLPC  C21521845   0.975   1.375   7.931 -0.0247 -0.1789 -0.5055
  189SLPC  H15R21846   0.881   1.433   7.942 -0.4952 -0.8594 -0.8852
  189SLPC  H15S21847   1.049   1.454   7.906 -1.5108  0.7611 -2.2000
  189SLPC  C21621848   1.018   1.292   8.057 -0.0936 -0.7281  0.7870
  189SLPC  H16R21849   0.937   1.227   8.097 -2.3762  1.9103  0.6913
  189SLPC  H16S21850   1.040   1.368   8.135  1.8658 -1.0102  0.5745
  189SLPC  C21721851   1.149   1.215   8.036 -0.0181  0.3951 -0.1199
  189SLPC  H17R21852   1.159   1.167   7.937  1.1814  0.1154  0.1180
  189SLPC  H17S21853   1.158   1.134   8.112 -2.4904 -1.5257 -1.7233
  189SLPC  C21821854   1.268   1.311   8.040  1.0697  0.0460  0.9327
  189SLPC  H18R21855   1.365   1.261   8.057  0.8010 -0.4184  1.1081
  189SLPC  H18S21856   1.255   1.385   8.122  1.5101 -0.3200  1.3358
  189SLPC  H18T21857   1.273   1.369   7.945  1.4973 -1.9511 -0.3152
  189SLPC   C3321858   1.772   2.232   6.874  0.5869 -0.0297 -0.3709
  189SLPC   H3X21859   1.821   2.330   6.890 -1.9542  1.2935 -0.1228
  189SLPC   H3Y21860   1.848   2.152   6.855  0.5009 -0.0834 -0.4928
  189SLPC   C3421861   1.680   2.212   6.997  0.3274  0.3574 -0.8991
  189SLPC   H4X21862   1.606   2.129   6.990  0.3047  0.2390  0.4356
  189SLPC   H4Y21863   1.632   2.312   7.010 -1.0255 -0.1995 -1.4648
  189SLPC   C3521864   1.764   2.185   7.121 -0.3677  0.3011 -0.4007
  189SLPC   H5X21865   1.848   2.259   7.122 -0.5013  0.4936 -1.9060
  189SLPC   H5Y21866   1.805   2.085   7.098 -0.6201 -0.1729  1.0908
  189SLPC   C3621867   1.691   2.193   7.255  0.4359 -0.4296  0.0878
  189SLPC   H6X21868   1.626   2.103   7.250 -1.9098  1.2391 -2.0994
  189SLPC   H6Y21869   1.625   2.282   7.247  1.5028  0.3932  0.2428
  189SLPC   C3721870   1.789   2.211   7.376  0.3759  0.7923  0.3668
  189SLPC   H7X21871   1.825   2.316   7.371  1.2487  0.4419 -2.4995
  189SLPC   H7Y21872   1.874   2.143   7.355  0.0098  0.3191  0.3810
  189SLPC   C3821873   1.727   2.175   7.503 -0.2295 -0.7523 -0.4151
  189SLPC   H8X21874   1.675   2.077   7.495  0.2409 -1.0969  0.5607
  189SLPC   H8Y21875   1.652   2.253   7.529  0.6255 -0.0171 -0.1117
  189SLPC   C3921876   1.819   2.178   7.621 -0.1430  0.8692 -0.2534
  189SLPC   H9X21877   1.867   2.276   7.640 -1.8784  1.6051  0.5322
  189SLPC   H9Y21878   1.900   2.104   7.602 -0.3422  0.5576  0.0886
  189SLPC  C31021879   1.754   2.137   7.751 -0.1300  0.2958 -0.1028
  189SLPC  H10X21880   1.730   2.029   7.740  0.3877  0.1970 -0.2918
  189SLPC  H10Y21881   1.655   2.186   7.766 -1.5465 -2.4864  0.2106
  189SLPC  C31121882   1.849   2.153   7.873 -0.1710 -0.2536  0.1750
  189SLPC  H11X21883   1.896   2.253   7.862  2.9931 -1.6470 -0.0241
  189SLPC  H11Y21884   1.939   2.092   7.852  0.5723  0.2395  1.8358
  189SLPC  C31221885   1.787   2.134   8.010  0.0083 -0.1834  0.0916
  189SLPC  H12X21886   1.765   2.030   8.043  1.3522 -0.5197 -0.0074
  189SLPC  H12Y21887   1.695   2.196   8.018  0.5570  1.1198 -2.5088
  189SLPC  C31321888   1.872   2.179   8.134  0.1049 -0.2186 -0.1931
  189SLPC  H13X21889   1.872   2.290   8.135  2.1898 -0.1674 -1.1030
  189SLPC  H13Y21890   1.977   2.152   8.112  0.0884  0.1353 -0.7304
  189SLPC  C31421891   1.816   2.114   8.263  0.0113 -0.6490 -0.5805
  189SLPC  H14X21892   1.801   2.004   8.257  0.5471 -0.7435 -0.3001
  189SLPC  H14Y21893   1.723   2.166   8.294  1.0627  1.1979 -0.3512
  189SLPC  C31521894   1.914   2.145   8.382  0.2617  0.0346 -0.1203
  189SLPC  H15X21895   1.928   2.255   8.388  0.3745  0.0251 -0.2043
  189SLPC  H15Y21896   2.014   2.098   8.374  1.0454  1.4646  0.8129
  189SLPC  C31621897   1.851   2.101   8.515 -0.1707 -0.0012  0.3599
  189SLPC  H16X21898   1.758   2.160   8.529  0.1028  0.6660 -0.5419
  189SLPC  H16Y21899   1.902   2.123   8.611 -0.1753 -2.0119  0.8618
  189SLPC  C31721900   1.820   1.950   8.523 -0.7896  0.1020  0.5084
  189SLPC  H17X21901   1.897   1.884   8.476 -1.7906 -0.7261  0.0045
  189SLPC  H17Y21902   1.732   1.926   8.460 -1.2119  0.7880  0.8268
  189SLPC  C31821903   1.799   1.881   8.658  0.4393 -0.5358  0.6547
  189SLPC  H18X21904   1.877   1.917   8.729  0.8237  1.2485 -0.5898
  189SLPC  H18Y21905   1.800   1.770   8.655 -3.0701 -0.7645  2.7704
  189SLPC  H18Z21906   1.702   1.903   8.706  1.4204  2.8045  1.3866
  190SLPC     N21907   1.198   0.108   6.265  0.6383  0.0611 -0.3022
  190SLPC   C1321908   1.090   0.014   6.283  0.5459  0.8539  0.1598
  190SLPC  H13A21909   1.132  -0.068   6.338 -1.9273 -0.7208 -0.1604
  190SLPC  H13B21910   1.009   0.061   6.337  0.1062  1.7246 -1.2034
  190SLPC  H13C21911   1.039  -0.031   6.199 -0.2421 -1.3161  1.7039
  190SLPC   C1421912   1.293   0.063   6.162 -0.3923  0.2449 -0.0253
  190SLPC  H14A21913   1.247   0.066   6.064  1.8396 -2.5246 -1.2879
  190SLPC  H14B21914   1.379   0.126   6.146  1.7641 -2.6412 -0.4030
  190SLPC  H14C21915   1.331  -0.037   6.174  3.3919  1.4890 -0.3055
  190SLPC   C1521916   1.277   0.136   6.390 -0.0131  0.2892  0.6288
  190SLPC  H15A21917   1.209   0.184   6.459  0.0521 -0.6445  1.3555
  190SLPC  H15B21918   1.316   0.052   6.445  1.5536  0.7429  0.2689
  190SLPC  H15C21919   1.357   0.205   6.367  0.5459 -0.2602  0.8864
  190SLPC   C1221920   1.132   0.243   6.207  1.2232 -0.1871 -0.1623
  190SLPC  H12A21921   1.072   0.220   6.121  1.0718  0.0040 -0.1068
  190SLPC  H12B21922   1.218   0.297   6.170  1.8102  1.0364  2.7208
  190SLPC   C1121923   1.059   0.329   6.310 -0.3719 -0.3541 -0.2317
  190SLPC  H11A21924   1.006   0.279   6.395 -2.5506  0.7190 -0.8850
  190SLPC  H11B21925   0.981   0.374   6.246 -1.4979  0.4267  1.5930
  190SLPC     P21926   1.156   0.568   6.316 -0.7893  0.0766  0.2576
  190SLPC   O1321927   1.239   0.641   6.413 -0.9970 -0.2383 -0.1938
  190SLPC   O1421928   1.203   0.583   6.175 -0.1612  0.0945 -0.4221
  190SLPC   O1221929   1.154   0.415   6.362  0.3218 -0.2295 -0.1336
  190SLPC   O1121930   1.009   0.616   6.324  0.7683 -0.3944  0.2503
  190SLPC    C121931   0.921   0.586   6.429  0.6097 -0.0967 -0.2905
  190SLPC    HA21932   0.877   0.488   6.401 -1.5805  0.7191  0.0689
  190SLPC    HB21933   0.969   0.579   6.529 -2.9028  1.2592  1.6853
  190SLPC    C221934   0.823   0.706   6.443  0.2375  0.7707 -0.1359
  190SLPC    HS21935   0.805   0.750   6.343  2.0047  2.0838  0.0741
  190SLPC   O2121936   0.893   0.804   6.523  0.6331 -0.1389  0.5173
  190SLPC   C2121937   0.844   0.930   6.509 -0.2373 -0.9196  0.5980
  190SLPC   O2221938   0.747   0.958   6.443 -0.1192 -0.2213 -0.5905
  190SLPC   C2221939   0.933   1.024   6.597  0.1340 -0.4361  0.5855
  190SLPC   H2R21940   0.997   0.970   6.669  1.0834  1.4390  1.2192
  190SLPC   H2S21941   1.014   1.055   6.528 -0.0790 -3.1821 -1.0389
  190SLPC    C321942   0.698   0.657   6.516  1.0423 -0.9479  0.7357
  190SLPC    HX21943   0.640   0.600   6.440  0.8017  1.1958 -0.7719
  190SLPC    HY21944   0.643   0.751   6.539 -1.1187 -1.7092 -0.9964
  190SLPC   O3121945   0.722   0.573   6.626  0.0906 -1.1257  0.4800
  190SLPC   C3121946   0.664   0.601   6.736 -0.3445  0.2618 -0.1630
  190SLPC   O3221947   0.579   0.683   6.764 -0.1631 -0.3169  0.7173
  190SLPC   C3221948   0.723   0.512   6.853 -0.1525  0.0707  0.2233
  190SLPC   H2X21949   0.830   0.498   6.825 -0.4584  0.8118 -1.4601
  190SLPC   H2Y21950   0.668   0.416   6.841 -0.1420  0.2538 -1.6484
  190SLPC   C2321951   0.859   1.147   6.662  0.3998  0.5900  0.3748
  190SLPC   H3R21952   0.790   1.187   6.585 -1.6619  0.4790  2.0905
  190SLPC   H3S21953   0.943   1.217   6.685  1.1282  0.0470 -0.5837
  190SLPC   C2421954   0.778   1.111   6.785 -0.6498  0.9101  0.4603
  190SLPC   H4R21955   0.839   1.041   6.846 -1.1818 -0.4716 -0.5562
  190SLPC   H4S21956   0.688   1.053   6.758  1.2429 -1.6112 -0.9287
  190SLPC   C2521957   0.732   1.221   6.880 -0.2025  0.5171  0.2473
  190SLPC   H5R21958   0.650   1.275   6.829 -0.5988  0.5372  0.8920
  190SLPC   H5S21959   0.817   1.290   6.900  1.3286 -0.7329 -1.6460
  190SLPC   C2621960   0.687   1.156   7.018 -0.4569 -0.8151  0.0168
  190SLPC   H6R21961   0.767   1.088   7.055 -0.3563 -1.5418 -1.4294
  190SLPC   H6S21962   0.602   1.087   7.001 -1.0814 -0.2429  0.7616
  190SLPC   C2721963   0.623   1.258   7.114  0.0574 -0.3085 -0.0412
  190SLPC   H7R21964   0.535   1.307   7.068 -0.7966 -2.5258 -0.9103
  190SLPC   H7S21965   0.704   1.327   7.146 -0.0308 -0.3297  0.2319
  190SLPC   C2821966   0.562   1.189   7.247  0.5769 -0.6753  0.6120
  190SLPC   H8R21967   0.510   1.092   7.234  0.6387 -0.5658 -0.6234
  190SLPC   H8S21968   0.486   1.261   7.282  1.3854  0.5635 -0.1074
  190SLPC   C2921969   0.670   1.157   7.348 -0.0640 -0.9871  0.5060
  190SLPC   H9R21970   0.723   1.062   7.339  3.5419  0.9456 -0.5555
  190SLPC  C21021971   0.711   1.245   7.441 -0.8232  0.7211  0.0591
  190SLPC  H10R21972   0.777   1.221   7.525 -0.0719  0.1408 -0.6862
  190SLPC  C21121973   0.649   1.382   7.462  0.0523 -0.5188 -0.5979
  190SLPC  H11R21974   0.660   1.447   7.373 -0.7835  0.7140  0.1818
  190SLPC  H11S21975   0.713   1.423   7.543 -0.4624 -0.9666  0.0361
  190SLPC  C21221976   0.506   1.384   7.514  0.1138 -0.5243  0.1882
  190SLPC  H12R21977   0.461   1.285   7.532 -1.7249  0.0234 -1.0651
  190SLPC  C21321978   0.440   1.499   7.543  0.0020  0.0457 -0.5559
  190SLPC  H13R21979   0.337   1.490   7.581 -0.3657  1.4751 -1.1483
  190SLPC  C21421980   0.498   1.637   7.530 -0.0277  0.2473  0.7129
  190SLPC  H14R21981   0.411   1.706   7.517 -0.3747 -0.6353 -2.5665
  190SLPC  H14S21982   0.561   1.647   7.439 -1.0393 -2.8418 -0.4659
  190SLPC  C21521983   0.579   1.651   7.658  0.3298 -0.3736  0.3883
  190SLPC  H15R21984   0.686   1.637   7.633  0.0499 -3.3356  0.4515
  190SLPC  H15S21985   0.557   1.583   7.743  0.0267  0.9825  1.4364
  190SLPC  C21621986   0.556   1.793   7.719  0.5178 -0.4359 -0.6398
  190SLPC  H16R21987   0.579   1.875   7.648 -2.8194  0.6890 -0.5764
  190SLPC  H16S21988   0.634   1.796   7.798 -0.1625  0.6982  0.0091
  190SLPC  C21721989   0.414   1.829   7.771  0.2518 -0.1862  0.1498
  190SLPC  H17R21990   0.382   1.748   7.840 -2.9778 -0.8786 -1.9665
  190SLPC  H17S21991   0.331   1.827   7.698 -0.7686 -0.3979  1.2812
  190SLPC  C21821992   0.424   1.964   7.847  0.3473 -0.3636 -0.2055
  190SLPC  H18R21993   0.334   1.993   7.905 -0.5824 -2.5001 -0.4784
  190SLPC  H18S21994   0.453   2.039   7.770 -0.0168  1.7078  1.5766
  190SLPC  H18T21995   0.505   1.950   7.921  1.7708  1.3809 -1.3442
  190SLPC   C3321996   0.714   0.555   7.005 -1.0545  0.3857  0.5814
  190SLPC   H3X21997   0.747   0.472   7.071 -2.1022 -0.2491  0.3258
  190SLPC   H3Y21998   0.607   0.580   7.023 -1.1698  1.9849 -1.9192
  190SLPC   C3421999   0.795   0.675   7.032 -0.4808  0.1149 -0.7709
  190SLPC   H4X22000   0.766   0.757   6.963  0.2950  1.8434  0.8627
  190SLPC   H4Y22001   0.904   0.657   7.020 -0.3192  0.2546  0.3130
  190SLPC   C3522002   0.781   0.719   7.175 -0.4938  0.1857 -0.6054
  190SLPC   H5X22003   0.671   0.729   7.194 -0.1585  0.6413  1.3898
  190SLPC   H5Y22004   0.831   0.818   7.183  2.7043 -1.2229 -1.6907
  190SLPC   C3622005   0.835   0.631   7.283  0.1566 -0.2847  0.0390
  190SLPC   H6X22006   0.946   0.632   7.274  0.3223  1.9810  1.5173
  190SLPC   H6Y22007   0.806   0.524   7.272 -0.3457 -0.0804 -0.7142
  190SLPC   C3722008   0.808   0.685   7.428 -0.1734  0.6020  0.6115
  190SLPC   H7X22009   0.843   0.598   7.488  0.1736  1.9118  2.3870
  190SLPC   H7Y22010   0.697   0.686   7.439 -0.3203 -0.4855 -0.4801
  190SLPC   C3822011   0.873   0.820   7.458  0.3740  0.2662 -0.0217
  190SLPC   H8X22012   0.815   0.900   7.405 -2.4755 -1.9142 -0.4604
  190SLPC   H8Y22013   0.973   0.815   7.411  0.6654 -0.1762  0.6474
  190SLPC   C3922014   0.900   0.844   7.607  0.0854 -0.3965  0.0839
  190SLPC   H9X22015   0.948   0.942   7.631  0.6854 -0.3296 -1.3033
  190SLPC   H9Y22016   0.961   0.760   7.648 -2.3229 -2.4923 -0.4136
  190SLPC  C31022017   0.758   0.853   7.673  0.3727  0.2739 -0.1880
  190SLPC  H10X22018   0.714   0.753   7.694  2.7708 -0.7030  0.5138
  190SLPC  H10Y22019   0.699   0.904   7.594 -1.5917 -2.0458 -0.3208
  190SLPC  C31122020   0.752   0.929   7.801  0.7850  0.1242  0.1730
  190SLPC  H11X22021   0.813   1.022   7.804  3.4680 -1.4535 -1.1764
  190SLPC  H11Y22022   0.804   0.866   7.876 -0.3720  0.2418  1.0978
  190SLPC  C31222023   0.614   0.951   7.845 -0.1901  0.4182  0.4161
  190SLPC  H12X22024   0.616   1.003   7.943  0.6639  1.2533 -0.0240
  190SLPC  H12Y22025   0.542   0.866   7.849  0.1353  0.1424  0.4954
  190SLPC  C31322026   0.539   1.060   7.756  0.1574 -0.2843  0.9480
  190SLPC  H13X22027   0.520   1.008   7.659  1.0962  1.7382 -0.4011
  190SLPC  H13Y22028   0.609   1.143   7.733  0.7401 -1.0133  0.0591
  190SLPC  C31422029   0.413   1.111   7.819  0.7208 -0.0808  0.3234
  190SLPC  H14X22030   0.327   1.041   7.827 -0.4202  1.2112 -0.0939
  190SLPC  H14Y22031   0.380   1.181   7.739 -1.3397 -0.7149  0.5548
  190SLPC  C31522032   0.422   1.188   7.947 -0.6038 -0.4466  0.1649
  190SLPC  H15X22033   0.437   1.121   8.035 -3.3552  0.8130  1.7280
  190SLPC  H15Y22034   0.323   1.232   7.971 -0.4023  0.7211 -1.0948
  190SLPC  C31622035   0.547   1.287   7.957  0.5008  0.4132 -0.1417
  190SLPC  H16X22036   0.558   1.329   7.854 -1.9164 -4.3420 -2.6861
  190SLPC  H16Y22037   0.640   1.227   7.971  0.8296  0.8752 -0.2862
  190SLPC  C31722038   0.526   1.395   8.055  0.4131  0.2699 -0.3187
  190SLPC  H17X22039   0.620   1.453   8.062 -0.8383  2.6938 -1.9351
  190SLPC  H17Y22040   0.505   1.350   8.155  0.8720  1.5051  0.3571
  190SLPC  C31822041   0.414   1.497   8.016  0.5616 -0.9923  0.5308
  190SLPC  H18X22042   0.436   1.518   7.909 -1.6094  1.5650  0.4779
  190SLPC  H18Y22043   0.423   1.590   8.077 -0.1749 -0.0404 -0.7527
  190SLPC  H18Z22044   0.311   1.457   8.027 -0.6414  2.2820  3.0926
  191SLPC     N22045   6.585   4.492   5.713 -0.5270 -0.7905 -0.1601
  191SLPC   C1322046   6.526   4.346   5.708 -0.3560 -0.9259  0.0090
  191SLPC  H13A22047   6.577   4.278   5.641  1.4813 -0.7492  1.1561
  191SLPC  H13B22048   6.541   4.295   5.803  0.3507  0.5728  0.7399
  191SLPC  H13C22049   6.421   4.346   5.687 -0.1767  1.0387 -1.0404
  191SLPC   C1422050   6.493   4.583   5.788  1.0077  0.4591 -0.2635
  191SLPC  H14A22051   6.517   4.687   5.774  0.9891  0.3674 -1.0372
  191SLPC  H14B22052   6.392   4.571   5.751  1.4121 -0.8350 -1.0258
  191SLPC  H14C22053   6.494   4.560   5.893  0.4897  0.4625 -0.2519
  191SLPC   C1522054   6.587   4.533   5.571 -0.6379 -0.4210 -0.0111
  191SLPC  H15A22055   6.663   4.476   5.519 -0.5114  0.8116 -1.2142
  191SLPC  H15B22056   6.494   4.519   5.518 -0.7151 -0.9730  0.2639
  191SLPC  H15C22057   6.618   4.636   5.568  0.6692 -0.8050 -0.5001
  191SLPC   C1222058   6.721   4.494   5.766 -0.1503 -0.1738 -0.4764
  191SLPC  H12A22059   6.767   4.590   5.747 -1.1376  0.0145 -2.1044
  191SLPC  H12B22060   6.789   4.429   5.714  0.7083 -0.9576  1.5114
  191SLPC   C1122061   6.743   4.469   5.916  0.3556  1.1773 -0.0210
  191SLPC  H11A22062   6.681   4.542   5.971 -1.3766  1.1741 -1.8557
  191SLPC  H11B22063   6.848   4.494   5.940  0.1134  1.7394  0.4938
  191SLPC     P22064   6.779   4.209   5.910 -0.2897 -0.0183  0.3071
  191SLPC   O1322065   6.689   4.141   5.814 -0.0015  0.6586  0.2488
  191SLPC   O1422066   6.917   4.238   5.863  0.2202  0.4869  0.1740
  191SLPC   O1222067   6.706   4.333   5.966 -0.3248 -0.2412  0.1683
  191SLPC   O1122068   6.785   4.106   6.031  0.3820  0.0261 -0.0996
  191SLPC    C122069   6.832   4.169   6.153  0.4317  0.1044  0.3081
  191SLPC    HA22070   6.939   4.197   6.140  1.4068 -1.7585  3.2597
  191SLPC    HB22071   6.773   4.254   6.194 -0.8338  0.4641 -2.1188
  191SLPC    C222072   6.841   4.065   6.276 -0.3005 -0.1547 -0.5278
  191SLPC    HS22073   6.918   3.988   6.254 -1.4748 -0.9544 -2.0487
  191SLPC   O2122074   6.713   3.999   6.296 -0.6162 -0.3703  0.4993
  191SLPC   C2122075   6.722   3.888   6.362 -0.2616  0.9093 -0.9847
  191SLPC   O2222076   6.826   3.833   6.401 -0.5437  0.1176 -0.0119
  191SLPC   C2222077   6.584   3.838   6.397 -0.4942 -0.0557 -0.6548
  191SLPC   H2R22078   6.564   3.888   6.495  0.0016 -0.2446 -0.4547
  191SLPC   H2S22079   6.518   3.879   6.318 -0.9285  0.4918 -0.0189
  191SLPC    C322080   6.905   4.137   6.407  0.7991 -0.6573  0.2645
  191SLPC    HX22081   6.864   4.239   6.426 -0.2927 -1.5489  3.2354
  191SLPC    HY22082   7.014   4.153   6.392  0.3449  2.1431 -0.7801
  191SLPC   O3122083   6.875   4.060   6.529  0.2381 -0.0767  0.2482
  191SLPC   C3122084   6.962   4.090   6.634  0.0404  0.1639 -0.0377
  191SLPC   O3222085   7.063   4.151   6.624 -0.0192  0.2314  0.0318
  191SLPC   C3222086   6.897   4.026   6.757  0.6014  0.5202  0.3066
  191SLPC   H2X22087   6.912   3.916   6.747  2.4551  0.6360  1.2097
  191SLPC   H2Y22088   6.788   4.043   6.750 -0.4603 -4.6346 -0.0060
  191SLPC   C2322089   6.570   3.683   6.400  0.1097  0.4255  0.0993
  191SLPC   H3R22090   6.631   3.638   6.318  0.1838 -0.9226  0.8563
  191SLPC   H3S22091   6.464   3.653   6.396  0.0825  0.1631  2.0058
  191SLPC   C2422092   6.622   3.615   6.534  0.5242 -0.0919  0.9252
  191SLPC   H4R22093   6.730   3.642   6.532  0.4296  0.5928 -2.5387
  191SLPC   H4S22094   6.606   3.507   6.515 -3.0348 -0.2209  3.7093
  191SLPC   C2522095   6.557   3.672   6.653 -0.7226  0.1202  0.2431
  191SLPC   H5R22096   6.449   3.671   6.627 -1.1064 -0.3836  1.7935
  191SLPC   H5S22097   6.582   3.780   6.663  0.7904 -0.2105  0.2232
  191SLPC   C2622098   6.583   3.601   6.784  0.2613  0.2732 -0.1543
  191SLPC   H6R22099   6.602   3.494   6.762  1.2480  0.1013  1.3708
  191SLPC   H6S22100   6.496   3.610   6.853  1.0818  1.6791  0.7629
  191SLPC   C2722101   6.704   3.663   6.860 -0.4020 -0.2615 -0.0178
  191SLPC   H7R22102   6.672   3.762   6.898  1.1528  0.8067 -1.3579
  191SLPC   H7S22103   6.784   3.670   6.784 -0.5016 -1.6766 -0.2756
  191SLPC   C2822104   6.745   3.583   6.989  0.2715  0.1627 -0.0218
  191SLPC   H8R22105   6.796   3.487   6.964 -0.6299 -0.9625  2.1925
  191SLPC   H8S22106   6.650   3.548   7.035  1.8496 -2.2029  1.6695
  191SLPC   C2922107   6.827   3.651   7.101 -0.2165 -0.0150 -0.9592
  191SLPC   H9R22108   6.933   3.673   7.079 -0.0944 -0.5592 -0.9380
  191SLPC  C21022109   6.790   3.682   7.229  0.4425 -0.8677  0.0569
  191SLPC  H10R22110   6.866   3.721   7.298  0.0996  0.4876 -0.2965
  191SLPC  C21122111   6.653   3.669   7.299 -0.0171  0.2758 -0.1385
  191SLPC  H11R22112   6.571   3.686   7.226 -1.1338  3.1028  1.5725
  191SLPC  H11S22113   6.648   3.751   7.375 -0.3976 -2.0167  2.4540
  191SLPC  C21222114   6.637   3.522   7.352 -0.5422 -0.2777 -0.4795
  191SLPC  H12R22115   6.603   3.457   7.269 -1.3739  0.1714 -0.5059
  191SLPC  C21322116   6.653   3.482   7.482 -0.2074  0.2805  0.1323
  191SLPC  H13R22117   6.634   3.380   7.518  1.5196  0.0465  0.4816
  191SLPC  C21422118   6.679   3.571   7.598 -0.3830  0.0761  0.4413
  191SLPC  H14R22119   6.579   3.588   7.643 -0.6514 -0.8419  0.2151
  191SLPC  H14S22120   6.721   3.667   7.561 -1.4958  0.5262  0.3179
  191SLPC  C21522121   6.783   3.510   7.700  0.4766  0.0803  1.0626
  191SLPC  H15R22122   6.879   3.492   7.646  0.0476 -0.8130  0.5728
  191SLPC  H15S22123   6.741   3.410   7.727  2.4185 -0.5411  1.9601
  191SLPC  C21622124   6.820   3.590   7.828 -0.9884  0.0856 -0.4598
  191SLPC  H16R22125   6.738   3.645   7.878  0.1387  0.3475  1.1582
  191SLPC  H16S22126   6.883   3.669   7.780  0.5456 -1.9806 -2.0830
  191SLPC  C21722127   6.917   3.511   7.928 -0.8189 -0.3626  0.1146
  191SLPC  H17R22128   6.986   3.459   7.858 -2.2764 -0.1150 -1.5915
  191SLPC  H17S22129   6.853   3.444   7.989  0.2168 -0.9594  0.5746
  191SLPC  C21822130   6.994   3.601   8.027 -0.1214  0.1926 -0.5403
  191SLPC  H18R22131   7.061   3.672   7.973 -0.8181  0.8235 -0.5962
  191SLPC  H18S22132   7.055   3.536   8.093 -0.5384  0.0845 -0.2592
  191SLPC  H18T22133   6.925   3.656   8.094  1.7509 -0.3330  1.9725
  191SLPC   C3322134   6.960   4.059   6.891 -0.7395 -0.6311 -0.3868
  191SLPC   H3X22135   7.068   4.085   6.884 -0.2536 -2.5143 -0.5856
  191SLPC   H3Y22136   6.944   3.980   6.968 -0.1370  1.1258  1.6393
  191SLPC   C3422137   6.879   4.171   6.965 -0.6794 -0.0792  0.2153
  191SLPC   H4X22138   6.775   4.147   6.998 -1.4731 -0.7983 -2.5419
  191SLPC   H4Y22139   6.876   4.260   6.898 -2.2762  0.9189  1.5194
  191SLPC   C3522140   6.953   4.213   7.091 -0.1803  0.2627  0.3042
  191SLPC   H5X22141   7.003   4.129   7.145  1.6411 -0.0391 -1.6953
  191SLPC   H5Y22142   6.878   4.244   7.166 -0.5124  0.7118 -0.2068
  191SLPC   C3622143   7.058   4.325   7.060 -0.3324 -0.3442  0.2353
  191SLPC   H6X22144   7.024   4.417   7.007  0.0242  1.1365  2.4240
  191SLPC   H6Y22145   7.134   4.274   6.998 -0.0618  1.4555 -1.0097
  191SLPC   C3722146   7.134   4.377   7.176 -0.1760 -0.0082  0.0108
  191SLPC   H7X22147   7.207   4.457   7.151 -0.5151  1.1365  2.3569
  191SLPC   H7Y22148   7.191   4.291   7.218 -0.8353 -0.5315 -0.1464
  191SLPC   C3822149   7.044   4.421   7.289 -0.3369  0.4535 -0.4297
  191SLPC   H8X22150   6.985   4.338   7.332 -1.4604  1.8069  0.7416
  191SLPC   H8Y22151   6.967   4.486   7.242 -1.2206  0.3748  0.8734
  191SLPC   C3922152   7.127   4.505   7.394  0.4477 -0.2415  0.0672
  191SLPC   H9X22153   7.053   4.529   7.473  0.1949  3.0782 -1.0484
  191SLPC   H9Y22154   7.157   4.604   7.355  2.3785 -0.5849  0.5909
  191SLPC  C31022155   7.258   4.451   7.462 -0.6765  0.4813  0.5537
  191SLPC  H10X22156   7.295   4.528   7.534  1.5342 -1.7986  2.0538
  191SLPC  H10Y22157   7.336   4.427   7.387 -1.3514  0.9232 -0.3041
  191SLPC  C31122158   7.217   4.325   7.537  0.1315 -0.5497 -0.0305
  191SLPC  H11X22159   7.178   4.240   7.479 -3.0789  0.6640  0.1408
  191SLPC  H11Y22160   7.140   4.361   7.609  0.1450  0.4321 -0.4890
  191SLPC  C31222161   7.338   4.289   7.629  0.5776 -0.9393  0.4161
  191SLPC  H12X22162   7.367   4.382   7.682  0.4376 -2.0576  2.5225
  191SLPC  H12Y22163   7.427   4.256   7.571  1.5074 -0.7307  1.6918
  191SLPC  C31322164   7.306   4.180   7.724  0.0015  0.9290  0.0624
  191SLPC  H13X22165   7.275   4.101   7.654 -0.5112  0.5993  0.6554
  191SLPC  H13Y22166   7.222   4.208   7.791 -0.3801 -1.4683  0.6619
  191SLPC  C31422167   7.427   4.137   7.814  0.0488  0.7487 -0.1670
  191SLPC  H14X22168   7.465   4.224   7.872  1.8571 -0.4266  0.5089
  191SLPC  H14Y22169   7.514   4.097   7.757  1.4930  0.3513  2.1414
  191SLPC  C31522170   7.388   4.022   7.907  0.0460 -0.9333 -0.7234
  191SLPC  H15X22171   7.364   3.941   7.835  1.0694  0.0884 -2.2649
  191SLPC  H15Y22172   7.294   4.050   7.959 -1.5767  2.6333 -5.0417
  191SLPC  C31622173   7.489   3.977   8.008 -0.1478  0.2947 -0.7150
  191SLPC  H16X22174   7.521   4.060   8.074 -0.5883 -0.5565  0.6046
  191SLPC  H16Y22175   7.578   3.939   7.953  0.2998 -1.1543  0.9246
  191SLPC  C31722176   7.443   3.860   8.103  0.1435 -0.2140  0.7745
  191SLPC  H17X22177   7.384   3.782   8.050  0.2019 -0.3165  0.8587
  191SLPC  H17Y22178   7.369   3.898   8.177  0.7341  0.9565  0.7955
  191SLPC  C31822179   7.548   3.796   8.188  0.1575  0.0723 -0.2527
  191SLPC  H18X22180   7.517   3.694   8.221 -2.2349  0.0615 -2.3197
  191SLPC  H18Y22181   7.573   3.853   8.280  0.8485 -0.4903 -0.0820
  191SLPC  H18Z22182   7.643   3.784   8.132  1.4031 -1.1970  1.9700
  192SLPC     N22183   1.186   4.310   6.181 -0.5742 -0.5102  0.0775
  192SLPC   C1322184   1.074   4.294   6.269 -0.4924 -0.5361  0.1963
  192SLPC  H13A22185   1.111   4.272   6.367  1.4147  1.4946  0.0006
  192SLPC  H13B22186   1.014   4.383   6.280  1.3767  0.5845  1.9087
  192SLPC  H13C22187   1.016   4.206   6.243 -0.3308 -0.0641 -2.0064
  192SLPC   C1422188   1.270   4.428   6.213  0.1358  0.1220 -0.2973
  192SLPC  H14A22189   1.307   4.435   6.314 -0.6545 -0.4316  0.0410
  192SLPC  H14B22190   1.363   4.417   6.158 -0.7495 -2.5506 -1.4562
  192SLPC  H14C22191   1.222   4.517   6.175 -0.5470 -0.4180 -0.7301
  192SLPC   C1522192   1.125   4.323   6.038  0.4864 -0.4832 -0.1467
  192SLPC  H15A22193   1.195   4.310   5.956 -2.1886 -0.4226 -2.6108
  192SLPC  H15B22194   1.039   4.258   6.032 -0.9516  1.2397  0.6386
  192SLPC  H15C22195   1.078   4.419   6.023 -2.3814 -1.1152  3.5030
  192SLPC   C1222196   1.267   4.187   6.189  0.8517  0.2857 -0.0864
  192SLPC  H12A22197   1.358   4.187   6.131 -0.3892 -1.3189 -2.2007
  192SLPC  H12B22198   1.207   4.106   6.149  0.3664  0.7494 -0.2983
  192SLPC   C1122199   1.311   4.141   6.329  0.1334 -0.2426  1.0282
  192SLPC  H11A22200   1.369   4.047   6.320  2.7951  1.0984  2.9628
  192SLPC  H11B22201   1.226   4.110   6.394 -1.0345 -1.2871 -0.8743
  192SLPC     P22202   1.551   4.243   6.345 -0.0460  0.0574  0.1911
  192SLPC   O1322203   1.558   4.233   6.202  0.5169 -0.5469 -0.3020
  192SLPC   O1422204   1.605   4.369   6.402  0.2521 -0.5454  0.2325
  192SLPC   O1222205   1.396   4.229   6.397 -1.0251  0.3636  0.0396
  192SLPC   O1122206   1.626   4.111   6.402 -0.0734 -0.1335  0.1696
  192SLPC    C122207   1.673   4.113   6.539  0.1698  1.0681 -0.3265
  192SLPC    HA22208   1.760   4.047   6.562 -1.1790 -1.3902 -1.8566
  192SLPC    HB22209   1.718   4.208   6.574  2.1079 -0.4608  1.6613
  192SLPC    C222210   1.563   4.061   6.643  0.3659 -0.4800  0.2881
  192SLPC    HS22211   1.477   4.130   6.634  0.6340 -0.2030 -0.1909
  192SLPC   O2122212   1.619   4.056   6.770  0.0130  0.1978 -0.6356
  192SLPC   C2122213   1.605   4.170   6.834 -0.2051 -0.0409  0.3879
  192SLPC   O2222214   1.556   4.270   6.783 -0.6114  0.3332 -0.5491
  192SLPC   C2222215   1.643   4.163   6.980  0.4734  0.4830  0.6540
  192SLPC   H2R22216   1.749   4.196   6.984  0.5995  0.0680  0.8060
  192SLPC   H2S22217   1.581   4.243   7.025 -0.5242  0.2861 -0.3398
  192SLPC    C322218   1.505   3.926   6.610  0.1581  0.1383  0.2467
  192SLPC    HX22219   1.581   3.865   6.556 -0.5468 -1.0506  0.5583
  192SLPC    HY22220   1.410   3.937   6.553 -1.5935 -1.2740  2.6853
  192SLPC   O3122221   1.449   3.855   6.728 -0.4027  0.0241  0.1715
  192SLPC   C3122222   1.530   3.783   6.808 -0.7383  0.9356  0.9312
  192SLPC   O3222223   1.645   3.750   6.781  0.3009 -0.3768 -1.0142
  192SLPC   C3222224   1.450   3.737   6.930  0.0283  0.1319  0.3580
  192SLPC   H2X22225   1.363   3.678   6.894  0.1884  0.9205 -1.4142
  192SLPC   H2Y22226   1.421   3.829   6.984  2.0453  1.1000 -0.0853
  192SLPC   C2322227   1.615   4.024   7.038 -0.5746 -0.5085 -0.2778
  192SLPC   H3R22228   1.673   3.951   6.977  0.6880 -0.5087  0.8752
  192SLPC   H3S22229   1.507   4.003   7.028 -1.0302  2.2979 -2.3197
  192SLPC   C2422230   1.654   4.017   7.182 -1.3840 -0.8245 -0.0634
  192SLPC   H4R22231   1.593   4.088   7.243 -0.0632  1.0548 -0.8186
  192SLPC   H4S22232   1.759   4.054   7.185 -1.5861 -0.1575 -0.8495
  192SLPC   C2522233   1.646   3.883   7.250 -0.7380  0.2687  0.1239
  192SLPC   H5R22234   1.719   3.813   7.205 -0.7213  0.9475 -0.9307
  192SLPC   H5S22235   1.550   3.829   7.239 -1.0698  0.5084  1.6547
  192SLPC   C2622236   1.679   3.891   7.397  0.1953 -0.5374 -0.1114
  192SLPC   H6R22237   1.774   3.947   7.412  0.2038 -0.6653  0.3176
  192SLPC   H6S22238   1.699   3.789   7.436  0.6346 -0.4429 -0.0883
  192SLPC   C2722239   1.560   3.947   7.480  0.9529 -0.5717  0.2803
  192SLPC   H7R22240   1.526   4.040   7.431  0.5269 -1.1652 -0.5574
  192SLPC   H7S22241   1.588   3.992   7.578 -1.1568  0.0061  0.6604
  192SLPC   C2822242   1.435   3.855   7.482  0.6182  0.3400 -0.8314
  192SLPC   H8R22243   1.383   3.842   7.385  1.2003 -0.7881 -1.0038
  192SLPC   H8S22244   1.353   3.905   7.538 -1.2093 -1.5884 -1.6471
  192SLPC   C2922245   1.453   3.711   7.532  0.5223 -0.2239 -0.9028
  192SLPC   H9R22246   1.511   3.647   7.464  0.9848 -0.6698 -0.1071
  192SLPC  C21022247   1.381   3.650   7.632  0.5129 -0.8466  0.0608
  192SLPC  H10R22248   1.408   3.548   7.662 -0.2218 -1.3937 -1.0779
  192SLPC  C21122249   1.283   3.719   7.726 -0.2321 -1.0110 -0.1420
  192SLPC  H11R22250   1.188   3.662   7.727  0.1983 -1.7398 -0.0305
  192SLPC  H11S22251   1.256   3.822   7.694  1.6152 -0.5515 -0.3588
  192SLPC  C21222252   1.331   3.724   7.866 -0.0652  0.0595 -0.3733
  192SLPC  H12R22253   1.390   3.814   7.886 -0.5786  0.0605  1.2546
  192SLPC  C21322254   1.308   3.627   7.957  0.2832 -0.7286 -0.6413
  192SLPC  H13R22255   1.347   3.640   8.059 -0.1517 -0.6424 -0.4848
  192SLPC  C21422256   1.238   3.496   7.926 -0.7682 -0.4288  0.3725
  192SLPC  H14R22257   1.306   3.439   7.860  1.9258 -0.7480  3.1797
  192SLPC  H14S22258   1.139   3.505   7.877 -0.9625 -0.5334  0.7384
  192SLPC  C21522259   1.213   3.415   8.048  0.4464  0.4564 -0.2118
  192SLPC  H15R22260   1.310   3.390   8.094  1.1398  0.4739 -1.6294
  192SLPC  H15S22261   1.170   3.317   8.019 -0.5769  0.6813  0.4835
  192SLPC  C21622262   1.112   3.470   8.153  0.8478 -0.0485  0.4808
  192SLPC  H16R22263   1.163   3.549   8.212 -1.3589  1.1461  0.8946
  192SLPC  H16S22264   1.087   3.385   8.219  0.9222 -0.2092  0.3049
  192SLPC  C21722265   0.986   3.546   8.105 -0.2065  0.6648 -0.6195
  192SLPC  H17R22266   0.975   3.635   8.171 -1.5460  0.3196 -0.3602
  192SLPC  H17S22267   1.001   3.577   7.999  3.1567 -0.6154 -0.6417
  192SLPC  C21822268   0.849   3.474   8.103  0.1364  0.1064 -0.0232
  192SLPC  H18R22269   0.872   3.386   8.039  1.0007 -0.1500  0.6122
  192SLPC  H18S22270   0.772   3.536   8.053 -0.9930  0.2142  1.7818
  192SLPC  H18T22271   0.803   3.446   8.200  0.3010 -0.9126 -0.2201
  192SLPC   C3322272   1.531   3.648   7.026  0.4773  1.3036  0.4791
  192SLPC   H3X22273   1.490   3.660   7.128 -0.2215 -1.1645  0.5676
  192SLPC   H3Y22274   1.640   3.669   7.024  1.3918 -2.6444 -1.2507
  192SLPC   C3422275   1.500   3.495   7.004  0.2128  0.3188 -0.5104
  192SLPC   H4X22276   1.498   3.469   6.896 -0.6884 -1.7449 -0.0563
  192SLPC   H4Y22277   1.399   3.464   7.040  0.5689  0.5412  0.6967
  192SLPC   C3522278   1.597   3.402   7.072  0.4599  0.5861 -0.6514
  192SLPC   H5X22279   1.700   3.425   7.035  0.2334 -0.2356 -1.8372
  192SLPC   H5Y22280   1.575   3.299   7.039 -1.0930  0.3783  0.8895
  192SLPC   C3622281   1.585   3.415   7.224  0.2144  0.0143  0.2108
  192SLPC   H6X22282   1.479   3.412   7.258 -0.7788 -0.8295 -2.6725
  192SLPC   H6Y22283   1.639   3.509   7.249 -1.5527  1.1986 -0.2347
  192SLPC   C3722284   1.668   3.314   7.298 -0.6007  0.3634 -0.8406
  192SLPC   H7X22285   1.773   3.329   7.266 -0.5216  0.8956 -0.3483
  192SLPC   H7Y22286   1.649   3.210   7.265 -0.3500  0.4757 -1.3444
  192SLPC   C3822287   1.669   3.339   7.450  0.1194 -1.1608 -0.3929
  192SLPC   H8X22288   1.567   3.321   7.491  0.1190  0.5882  0.4430
  192SLPC   H8Y22289   1.700   3.443   7.475  0.8052 -1.1873 -1.0903
  192SLPC   C3922290   1.767   3.240   7.523  0.2060  0.0813 -0.0272
  192SLPC   H9X22291   1.868   3.239   7.475 -0.7720  0.8409 -2.2567
  192SLPC   H9Y22292   1.725   3.138   7.511  0.3425 -0.0669  0.7071
  192SLPC  C31022293   1.776   3.266   7.671  0.2828 -0.9451 -0.5341
  192SLPC  H10X22294   1.681   3.232   7.719  0.3738 -1.7463 -0.9023
  192SLPC  H10Y22295   1.786   3.375   7.686 -1.9336 -0.8303  0.5775
  192SLPC  C31122296   1.883   3.181   7.736 -0.1320 -0.4024 -0.2557
  192SLPC  H11X22297   1.979   3.234   7.717 -0.6755  0.4209 -0.8076
  192SLPC  H11Y22298   1.882   3.084   7.682 -1.7254 -0.8785  0.5682
  192SLPC  C31222299   1.874   3.172   7.888  0.5848  0.0478  0.4447
  192SLPC  H12X22300   1.789   3.102   7.904 -0.8975  2.1711  2.4719
  192SLPC  H12Y22301   1.856   3.273   7.932  1.7990 -0.0569  1.2453
  192SLPC  C31322302   1.993   3.097   7.954  0.2048  0.6788 -0.7524
  192SLPC  H13X22303   2.075   3.168   7.930 -0.4394  1.3923 -0.8781
  192SLPC  H13Y22304   1.993   2.996   7.907 -1.7881  0.4793 -0.4443
  192SLPC  C31422305   1.972   3.083   8.105 -0.2010 -0.3101  0.5233
  192SLPC  H14X22306   1.884   3.022   8.133  1.5903 -3.1011  0.4461
  192SLPC  H14Y22307   1.960   3.189   8.139 -1.3583  0.2792 -1.5553
  192SLPC  C31522308   2.090   3.025   8.178 -0.3780 -0.1754  0.7534
  192SLPC  H15X22309   2.174   3.094   8.160 -1.1215  2.3138  5.2755
  192SLPC  H15Y22310   2.109   2.923   8.139 -1.4755 -0.1759  0.1675
  192SLPC  C31622311   2.065   3.014   8.332 -0.1894 -0.0037 -0.5043
  192SLPC  H16X22312   1.962   2.976   8.351 -0.9309  0.6269 -2.9388
  192SLPC  H16Y22313   2.083   3.115   8.374  1.7057 -1.2397  1.9150
  192SLPC  C31722314   2.166   2.919   8.400 -0.2195  0.4784  0.3110
  192SLPC  H17X22315   2.167   2.826   8.340  1.6143  0.2414  0.6782
  192SLPC  H17Y22316   2.131   2.916   8.505 -0.9924  2.6713  0.1904
  192SLPC  C31822317   2.311   2.965   8.406  0.0237 -0.1748 -0.8921
  192SLPC  H18X22318   2.317   3.071   8.439 -1.6921 -0.5522  0.7797
  192SLPC  H18Y22319   2.356   2.963   8.304  2.3235 -1.4477  0.0649
  192SLPC  H18Z22320   2.373   2.897   8.468 -1.8436 -1.4882 -0.3507
  193SOD    SOD22321   3.401   0.059   4.986 -0.1538  0.5082 -0.1059
  194SOD    SOD22322   0.271   3.506   5.113 -0.2650 -0.1546  0.0949
  195SOD    SOD22323   6.841   6.645   1.100  0.3183  0.2261  0.2439
  196SOD    SOD22324   4.648   1.072   5.514  0.3694  0.2906  0.0105
  197SOD    SOD22325   6.439   3.810   5.951  0.6355  0.2224  0.3202
  198SOD    SOD22326   2.734   6.074   5.201 -0.0598 -0.5104  0.5506
  199SOD    SOD22327   1.152   5.552   5.613 -0.0349 -0.0065 -0.3731
  200SOD    SOD22328   6.157   0.069  15.942 -0.3080 -0.4905 -0.6073
  201SOD    SOD22329   0.120   2.529  16.256  0.0916  0.1652  0.4354
  202SOD    SOD22330   1.498   5.469   4.617 -0.5455  0.1965 -0.6296
  203SOD    SOD22331   5.408   5.818  12.224 -0.2744 -0.0437 -0.2481
  204SOD    SOD22332   3.496   3.962  11.951  0.3986 -0.7975 -0.0945
  205SOD    SOD22333   1.617   4.690  11.745  0.4410 -0.5214 -0.1755
  206SOD    SOD22334   3.119   0.386   6.119  0.4720  0.2496 -0.2676
  207SOD    SOD22335   4.195   1.857   5.213  0.6060 -0.1281  0.2264
  208SOD    SOD22336   5.389   1.672  10.675 -0.4566 -0.2338 -0.4341
  209SOD    SOD22337   5.426   2.210  14.064  0.0736 -0.1776 -0.0601
  210SOD    SOD22338   0.849   4.744   2.770 -0.1096  0.0630  0.4236
  211SOD    SOD22339   4.188   1.228  11.295 -0.0793 -0.1483 -0.0313
  212SOD    SOD22340   4.805   1.544   0.298 -0.2596  0.2860  0.5307
  213SOD    SOD22341   6.524   1.540  11.844  0.1975  0.3269  0.2727
  214SOD    SOD22342   5.038   6.374  16.698 -0.1958  0.1774  0.1511
  215SOD    SOD22343   6.274   5.400  13.833  0.6719  0.1404  0.2926
  216SOD    SOD22344   1.840   2.366   0.438  0.0489  0.1958 -0.0007
  217SOD    SOD22345   3.626   5.908   1.128  0.3052  0.2201 -0.4739
  218SOD    SOD22346   0.606   6.141  14.699 -0.0158 -0.1031  0.6365
  219SOD    SOD22347   1.953   2.418  16.437  0.2664 -0.2549 -0.2127
  220SOD    SOD22348   0.708   3.374   2.061 -0.4468 -0.6837  0.5004
  221SOD    SOD22349   3.015   1.839   2.046 -0.4432  0.0727  0.2717
  222SOD    SOD22350   5.264   1.274  16.361 -0.1384 -0.3393  0.1337
  223SOD    SOD22351   0.548   4.441   1.206  0.2190  0.3132  0.5037
  224SOD    SOD22352   4.472   5.714  16.627  0.0925  0.4785 -0.4136
  225SOD    SOD22353   5.576   3.340  11.273 -0.2168  0.2094  0.3780
  226SOD    SOD22354   6.183   3.768  12.124 -0.1524 -0.2405  0.0659
  227SOD    SOD22355   3.318   1.740  11.368 -0.1635 -0.0327  0.1559
  228SOD    SOD22356   5.118   0.700   2.905  0.3442  0.5805  0.4511
  229SOD    SOD22357   5.194   5.374   1.415  0.6151 -0.3751 -0.3379
  230SOD    SOD22358   2.919   2.830  12.272 -0.4684  0.5658 -0.0471
  231SOD    SOD22359   2.053   5.436  11.164  0.3702 -0.1967  0.0429
  232SOD    SOD22360   3.141   1.955  13.596 -0.3378 -0.5458 -0.0086
  233SOD    SOD22361   4.527   0.401  14.121  0.1693 -0.2632 -0.1541
  234SOD    SOD22362   3.951   0.364  12.227  0.2345  0.2051  0.0164
  235SOD    SOD22363   4.008   0.371   3.395 -0.0895 -0.0983 -0.2925
  236SOD    SOD22364   5.613   6.701  16.593 -0.0352  0.5127  0.1726
  237SOD    SOD22365   4.353   4.679   2.729 -0.5031  0.2171  0.5667
  238SOD    SOD22366   4.038   0.576   5.971 -0.0805  0.1668 -0.3021
  239SOD    SOD22367   3.044   4.802   4.699 -0.0005 -0.6387  0.2591
  240SOD    SOD22368   3.718   3.170   2.948 -0.1350 -0.2086  0.3950
  241SOD    SOD22369   4.001   0.490  12.933 -0.1537 -0.2925  0.0883
  242SOD    SOD22370   1.445   4.673   6.536  0.3553  0.1561  0.3916
  243SOD    SOD22371   2.461   5.235   1.814  0.7950 -0.0712 -0.1633
  244SOD    SOD22372   5.059   4.980   5.639  0.1769  0.5574 -0.0717
  245SOD    SOD22373   6.182   0.950   3.971  0.2146 -0.4839  0.1779
  246SOD    SOD22374   6.483   2.253  10.311 -0.1099 -0.1089  0.0872
  247SOD    SOD22375   2.206   4.075   5.516 -0.1026  0.3787  0.2807
  248SOD    SOD22376   0.911   4.407  14.969  0.1624  0.1076  0.0224
  249SOD    SOD22377   0.644   4.586  11.554 -0.1536 -0.0955  0.4089
  250SOD    SOD22378   0.461   1.709   3.277  0.2221 -0.4517 -0.3650
  251SOD    SOD22379   2.078   1.333  12.555  0.2448 -0.2441 -0.1857
  252SOD    SOD22380   4.977   2.579  15.614 -0.0956  0.0330 -0.1068
  253SOD    SOD22381   0.141   0.951   6.072  0.5944  0.2746 -0.2412
  254SOD    SOD22382   2.090   0.498   4.703 -0.2959 -0.3863  0.4972
  255SOD    SOD22383   4.346   1.241   3.937 -0.4179  0.8921  0.1413
  256SOD    SOD22384   6.533   1.188   4.677  0.1923  0.2145  0.0056
  257SOD    SOD22385   2.936   0.377  11.219  0.0506 -0.1630 -0.5018
  258SOD    SOD22386   1.602   3.798   3.411 -0.2756 -0.4311 -0.5279
  259SOD    SOD22387   0.030   2.389   4.570 -0.2026 -0.2245 -0.2239
  260SOD    SOD22388   5.371   2.813   3.698 -0.4299  0.2714 -0.4133
  261SOD    SOD22389   5.443   5.747   6.475  0.5799  0.2929 -0.3075
  262SOD    SOD22390   5.765   6.503   5.666 -0.4316  0.1670 -0.0107
  263SOD    SOD22391   1.711   0.110   1.401 -0.0646  0.1873 -0.5602
  264SOD    SOD22392   0.131   5.931  11.081  0.3253 -0.0481  0.1204
  265SOD    SOD22393   2.075   2.543  10.630 -0.5257 -0.2674  0.2786
  266CLA    CLA22394   4.530   0.599   4.449  0.0506  0.2443  0.1268
  267CLA    CLA22395   2.189   2.572   0.145 -0.5070 -0.0342 -0.5340
  268CLA    CLA22396   4.957   1.701  13.728  0.2717 -0.2092  0.2851
  269CLA    CLA22397   4.360   0.569   3.187 -0.0355  0.4383  0.2174
  270CLA    CLA22398   0.842   4.082   2.976 -0.1420  0.6860  0.3150
  271CLA    CLA22399   5.085   5.895   4.492 -0.1494  0.0394  0.0123
  272CLA    CLA22400   1.550   3.725   2.873 -0.2676  0.3011  0.2441
  273CLA    CLA22401   4.921   4.273   2.098 -0.3708 -0.4002 -0.1724
  274CLA    CLA22402   4.339   5.703   1.502  0.2043 -0.0468 -0.4027
  275CLA    CLA22403   2.567   0.512   0.014  0.2565  0.0311 -0.2516
  276CLA    CLA22404   2.343   4.251   5.379  0.1749  0.3003 -0.0327
  277CLA    CLA22405   5.243   5.944  15.706 -0.1559 -0.2176  0.2405
  278CLA    CLA22406   2.022   4.508   4.216  0.2641  0.2029 -0.0027
  279CLA    CLA22407   3.257   5.147  12.642 -0.0124  0.3113 -0.0051
  280CLA    CLA22408   6.131   3.636   3.042 -0.0171  0.4364 -0.0987
  281CLA    CLA22409   2.010   5.716   4.500  0.4150 -0.0090 -0.3059
  282CLA    CLA22410   0.518   3.481   4.957 -0.2353 -0.1890  0.0352
  283CLA    CLA22411   2.270   4.934   1.180 -0.0953 -0.2202  0.3665
  284CLA    CLA22412   2.704   0.951   2.697 -0.0363 -0.0813  0.0241
  285CLA    CLA22413   1.130   3.468   1.517  0.3901  0.1511 -0.0734
  286CLA    CLA22414   0.413   5.403  11.589  0.2617 -0.0493  0.0551
  287CLA    CLA22415   4.051   4.165   4.576  0.2418  0.0401 -0.2095
  288CLA    CLA22416   5.402   6.350  13.200 -0.6180  0.3527  0.3315
  289CLA    CLA22417   6.182   5.479  16.595 -0.0419  0.3542 -0.3590
  290CLA    CLA22418   6.650   6.154  12.011  0.1403  0.2054  0.1041
  291CLA    CLA22419   4.482   6.374   3.189 -0.2549 -0.4477  0.1846
  292CLA    CLA22420   0.153   0.091   3.496 -0.0328  0.2936  0.1873
  293CLA    CLA22421   4.739   6.036   2.809 -0.5615  0.1796 -0.4498
  294CLA    CLA22422   4.585   2.320  14.738  0.1152 -0.6472  0.1642
  295CLA    CLA22423   0.330   1.480   4.629 -0.1473  0.5707  0.3163
  296CLA    CLA22424   4.713   2.967   2.126  0.3951  0.2979  0.2891
  297CLA    CLA22425   0.146   2.465   0.618  0.3312  0.1356 -0.0169
  298CLA    CLA22426   0.787   1.318  15.752  0.1772 -0.2903 -0.6563
  299CLA    CLA22427   0.706   6.445   1.631  0.2230  0.0335 -0.1555
  300CLA    CLA22428   2.698   3.101   0.146 -0.2127 -0.1372  0.1675
  301CLA    CLA22429   3.913   1.332  17.019  0.1588 -0.1246  0.4252
  302CLA    CLA22430   2.731   2.498  11.995  0.3385 -0.3060 -0.1900
  303CLA    CLA22431   6.572   1.678  11.446 -0.0083  0.0526  0.1390
  304CLA    CLA22432   1.694   4.900  12.339 -0.2241 -0.5084 -0.8467
  305CLA    CLA22433   6.109   0.847   4.467  0.0968  0.2968 -0.0827
  306CLA    CLA22434   1.600   0.442  16.589  0.1482 -0.3729  0.0177
  307CLA    CLA22435   0.572   3.231   3.500  0.1251 -0.3592 -0.2176
  308CLA    CLA22436   5.707   4.515   5.364  0.2743 -0.1344  0.0333
  309CLA    CLA22437   3.084   5.636   2.763  0.2811 -0.1793 -0.2984
  310CLA    CLA22438   3.349   4.599   4.865  0.4445  0.1485 -0.0573
  311CLA    CLA22439   4.647   3.298  12.674 -0.0993 -0.7112 -0.2243
  312CLA    CLA22440   1.226   1.408  11.935 -0.0477 -0.0756 -0.1800
  313CLA    CLA22441   4.268   3.885  15.868 -0.0548 -0.2385 -0.1166
  314CLA    CLA22442   5.296   2.328  11.659 -0.0181  0.0258  0.0729
  315CLA    CLA22443   3.060   5.082  16.902  0.0081 -0.3046  0.2407
  316CLA    CLA22444   5.263   3.803  13.697 -0.4671 -0.2485 -0.1600
  317CLA    CLA22445   6.101   6.289  11.789 -0.1598  0.3130 -0.0275
  318CLA    CLA22446   6.749   2.365   4.302  0.0100  0.3407  0.4600
  319TIP3   OH222447   2.063   4.908   4.751  0.2046  0.0424 -0.4911
  319TIP3    H122448   2.120   4.936   4.679  0.9342 -0.4735 -0.1250
  319TIP3    H222449   2.117   4.849   4.803 -0.1707  0.7431  0.7371
  320TIP3   OH222450   4.707   3.651   1.595  0.2188 -0.8595  0.2175
  320TIP3    H122451   4.783   3.700   1.625 -2.0330  2.3859  1.1914
  320TIP3    H222452   4.701   3.671   1.502 -0.0548 -0.1224  0.3827
  321TIP3   OH222453   3.893   1.173  12.728 -0.1707 -0.3952 -0.1459
  321TIP3    H122454   3.959   1.201  12.665 -0.3345 -1.3599 -0.7606
  321TIP3    H222455   3.865   1.087  12.697 -0.0901 -1.0015  1.3603
  322TIP3   OH222456   4.344   3.308  16.433 -0.5247  0.2398 -0.4147
  322TIP3    H122457   4.405   3.247  16.392  0.5125  1.0165 -0.0747
  322TIP3    H222458   4.303   3.354  16.359  0.3438  0.6894 -0.6309
  323TIP3   OH222459   6.767   0.316   0.396  0.1413  0.3897  0.0449
  323TIP3    H122460   6.798   0.238   0.442 -1.2007  0.5205  1.2440
  323TIP3    H222461   6.703   0.283   0.333  1.3056  0.3072 -1.1282
  324TIP3   OH222462   0.364   0.673   0.489 -0.0106  1.0069 -0.3005
  324TIP3    H122463   0.415   0.754   0.489 -0.5652  1.3819 -1.1661
  324TIP3    H222464   0.274   0.702   0.507 -0.1217  0.5066 -0.0250
  325TIP3   OH222465   4.045   2.429   4.291  0.0823 -0.9436 -0.1255
  325TIP3    H122466   4.126   2.420   4.341 -0.5030 -1.5742  0.7251
  325TIP3    H222467   4.010   2.514   4.317  0.9891 -0.1664 -1.3073
  326TIP3   OH222468   2.205   0.571   5.159  0.2278 -1.1106  0.6229
  326TIP3    H122469   2.236   0.480   5.161  0.9839 -0.8514  0.7179
  326TIP3    H222470   2.156   0.577   5.077  1.0712 -1.3181  0.0858
  327TIP3   OH222471   1.340   5.828   0.282  0.6237  0.1239 -0.8593
  327TIP3    H122472   1.343   5.735   0.258 -1.2152 -0.1568 -0.1408
  327TIP3    H222473   1.248   5.852   0.275  0.5946  1.1100  1.7691
  328TIP3   OH222474   4.122   1.026  13.898 -0.3624  0.2585 -0.1937
  328TIP3    H122475   4.038   1.052  13.860  0.5374  2.3962 -0.8222
  328TIP3    H222476   4.185   1.087  13.862  1.5611 -1.4797  0.0397
  329TIP3   OH222477   0.778   2.914  11.128  0.2854  0.3330  0.4182
  329TIP3    H122478   0.823   2.917  11.043 -0.1046  1.5659  0.2451
  329TIP3    H222479   0.697   2.866  11.111  0.9378 -0.8161  0.4602
  330TIP3   OH222480   2.350   1.352   1.402 -0.4916  0.2212  0.4087
  330TIP3    H122481   2.379   1.298   1.475  0.3398  0.4366  0.2464
  330TIP3    H222482   2.396   1.316   1.326 -1.6156 -0.2220 -0.0787
  331TIP3   OH222483   4.563   0.465   1.387 -0.2337 -0.0031 -0.8228
  331TIP3    H122484   4.636   0.447   1.328  0.3510 -0.6101  0.0699
  331TIP3    H222485   4.499   0.397   1.368  0.4611 -0.9321  0.0473
  332TIP3   OH222486   6.799   3.914  13.381  0.5629 -0.3807  0.0715
  332TIP3    H122487   6.827   3.849  13.445  0.4468 -0.6094 -0.1071
  332TIP3    H222488   6.877   3.930  13.327  1.5958  2.0179  2.0570
  333TIP3   OH222489   0.179   3.434  13.846  0.3805 -0.0088  0.3084
  333TIP3    H122490   0.182   3.347  13.887 -2.2022  0.2510  1.2318
  333TIP3    H222491   0.174   3.417  13.752 -0.7145 -0.9105  0.5162
  334TIP3   OH222492   0.135   1.613   0.978  0.3246  0.0695 -0.7306
  334TIP3    H122493   0.076   1.675   0.934 -2.8570 -1.5290  0.9091
  334TIP3    H222494   0.177   1.665   1.046  0.1267  1.0762 -1.3489
  335TIP3   OH222495   1.995   1.449  14.736  0.1434 -0.2285 -0.5517
  335TIP3    H122496   1.918   1.393  14.749 -0.2853  0.5265  0.2548
  335TIP3    H222497   1.980   1.523  14.794  0.2022  1.2653 -2.3607
  336TIP3   OH222498   1.035   3.748   4.016  0.4647  0.1962  0.8577
  336TIP3    H122499   1.126   3.727   3.998  0.9213  0.3134  2.7835
  336TIP3    H222500   0.989   3.664   4.014  0.6046  0.1401 -0.1255
  337TIP3   OH222501   1.950   2.888   2.846 -0.5174  0.1668 -0.1152
  337TIP3    H122502   1.894   2.876   2.769  1.0145 -1.5222 -1.0560
  337TIP3    H222503   1.889   2.895   2.919 -2.0744  2.8121 -1.5144
  338TIP3   OH222504   4.917   3.566  15.990  0.4517  0.2861  0.2347
  338TIP3    H122505   4.825   3.546  15.973  0.3201  1.0175  0.0269
  338TIP3    H222506   4.928   3.655  15.956  2.4860 -1.4113 -4.5116
  339TIP3   OH222507   0.958   1.853   6.007  0.3872 -0.1968 -0.1177
  339TIP3    H122508   0.921   1.840   6.095 -0.4783  1.5261 -0.1818
  339TIP3    H222509   0.887   1.893   5.957  1.0377 -0.6839 -1.4861
  340TIP3   OH222510   6.731   1.260  15.440  0.4915  0.2901 -0.3541
  340TIP3    H122511   6.690   1.292  15.360  1.1230 -0.6903 -1.0876
  340TIP3    H222512   6.659   1.228  15.493  0.1159  0.4996 -0.7345
  341TIP3   OH222513   0.132   3.397   0.919  0.2338 -0.4560 -0.3523
  341TIP3    H122514   0.187   3.434   0.989 -0.1034 -2.3031  0.9791
  341TIP3    H222515   0.042   3.415   0.948  0.0721  0.7258 -1.4847
  342TIP3   OH222516   4.905   0.293   0.622 -0.2311 -0.5870  0.4215
  342TIP3    H122517   4.846   0.298   0.697 -0.3680 -3.0644  0.5867
  342TIP3    H222518   4.982   0.247   0.655  0.2849 -0.5290 -0.6422
  343TIP3   OH222519   5.151   3.117  12.692 -1.0466  0.2277  0.2930
  343TIP3    H122520   5.197   3.056  12.750 -1.1121  0.4930  0.6229
  343TIP3    H222521   5.093   3.061  12.640 -1.3954  0.0534  0.8689
  344TIP3   OH222522   6.132   0.147   3.097 -0.0658 -0.1397  0.1667
  344TIP3    H122523   6.200   0.214   3.102  1.4640 -1.5405 -0.8196
  344TIP3    H222524   6.180   0.064   3.103 -1.9287 -1.1879  1.8745
  345TIP3   OH222525   0.062   2.158   2.973 -0.6963 -0.0763 -0.6457
  345TIP3    H122526  -0.021   2.205   2.976 -0.0128  1.1360  0.6142
  345TIP3    H222527   0.071   2.119   3.060  0.3683  0.4298 -0.5053
  346TIP3   OH222528   2.835   4.707  12.123 -0.0022 -0.2205 -0.1281
  346TIP3    H122529   2.890   4.667  12.192 -0.9551 -0.4168  0.5362
  346TIP3    H222530   2.787   4.776  12.168  0.2358  0.4485 -0.8747
  347TIP3   OH222531   1.931   6.130   4.204 -0.4446 -0.0478 -0.0564
  347TIP3    H122532   2.004   6.091   4.157  0.2342  0.2638  0.7067
  347TIP3    H222533   1.897   6.059   4.258 -0.6827 -0.1841 -0.3853
  348TIP3   OH222534   1.598   3.509   1.293 -0.3625 -0.6191 -0.0024
  348TIP3    H122535   1.527   3.525   1.355 -1.2024  0.3891 -1.1822
  348TIP3    H222536   1.554   3.488   1.210  0.7273 -2.1657 -0.2285
  349TIP3   OH222537   5.864   0.655   2.414  0.5967  0.5502 -0.0269
  349TIP3    H122538   5.823   0.570   2.431 -1.1813  1.5560  1.1054
  349TIP3    H222539   5.865   0.663   2.319 -1.7552  0.3564 -0.1344
  350TIP3   OH222540   5.450   5.519   1.673 -0.0348 -0.6386 -0.2989
  350TIP3    H122541   5.416   5.591   1.620  0.3199  0.0435  0.3707
  350TIP3    H222542   5.387   5.512   1.745  0.0913 -0.8022 -0.2052
  351TIP3   OH222543   5.407   3.050   3.118 -0.5095 -0.1294 -0.1282
  351TIP3    H122544   5.372   3.088   3.038  1.5162  0.8198 -0.6329
  351TIP3    H222545   5.397   3.119   3.184  0.9828  0.4392 -0.4569
  352TIP3   OH222546   0.200   0.151  16.373  0.0615  0.9353 -0.0271
  352TIP3    H122547   0.163   0.167  16.286  0.8798  0.6661 -0.4271
  352TIP3    H222548   0.189   0.234  16.419 -0.9489  0.8923 -0.1694
  353TIP3   OH222549   3.891   0.694  14.557 -0.3592 -0.6127 -0.1524
  353TIP3    H122550   3.961   0.750  14.524 -0.0266 -0.2980  1.0329
  353TIP3    H222551   3.815   0.751  14.561  0.0722 -0.0849  1.4267
  354TIP3   OH222552   1.482   3.205   2.638 -0.3043 -0.3542 -0.6530
  354TIP3    H122553   1.447   3.283   2.681  1.3702  0.0412  0.0864
  354TIP3    H222554   1.435   3.132   2.679  2.2150 -0.1215  3.1349
  355TIP3   OH222555   2.804   2.802   5.573  0.2238 -0.6773 -0.0367
  355TIP3    H122556   2.749   2.879   5.588  2.2466  0.6044  1.2589
  355TIP3    H222557   2.873   2.833   5.515  2.1148 -0.9105  1.9551
  356TIP3   OH222558   2.690   3.028   5.018 -0.6208 -0.5061 -0.2436
  356TIP3    H122559   2.618   3.090   5.006  0.7926  1.4515  0.7206
  356TIP3    H222560   2.721   3.008   4.930 -0.9581  0.3759 -0.5687
  357TIP3   OH222561   5.310   2.601   3.803 -0.2556 -0.1556 -0.1306
  357TIP3    H122562   5.217   2.600   3.824  0.1687  2.4931  2.6109
  357TIP3    H222563   5.349   2.539   3.864 -0.1982 -1.7109 -1.6732
  358TIP3   OH222564   6.548   5.832   4.670  0.0265 -0.2007 -0.2364
  358TIP3    H122565   6.458   5.806   4.693 -0.1937  0.5091 -0.2705
  358TIP3    H222566   6.603   5.782   4.731 -0.2848 -1.7286 -1.1399
  359TIP3   OH222567   1.646   0.169   3.481  0.1524 -0.2678 -0.0164
  359TIP3    H122568   1.721   0.120   3.515 -0.0838 -1.5290 -1.2152
  359TIP3    H222569   1.662   0.174   3.387 -1.4392 -0.8876 -0.3460
  360TIP3   OH222570   2.329   0.501  11.666 -0.2681 -0.1525 -0.1862
  360TIP3    H122571   2.282   0.534  11.589 -1.5455 -1.7234 -0.1200
  360TIP3    H222572   2.274   0.524  11.740  1.0637  1.5433  0.3403
  361TIP3   OH222573   5.320   3.252   3.302 -0.0616  0.4579  0.0635
  361TIP3    H122574   5.387   3.285   3.361 -0.3222  2.3847 -0.6606
  361TIP3    H222575   5.259   3.325   3.290 -0.7170 -0.2985 -1.5455
  362TIP3   OH222576   1.324   3.402   0.343  0.3904  0.1588 -0.4853
  362TIP3    H122577   1.353   3.491   0.365  0.6209  0.0277 -0.2424
  362TIP3    H222578   1.229   3.408   0.339  0.1937 -0.1037  2.0087
  363TIP3   OH222579   6.160   6.573  10.255 -0.2993  0.2043 -0.3144
  363TIP3    H122580   6.193   6.489  10.287 -0.6173 -0.4193 -1.5512
  363TIP3    H222581   6.235   6.631  10.260 -0.1598 -0.0539  0.8622
  364TIP3   OH222582   5.465   4.772   5.234  0.4554 -0.0446  0.8021
  364TIP3    H122583   5.467   4.737   5.323  0.3198  2.2183  1.7671
  364TIP3    H222584   5.549   4.748   5.196  1.7606  1.3848  2.6001
  365TIP3   OH222585   4.856   0.152  14.353  0.1845  0.0791 -0.2032
  365TIP3    H122586   4.843   0.218  14.284  2.9792  0.5677 -0.3641
  365TIP3    H222587   4.812   0.188  14.430  2.7283  2.9099  0.0990
  366TIP3   OH222588   2.892   0.864   4.681  0.2219 -0.4423  0.4994
  366TIP3    H122589   2.985   0.866   4.658  0.6838  1.2819  2.2801
  366TIP3    H222590   2.847   0.868   4.597  1.7647 -0.0108 -0.3564
  367TIP3   OH222591   0.180   5.368  13.373  0.0694 -0.4458 -0.5442
  367TIP3    H122592   0.243   5.439  13.387  0.4912 -1.0960  1.0901
  367TIP3    H222593   0.224   5.290  13.404 -1.3282 -1.0132  0.1203
  368TIP3   OH222594   6.219   2.158  11.044 -0.4673  0.5181 -0.0775
  368TIP3    H122595   6.265   2.195  10.969 -1.0882  2.1840  0.3213
  368TIP3    H222596   6.255   2.205  11.119 -1.0051  0.0264  0.4957
  369TIP3   OH222597   6.007   1.404  12.244 -0.6673  0.2887  0.3475
  369TIP3    H122598   5.912   1.396  12.244 -0.5059 -2.5039 -0.3213
  369TIP3    H222599   6.028   1.450  12.163 -1.4413  1.8361  0.9813
  370TIP3   OH222600   1.810   2.390  14.688  0.0584 -0.3949  0.1686
  370TIP3    H122601   1.781   2.470  14.731 -2.8248 -0.3118 -1.6631
  370TIP3    H222602   1.749   2.323  14.719 -0.9139 -0.7098 -2.2140
  371TIP3   OH222603   2.912   0.004   3.960 -0.0020 -0.4565 -0.3928
  371TIP3    H122604   2.822  -0.017   3.937  0.4719 -2.6912 -0.3571
  371TIP3    H222605   2.939   0.068   3.893 -0.7887 -1.7435 -2.0040
  372TIP3   OH222606   3.833   3.686   0.014  0.0988 -0.2004 -0.6348
  372TIP3    H122607   3.923   3.714   0.028 -0.0109  0.1125 -0.5557
  372TIP3    H222608   3.796   3.679   0.102 -0.2488  0.6447 -0.7012
  373TIP3   OH222609   2.834   6.216  12.092 -0.1765 -0.6221 -0.1101
  373TIP3    H122610   2.791   6.139  12.055  0.7339  0.1413 -3.1068
  373TIP3    H222611   2.800   6.289  12.040  1.2844  0.5602  0.5068
  374TIP3   OH222612   2.395   6.219   3.744  0.5458  0.1135  0.3471
  374TIP3    H122613   2.337   6.289   3.773 -0.7334 -1.5553  2.0552
  374TIP3    H222614   2.395   6.227   3.648  0.3394  2.3122  0.4750
  375TIP3   OH222615   4.443   5.643   4.502  0.5701 -0.2255 -0.5260
  375TIP3    H122616   4.439   5.722   4.556 -1.6670 -0.6896  0.1049
  375TIP3    H222617   4.523   5.598   4.530  1.6426  1.5541 -0.5860
  376TIP3   OH222618   0.018   1.092   4.215 -0.2835  0.4006  0.0184
  376TIP3    H122619   0.046   1.061   4.129 -0.0671 -0.0300  0.2422
  376TIP3    H222620   0.086   1.061   4.276 -1.0014 -0.2759  0.5036
  377TIP3   OH222621   5.690   6.387  16.445 -0.2863  0.0368  0.5443
  377TIP3    H122622   5.641   6.429  16.374 -1.8996 -1.7264  0.5129
  377TIP3    H222623   5.747   6.325  16.401 -1.2541 -1.0253  0.7357
  378TIP3   OH222624   5.173   0.619  14.483  0.5829  0.0952  0.5020
  378TIP3    H122625   5.266   0.614  14.505  1.0768  1.6487 -1.0064
  378TIP3    H222626   5.155   0.537  14.438  1.9847  0.9214 -1.7013
  379TIP3   OH222627   1.796   6.775  12.009  0.4390 -0.0467 -0.2230
  379TIP3    H122628   1.814   6.861  12.047 -0.0714  0.5397 -1.2658
  379TIP3    H222629   1.866   6.762  11.945  2.4989 -1.9226  2.1872
  380TIP3   OH222630   1.848   1.776  10.268  0.4395 -0.1097 -0.2745
  380TIP3    H122631   1.787   1.716  10.224 -1.8937  1.1270  1.0746
  380TIP3    H222632   1.934   1.753  10.232 -0.5405 -3.1104 -1.0366
  381TIP3   OH222633   1.340   1.885  17.115 -0.0340 -0.5554  0.4560
  381TIP3    H122634   1.312   1.805  17.159 -1.1062  0.4349  1.6672
  381TIP3    H222635   1.259   1.926  17.085  0.5242 -0.1129 -0.5158
  382TIP3   OH222636   3.483   4.732  15.651  0.3146  0.6913  0.5038
  382TIP3    H122637   3.526   4.666  15.596 -1.9224  1.0316 -1.8658
  382TIP3    H222638   3.508   4.816  15.611 -0.4030  1.0269  0.7424
  383TIP3   OH222639   4.031   0.108  11.911  0.2724  0.0373 -0.1436
  383TIP3    H122640   3.997   0.023  11.939 -0.6846 -0.1430 -1.7444
  383TIP3    H222641   4.034   0.160  11.991  0.8362 -1.4599  0.8729
  384TIP3   OH222642   4.201   6.635  13.161 -0.7306 -0.0810 -0.4757
  384TIP3    H122643   4.223   6.727  13.179 -2.4978  0.2794  0.0265
  384TIP3    H222644   4.285   6.594  13.143  0.2984  1.2738  0.9438
  385TIP3   OH222645   0.262   0.614  11.059 -0.5785  0.2523  0.6134
  385TIP3    H122646   0.195   0.657  11.006  0.0164  0.3446 -0.0919
  385TIP3    H222647   0.339   0.613  11.002  0.1278  0.4898  1.5396
  386TIP3   OH222648   0.093   2.819   3.268  0.3889  0.1417  0.4716
  386TIP3    H122649   0.061   2.900   3.229  1.3001 -0.5660 -1.8764
  386TIP3    H222650   0.181   2.840   3.299 -0.0703  0.5120  1.5757
  387TIP3   OH222651   4.906   2.006   1.496  0.6724 -0.2878 -0.6804
  387TIP3    H122652   4.873   2.087   1.534 -1.7614 -2.9414  3.8417
  387TIP3    H222653   4.834   1.975   1.441  0.3621 -0.6361 -0.0972
  388TIP3   OH222654   6.044   3.188  14.721 -0.2396 -0.4686  0.2031
  388TIP3    H122655   6.031   3.274  14.679  0.5699  0.5048  1.8469
  388TIP3    H222656   6.018   3.202  14.812  2.8584 -1.0510  1.3058
  389TIP3   OH222657   2.315   0.580   0.950  0.0850  0.2266  0.0841
  389TIP3    H122658   2.248   0.514   0.970 -0.2876  0.8735  1.0630
  389TIP3    H222659   2.308   0.594   0.856 -0.2315 -0.7044 -0.0408
  390TIP3   OH222660   2.135   1.757   5.705 -0.2725 -0.6929 -0.5426
  390TIP3    H122661   2.040   1.753   5.693 -0.3862 -1.5178  0.4852
  390TIP3    H222662   2.148   1.758   5.800  0.7827 -2.4839 -0.6085
  391TIP3   OH222663   3.703   0.146   3.380 -0.1746 -0.3721 -0.5446
  391TIP3    H122664   3.686   0.061   3.340 -0.8449 -0.5289  0.0574
  391TIP3    H222665   3.797   0.159   3.369 -0.1643 -0.9129 -1.1755
  392TIP3   OH222666   1.657   3.922   1.433  0.6402  0.4621 -0.4360
  392TIP3    H122667   1.616   3.965   1.358 -0.0192 -2.0378 -1.6246
  392TIP3    H222668   1.639   3.829   1.419  1.4083 -0.1660  2.3172
  393TIP3   OH222669   1.772   4.508  11.494 -0.3250 -0.9192  0.1240
  393TIP3    H122670   1.756   4.558  11.414 -0.0937 -0.1561  0.5448
  393TIP3    H222671   1.855   4.541  11.527  0.3966 -2.3569 -0.1591
  394TIP3   OH222672   2.173   1.612  16.843  0.2043 -0.1398 -0.2617
  394TIP3    H122673   2.189   1.697  16.803 -0.0252  1.4575  2.7076
  394TIP3    H222674   2.085   1.588  16.816  0.1970  0.6734 -0.9906
  395TIP3   OH222675   2.416   5.403  15.077  0.3856  0.1523  0.0232
  395TIP3    H122676   2.370   5.381  15.159  0.6827 -1.5730 -0.2440
  395TIP3    H222677   2.353   5.383  15.008  0.1124  1.6719 -0.2066
  396TIP3   OH222678   5.851   4.251  14.177  0.0483 -0.8009 -0.1112
  396TIP3    H122679   5.771   4.203  14.200 -0.5081 -0.2999 -0.9357
  396TIP3    H222680   5.898   4.260  14.260  0.2287 -2.8472  0.0675
  397TIP3   OH222681   0.861   1.338  14.770  0.0321  0.0983 -0.3213
  397TIP3    H122682   0.803   1.386  14.711 -1.2723 -1.1421 -0.0989
  397TIP3    H222683   0.864   1.391  14.849 -0.0916  0.5960 -0.6418
  398TIP3   OH222684   2.534   4.411  15.142  0.3562  0.2904 -0.0502
  398TIP3    H122685   2.496   4.497  15.159 -0.8043 -0.1034 -0.5913
  398TIP3    H222686   2.464   4.361  15.101  0.1904 -1.7509  2.4606
  399TIP3   OH222687   5.663   4.971  14.636  0.0669 -0.1255 -0.1355
  399TIP3    H122688   5.731   4.962  14.569  0.4855  0.0890  0.2460
  399TIP3    H222689   5.711   4.961  14.719 -0.3764 -0.0090  0.1374
  400TIP3   OH222690   4.632   6.096  16.180  0.1278  0.0477  0.4736
  400TIP3    H122691   4.605   6.024  16.124  1.7574  0.0002 -0.3195
  400TIP3    H222692   4.687   6.055  16.247 -0.1265  0.3720  0.8877
  401TIP3   OH222693   4.439   3.960   2.352  0.0199  0.5258 -0.3676
  401TIP3    H122694   4.532   3.947   2.370  0.2567  0.2308 -1.7048
  401TIP3    H222695   4.437   4.027   2.284 -0.7213  0.3959 -0.4802
  402TIP3   OH222696   2.423   6.213   5.918 -0.1294 -0.9978  0.3143
  402TIP3    H122697   2.485   6.277   5.954  1.0247 -1.6527 -0.4625
  402TIP3    H222698   2.418   6.146   5.986  0.1834 -1.0486  0.2902
  403TIP3   OH222699   5.096   0.661   5.125  0.0294 -0.4961 -0.1753
  403TIP3    H122700   5.048   0.578   5.134 -0.5832 -0.2284 -0.9012
  403TIP3    H222701   5.163   0.657   5.194  0.1651 -1.6958 -0.3476
  404TIP3   OH222702   3.322   6.007  11.685 -0.9833 -0.1896 -0.3468
  404TIP3    H122703   3.249   6.004  11.747 -1.8171 -2.1563 -1.3515
  404TIP3    H222704   3.336   5.916  11.659  1.7901  0.1310 -0.2891
  405TIP3   OH222705   1.164   0.717  11.347  0.3060 -0.3543 -0.0007
  405TIP3    H122706   1.195   0.748  11.432  0.9066 -0.9090 -0.0105
  405TIP3    H222707   1.234   0.741  11.286 -1.6305  3.3729 -1.0628
  406TIP3   OH222708   6.550   1.661   4.348 -0.1120  0.3905 -0.0959
  406TIP3    H122709   6.571   1.746   4.387 -0.6183  0.8626 -0.8261
  406TIP3    H222710   6.455   1.653   4.357 -0.2844  0.6529 -1.4890
  407TIP3   OH222711   4.338   0.491  10.991  0.6582  0.1349  0.2312
  407TIP3    H122712   4.416   0.443  11.019 -1.6388 -2.8304  2.2940
  407TIP3    H222713   4.299   0.523  11.072 -2.1388 -1.8066 -0.2044
  408TIP3   OH222714   3.845   1.798  14.990  0.1668  0.0133  0.0572
  408TIP3    H122715   3.778   1.841  15.043  1.4679  1.7204  0.3983
  408TIP3    H222716   3.806   1.792  14.903 -0.6761  0.4056  0.3928
  409TIP3   OH222717   5.304   6.254  15.794  0.2198 -0.5210  0.0628
  409TIP3    H122718   5.249   6.282  15.721  1.6262  0.2777 -0.7415
  409TIP3    H222719   5.292   6.159  15.799  1.1345 -0.8070 -2.1400
  410TIP3   OH222720   6.441   3.983  13.707 -0.7380  0.5226  0.0509
  410TIP3    H122721   6.354   3.962  13.674 -0.4821  0.8045 -0.8347
  410TIP3    H222722   6.438   3.959  13.800 -1.5485 -0.0920 -0.1219
  411TIP3   OH222723   4.366   5.108  12.382  0.0352 -0.0097  0.0524
  411TIP3    H122724   4.288   5.093  12.435 -0.3428  3.5555  0.7395
  411TIP3    H222725   4.403   5.020  12.368 -1.7222 -1.4329  3.2984
  412TIP3   OH222726   6.342   0.011  11.714  0.0838  0.3957 -0.0319
  412TIP3    H122727   6.282  -0.057  11.744 -0.5196  0.4819 -1.0094
  412TIP3    H222728   6.410  -0.036  11.666  0.4549  0.3602  0.5160
  413TIP3   OH222729   6.661   1.735  11.892  0.3298  0.3416 -0.1898
  413TIP3    H122730   6.648   1.817  11.844  1.9704 -0.1040 -1.5083
  413TIP3    H222731   6.754   1.716  11.882  0.2283 -1.0585  1.1482
  414TIP3   OH222732   3.694   2.482   3.056 -0.4178 -0.1727 -0.2637
  414TIP3    H122733   3.676   2.413   3.120 -0.1979  0.5808  0.6290
  414TIP3    H222734   3.746   2.439   2.988 -0.9831 -1.0744 -0.1477
  415TIP3   OH222735   6.567   2.812   0.772  0.1131  0.2570  0.4074
  415TIP3    H122736   6.495   2.870   0.794  0.5591  1.3184 -0.7821
  415TIP3    H222737   6.546   2.778   0.685  0.4737 -0.3766  0.5539
  416TIP3   OH222738   4.972   2.818  11.934  0.6869 -0.5715 -0.0975
  416TIP3    H122739   4.985   2.777  12.020 -0.1867  1.2823  0.9643
  416TIP3    H222740   4.877   2.823  11.924  0.7428  1.8082  0.1507
  417TIP3   OH222741   1.635   3.234   4.886  0.0246  0.2800 -0.1397
  417TIP3    H122742   1.691   3.253   4.811 -1.5665 -0.4574 -1.5708
  417TIP3    H222743   1.612   3.320   4.922 -0.1753  0.7032 -1.2515
  418TIP3   OH222744   1.943   2.392  12.988 -0.1174  0.1173 -0.5681
  418TIP3    H122745   1.913   2.324  12.928  0.7179  0.5844 -1.5461
  418TIP3    H222746   1.982   2.344  13.061 -1.1692 -0.4563 -0.3663
  419TIP3   OH222747   3.856   3.983  16.822  0.2175 -0.0432  0.4935
  419TIP3    H122748   3.948   4.001  16.802  0.0753  0.7830  0.5471
  419TIP3    H222749   3.809   4.010  16.744  0.2945 -3.9327 -1.0793
  420TIP3   OH222750   0.375   4.096  15.431 -0.1675 -0.5084  0.0266
  420TIP3    H122751   0.392   4.144  15.512  0.2984  0.4274 -0.6144
  420TIP3    H222752   0.284   4.116  15.411  0.3884  1.2712 -0.9580
  421TIP3   OH222753   2.240   3.147   3.617 -0.0141 -0.0914 -0.2662
  421TIP3    H122754   2.212   3.209   3.684  2.2464  0.7557 -0.0013
  421TIP3    H222755   2.319   3.107   3.654 -0.8531 -2.4604 -0.8452
  422TIP3   OH222756   5.971   4.575  10.792  0.7591  0.2118  0.3134
  422TIP3    H122757   5.953   4.597  10.701 -2.6834  0.6303  0.9443
  422TIP3    H222758   6.059   4.608  10.809  2.5843 -2.0897 -3.4473
  423TIP3   OH222759   3.968   1.561  16.055 -0.1231 -0.6184 -0.0564
  423TIP3    H122760   3.920   1.480  16.036 -0.4778 -0.4565  0.1319
  423TIP3    H222761   4.026   1.573  15.980  0.5166 -1.4727  0.2802
  424TIP3   OH222762   3.094   5.690  14.546 -0.1582 -0.5246  0.2254
  424TIP3    H122763   3.028   5.709  14.612 -0.3438  0.5735 -0.2508
  424TIP3    H222764   3.177   5.710  14.589 -0.2440 -0.2878  0.2809
  425TIP3   OH222765   4.618   6.792  12.532 -0.3483 -0.5012 -0.6825
  425TIP3    H122766   4.666   6.753  12.606 -0.7240 -0.2317 -0.2918
  425TIP3    H222767   4.540   6.738  12.523 -0.9064  0.1916 -0.0913
  426TIP3   OH222768   3.663   4.196  11.512 -0.0371 -0.3015 -0.3090
  426TIP3    H122769   3.599   4.128  11.491  0.7742 -0.6845 -1.6374
  426TIP3    H222770   3.731   4.151  11.562 -0.3979 -0.0550  0.4237
  427TIP3   OH222771   5.089   2.219  10.805  0.3525  0.2086  0.2943
  427TIP3    H122772   5.045   2.140  10.773  0.7531  0.9123 -2.2194
  427TIP3    H222773   5.028   2.290  10.783  0.7500  0.7607  0.9642
  428TIP3   OH222774   5.932   6.120   3.882  0.6498 -0.2270 -0.5181
  428TIP3    H122775   5.901   6.042   3.926  2.0387 -0.9277 -0.7332
  428TIP3    H222776   5.976   6.171   3.950  1.4974 -0.5987 -0.7824
  429TIP3   OH222777   1.769   2.351  12.038  0.3957 -0.7553 -0.1751
  429TIP3    H122778   1.697   2.297  12.069 -1.2041 -0.3686 -2.9103
  429TIP3    H222779   1.756   2.436  12.079  0.1061 -1.0679  0.3867
  430TIP3   OH222780   6.470   4.818   2.192 -0.3205 -0.1832  0.7551
  430TIP3    H122781   6.514   4.734   2.186 -1.0284 -0.4989 -4.0692
  430TIP3    H222782   6.540   4.882   2.203  0.6581 -1.1262  0.1238
  431TIP3   OH222783   3.214   6.230  10.557 -0.6355  0.5217  0.1202
  431TIP3    H122784   3.217   6.320  10.525  0.2031  0.2779 -0.5285
  431TIP3    H222785   3.299   6.193  10.532 -1.3876 -0.7780 -0.6078
  432TIP3   OH222786   5.398   5.497  13.863 -0.7866 -0.2660  0.1992
  432TIP3    H122787   5.439   5.572  13.819 -1.3614  0.6648  1.2056
  432TIP3    H222788   5.410   5.424  13.802  0.4494  0.4681 -0.4799
  433TIP3   OH222789   5.426   1.666  11.535 -0.3681  0.2644 -0.2301
  433TIP3    H122790   5.358   1.726  11.568  0.4808  2.0408 -1.5429
  433TIP3    H222791   5.506   1.696  11.578 -0.2537 -1.3884  0.7876
  434TIP3   OH222792   1.593   1.247   4.121 -0.3264  0.4578 -0.1998
  434TIP3    H122793   1.518   1.302   4.140 -2.5734 -2.7055  0.8978
  434TIP3    H222794   1.591   1.234   4.026 -1.9546 -0.4760 -0.0806
  435TIP3   OH222795   6.710   2.890   2.174  0.0213  0.2248  0.0217
  435TIP3    H122796   6.730   2.983   2.180  0.2379  0.1154  1.2383
  435TIP3    H222797   6.790   2.850   2.141 -0.7212  0.6762 -2.5743
  436TIP3   OH222798   2.672   1.765   0.227 -0.3505  0.1222  0.1199
  436TIP3    H122799   2.708   1.678   0.243  0.2371  0.5263  1.0729
  436TIP3    H222800   2.632   1.759   0.140  0.3100 -0.8935 -0.1257
  437TIP3   OH222801   5.653   2.005   1.393 -0.3751  0.2750 -0.2854
  437TIP3    H122802   5.677   2.075   1.333 -0.3383  0.3238 -0.2143
  437TIP3    H222803   5.601   2.048   1.461  0.1496  0.3450  0.0828
  438TIP3   OH222804   3.515   2.415  11.981  0.0358  0.1344  0.4027
  438TIP3    H122805   3.447   2.469  12.020 -1.2538  0.5600 -2.2134
  438TIP3    H222806   3.583   2.477  11.954 -0.6960  0.3460 -1.1012
  439TIP3   OH222807   2.198   2.180   2.821  0.1435  0.1909 -0.2580
  439TIP3    H122808   2.192   2.137   2.736 -0.5113  0.6760 -0.4645
  439TIP3    H222809   2.166   2.115   2.883  0.7448 -0.2108 -0.3633
  440TIP3   OH222810   3.275   0.405   1.778  0.1462  0.9219  0.0149
  440TIP3    H122811   3.239   0.319   1.799  1.4946  0.4311  0.4109
  440TIP3    H222812   3.340   0.421   1.847  2.0283  0.9299 -1.6852
  441TIP3   OH222813   3.558   1.497   4.936 -0.5589  0.1659 -0.1420
  441TIP3    H122814   3.518   1.581   4.912 -0.3823  0.0430 -0.9018
  441TIP3    H222815   3.483   1.440   4.954 -0.6890  0.3637 -0.0455
  442TIP3   OH222816   2.383   0.662   3.468 -0.0682  0.5623  0.3642
  442TIP3    H122817   2.301   0.693   3.507  0.8655  1.8392  1.3786
  442TIP3    H222818   2.393   0.573   3.500 -1.2474  0.2476 -0.0975
  443TIP3   OH222819   6.639   2.213   4.058  0.8911  0.5492 -0.0322
  443TIP3    H122820   6.652   2.258   4.142 -3.6472  0.4951  0.9662
  443TIP3    H222821   6.628   2.283   3.994 -2.4529  1.0137  0.8495
  444TIP3   OH222822   6.427   5.193  15.463  0.1727  0.5766 -0.7655
  444TIP3    H122823   6.408   5.118  15.520 -1.7146  0.6767 -1.1803
  444TIP3    H222824   6.512   5.173  15.425  1.3137  0.3303  1.7649
  445TIP3   OH222825   1.739   2.584  14.880  0.5496 -0.1123 -1.1476
  445TIP3    H122826   1.659   2.617  14.923  1.4058  1.9015 -0.9761
  445TIP3    H222827   1.794   2.553  14.952 -0.6796 -3.1610 -1.3758
  446TIP3   OH222828   0.778   1.700   4.264 -0.0927  0.5850 -0.0414
  446TIP3    H122829   0.692   1.736   4.245 -0.5435 -0.8532 -0.8348
  446TIP3    H222830   0.793   1.721   4.356 -0.5118  2.3771 -0.3529
  447TIP3   OH222831   1.313   3.196  16.526 -0.4423 -0.0882 -0.0125
  447TIP3    H122832   1.268   3.201  16.441 -1.9489 -2.3441  0.5616
  447TIP3    H222833   1.253   3.238  16.588  0.1493  0.5651  0.1276
  448TIP3   OH222834   0.047   2.149  11.978  0.2704  0.2176 -0.3493
  448TIP3    H122835   0.122   2.208  11.968 -0.5411  1.4836  0.6536
  448TIP3    H222836   0.049   2.122  12.069  0.3143 -0.9156 -0.6676
  449TIP3   OH222837   4.137   4.427  11.824 -0.5730  0.5571  0.1344
  449TIP3    H122838   4.095   4.359  11.772  0.1944 -0.8588  1.2792
  449TIP3    H222839   4.076   4.501  11.822 -0.9848  0.2125 -1.9383
  450TIP3   OH222840   0.926   6.140  15.184 -0.1327  0.8555 -0.5698
  450TIP3    H122841   0.942   6.197  15.259  0.9102  1.6349 -1.3506
  450TIP3    H222842   0.840   6.168  15.151 -1.0464 -0.1411  0.8565
  451TIP3   OH222843   5.045   4.095  15.550 -0.4426 -0.7309 -0.5538
  451TIP3    H122844   5.078   4.096  15.640  0.4856  0.0392 -0.8852
  451TIP3    H222845   5.116   4.132  15.498 -2.4931  2.9659 -1.0679
  452TIP3   OH222846   4.994   6.471  13.962  0.9333 -0.0394  0.5034
  452TIP3    H122847   5.067   6.466  14.024 -0.8989 -1.6379  2.7536
  452TIP3    H222848   4.967   6.562  13.964  3.3957  0.8355 -1.1925
  453TIP3   OH222849   3.693   5.398   4.057  0.2903  0.3650  0.3311
  453TIP3    H122850   3.728   5.487   4.063 -1.1200  0.9240  0.6697
  453TIP3    H222851   3.622   5.395   4.122 -0.0030 -0.8506 -0.0109
  454TIP3   OH222852   5.213   4.755   4.214  0.2509 -0.1128  0.6520
  454TIP3    H122853   5.225   4.665   4.245 -1.5556  0.8349  4.8050
  454TIP3    H222854   5.146   4.748   4.146  1.8021 -2.0293 -0.8190
  455TIP3   OH222855   4.649   3.316   3.336  0.1195  0.0865 -0.3886
  455TIP3    H122856   4.571   3.263   3.320 -1.0573  1.2223  1.1488
  455TIP3    H222857   4.659   3.316   3.431  0.8420  1.5269 -0.4318
  456TIP3   OH222858   5.089   1.605   5.374  0.6225 -0.7977 -0.7318
  456TIP3    H122859   5.111   1.686   5.329  1.1097  0.4373  1.6141
  456TIP3    H222860   5.048   1.632   5.455 -0.4512 -2.9486 -0.4791
  457TIP3   OH222861   1.241   6.130   6.422  0.0360 -0.3680 -0.3382
  457TIP3    H122862   1.206   6.214   6.394 -0.0997 -0.2362  0.2289
  457TIP3    H222863   1.333   6.132   6.397 -0.2678 -0.5993 -1.5689
  458TIP3   OH222864   3.987   3.630  14.186 -0.2180  0.2298  0.2200
  458TIP3    H122865   4.014   3.704  14.240 -3.4055  1.9643 -0.3276
  458TIP3    H222866   4.027   3.647  14.101 -1.5533  1.8695 -0.1379
  459TIP3   OH222867   3.234   4.463   1.417  0.1174  0.3324  0.1788
  459TIP3    H122868   3.307   4.524   1.405  0.9747 -0.8284 -0.8223
  459TIP3    H222869   3.259   4.386   1.366 -1.7834 -0.1377 -0.1153
  460TIP3   OH222870   2.803   2.473  13.533  0.2121 -0.2489  0.1216
  460TIP3    H122871   2.828   2.473  13.441 -0.4578 -0.9215 -0.0779
  460TIP3    H222872   2.810   2.565  13.560  1.3216 -0.1905 -0.3350
  461TIP3   OH222873   4.914   4.158  16.590  0.4816 -0.2668 -0.2253
  461TIP3    H122874   4.949   4.138  16.677 -0.8557 -0.7859  0.2227
  461TIP3    H222875   4.950   4.091  16.533 -0.0862 -1.0354  0.3013
  462TIP3   OH222876   4.348   3.032   3.930  0.0830  0.6267 -0.6211
  462TIP3    H122877   4.253   3.035   3.930  0.0407  0.7338  1.0579
  462TIP3    H222878   4.370   2.992   4.015  1.5347  1.7460 -0.4268
  463TIP3   OH222879   4.735   3.297   2.152 -0.0594 -0.3534 -0.4694
  463TIP3    H122880   4.721   3.205   2.130 -0.6526 -0.3084 -0.3160
  463TIP3    H222881   4.694   3.345   2.080  0.5136 -0.2073 -0.7016
  464TIP3   OH222882   0.910   1.799   6.303 -0.2408 -0.1452  0.0074
  464TIP3    H122883   0.815   1.801   6.296 -0.2018 -1.4202 -1.2864
  464TIP3    H222884   0.933   1.884   6.342 -1.9338 -0.1226  1.0346
  465TIP3   OH222885   4.363   5.274   0.666  0.0156 -0.2526 -0.6120
  465TIP3    H122886   4.423   5.204   0.691  2.0356  1.1141 -1.3742
  465TIP3    H222887   4.397   5.307   0.583 -0.5504  1.9093 -0.0633
  466TIP3   OH222888   2.765   6.156  13.210 -0.5278 -0.9158  0.2618
  466TIP3    H122889   2.835   6.221  13.209 -2.4785  1.3436  1.0962
  466TIP3    H222890   2.758   6.131  13.303 -2.0443  0.3963  0.5535
  467TIP3   OH222891   4.936   4.451  14.187 -0.0206  0.7362  0.3551
  467TIP3    H122892   4.968   4.374  14.234  1.7498  0.0074 -1.8272
  467TIP3    H222893   4.881   4.416  14.117  2.2052  1.1717 -1.7620
  468TIP3   OH222894   1.773   5.646  13.913 -0.4664 -0.1865 -0.2817
  468TIP3    H122895   1.705   5.589  13.949 -1.5576  3.1289  3.7382
  468TIP3    H222896   1.855   5.601  13.930 -1.3653 -1.5718  0.5572
  469TIP3   OH222897   6.432   2.445   0.764 -0.4078 -0.5114  0.1657
  469TIP3    H122898   6.390   2.400   0.690  0.6789  0.2529 -0.9636
  469TIP3    H222899   6.526   2.438   0.746 -0.1699  1.2550  0.4978
  470TIP3   OH222900   0.946   6.424  13.908  0.1624 -0.2871  0.6865
  470TIP3    H122901   1.013   6.466  13.854  0.7868 -0.4739  1.2956
  470TIP3    H222902   0.899   6.496  13.949  0.4821 -0.1583  0.8348
  471TIP3   OH222903   1.433   2.998  12.084  0.0633 -0.1611  0.4707
  471TIP3    H122904   1.372   2.958  12.022 -0.2526  0.2824  0.4863
  471TIP3    H222905   1.392   3.082  12.107  0.1756 -0.3239  1.2916
  472TIP3   OH222906   1.951   3.582   4.196 -0.6376  0.4370  0.4433
  472TIP3    H122907   1.936   3.487   4.202  1.6251  0.0364  0.5803
  472TIP3    H222908   2.043   3.593   4.218 -0.8430  2.6915  0.3655
  473TIP3   OH222909   3.592   1.464   0.823 -0.1369  0.4546 -0.3574
  473TIP3    H122910   3.685   1.483   0.831 -0.2767  1.0811 -0.1957
  473TIP3    H222911   3.559   1.468   0.913 -0.4721  1.0408 -0.5030
  474TIP3   OH222912   3.513   0.835   0.513  0.6702  0.1639  0.3517
  474TIP3    H122913   3.524   0.831   0.608 -0.7214  0.6963  0.5596
  474TIP3    H222914   3.444   0.900   0.500  0.7792  0.0250 -1.0235
  475TIP3   OH222915   2.225   4.297   6.240  0.5192  0.2544  0.0064
  475TIP3    H122916   2.218   4.309   6.335 -1.5719  2.7943 -0.3342
  475TIP3    H222917   2.251   4.383   6.207 -0.7233 -0.0195 -1.8345
  476TIP3   OH222918   3.752   1.362   6.252  0.7863 -0.6498 -0.0960
  476TIP3    H122919   3.792   1.379   6.337  1.3277 -1.2974 -0.2094
  476TIP3    H222920   3.715   1.274   6.260  0.1581 -0.4103 -0.2879
  477TIP3   OH222921   0.640   2.377   0.101  0.0298  0.2510 -0.0468
  477TIP3    H122922   0.697   2.345   0.031 -0.4741 -1.0642  0.1079
  477TIP3    H222923   0.660   2.319   0.175  1.6977  2.5522  1.4640
  478TIP3   OH222924   4.034   0.662   1.850  0.9233  0.3930  0.1863
  478TIP3    H122925   3.944   0.693   1.860  1.4124  1.7079  0.6263
  478TIP3    H222926   4.074   0.673   1.936  0.5999 -3.4191  1.0266
  479TIP3   OH222927   0.102   5.927   0.520 -0.4844  0.2219  0.5144
  479TIP3    H122928   0.168   5.921   0.588  1.2488  0.6341 -1.0366
  479TIP3    H222929   0.147   5.898   0.440 -1.5328  2.4063 -0.9870
  480TIP3   OH222930   2.295   6.591   5.162 -0.3446  0.3039  0.0441
  480TIP3    H122931   2.229   6.659   5.179 -1.7414 -0.6318 -1.3626
  480TIP3    H222932   2.255   6.510   5.195 -0.1270 -0.3646 -1.2827
  481TIP3   OH222933   2.148   1.327  13.262  0.0984 -0.4328  0.3288
  481TIP3    H122934   2.238   1.295  13.262  0.4497  0.4710  1.2347
  481TIP3    H222935   2.154   1.414  13.302 -0.8502  0.6413 -1.6918
  482TIP3   OH222936   4.997   5.408   2.303 -0.2679  0.1710 -0.3478
  482TIP3    H122937   4.958   5.424   2.388  0.6057 -0.1422  0.1254
  482TIP3    H222938   4.977   5.316   2.284  0.3195 -0.0225 -0.0524
  483TIP3   OH222939   1.887   5.976  11.576 -0.0612  0.0816 -0.2471
  483TIP3    H122940   1.858   6.019  11.657  1.4713 -0.8771  0.8618
  483TIP3    H222941   1.807   5.963  11.526 -1.2332 -0.3942  1.6583
  484TIP3   OH222942   2.806   3.084   5.550 -0.1723 -0.1433  0.0223
  484TIP3    H122943   2.757   3.128   5.481 -0.9576 -1.3689 -0.2208
  484TIP3    H222944   2.794   3.139   5.627  2.2279  2.2798 -1.1441
  485TIP3   OH222945   3.401   5.902   1.204 -0.4643  0.5257  0.4906
  485TIP3    H122946   3.412   5.817   1.161  1.9714  0.5098  0.9950
  485TIP3    H222947   3.315   5.932   1.175 -1.0711 -1.7458 -0.3212
  486TIP3   OH222948   3.989   6.248  11.364 -0.7554 -0.2260 -0.0401
  486TIP3    H122949   3.992   6.329  11.313  1.5362  0.5233  1.1154
  486TIP3    H222950   3.968   6.180  11.301 -0.7238  1.0045 -1.4338
  487TIP3   OH222951   6.734   4.625  11.197  0.4530  0.0117 -0.1412
  487TIP3    H122952   6.781   4.561  11.251  0.5102 -0.3801 -0.6515
  487TIP3    H222953   6.778   4.621  11.112  0.6515  0.9440 -0.0952
  488TIP3   OH222954   0.743   3.746  11.550  0.0338  0.0840  0.4492
  488TIP3    H122955   0.747   3.660  11.509  0.5955 -0.2232  1.1410
  488TIP3    H222956   0.833   3.778  11.548 -0.1788  0.7035  0.1246
  489TIP3   OH222957   0.101   4.734   3.279 -0.1332  0.0104 -0.9248
  489TIP3    H122958   0.174   4.766   3.332 -0.6917  0.9769 -0.7079
  489TIP3    H222959   0.024   4.746   3.336 -0.3221 -2.3395 -0.5687
  490TIP3   OH222960   4.643   1.760  13.583  0.0209 -0.5810 -0.7820
  490TIP3    H122961   4.598   1.699  13.640  1.5876 -0.5600  0.5359
  490TIP3    H222962   4.725   1.780  13.628  0.3441  1.1206 -2.0139
  491TIP3   OH222963   3.628   6.244   0.457  0.3494  0.2674 -0.6834
  491TIP3    H122964   3.563   6.185   0.495  1.4196  0.0641  0.9302
  491TIP3    H222965   3.654   6.203   0.375 -1.5464  0.3758 -1.3830
  492TIP3   OH222966   4.750   3.922   1.764  0.1599  0.4962  0.1987
  492TIP3    H122967   4.799   3.859   1.818  1.3061  0.7687 -0.4752
  492TIP3    H222968   4.781   4.008   1.795 -0.1553  0.6847 -0.0083
  493TIP3   OH222969   1.615   5.673  11.987  0.0867  0.2491  0.1586
  493TIP3    H122970   1.659   5.686  12.071 -0.0757 -0.2708  0.3294
  493TIP3    H222971   1.540   5.616  12.008  0.7265 -0.8740 -0.5346
  494TIP3   OH222972   6.199   0.081   5.379 -0.5416 -0.0492  0.4124
  494TIP3    H122973   6.264   0.142   5.344 -0.8791 -0.3126 -0.7154
  494TIP3    H222974   6.156   0.130   5.449  0.0655  0.5377  0.3885
  495TIP3   OH222975   0.797   2.581  11.143  0.3503 -0.3327 -0.4443
  495TIP3    H122976   0.787   2.532  11.224  0.9983 -0.3380 -0.3631
  495TIP3    H222977   0.861   2.531  11.093 -2.7508 -2.5385 -2.6506
  496TIP3   OH222978   2.675   3.361   0.316 -0.0868  0.1765 -0.6932
  496TIP3    H122979   2.757   3.371   0.363 -0.7855  0.5410  0.4945
  496TIP3    H222980   2.665   3.266   0.305 -0.7714 -0.0883  1.5670
  497TIP3   OH222981   5.961   0.070  16.361 -0.2557  0.1700 -0.1672
  497TIP3    H122982   5.869   0.043  16.355  0.4912 -2.3077 -2.1647
  497TIP3    H222983   6.000   0.007  16.422  0.3716  0.3953 -0.3297
  498TIP3   OH222984   3.945   3.671  16.039 -0.2013 -0.1956  0.0854
  498TIP3    H122985   3.891   3.745  16.064 -0.2036  1.1910 -3.5060
  498TIP3    H222986   3.912   3.644  15.953 -0.0930 -4.3228  1.1177
  499TIP3   OH222987   1.083   5.426  12.931  0.2236  0.4462 -0.2826
  499TIP3    H122988   1.143   5.462  12.865  0.2142 -0.1117 -0.6048
  499TIP3    H222989   1.042   5.503  12.970  0.1876  0.7899 -0.9691
  500TIP3   OH222990   3.721   2.141   0.226 -0.5600  0.0590 -0.4508
  500TIP3    H122991   3.655   2.186   0.172 -0.4634  1.1036  0.2628
  500TIP3    H222992   3.703   2.170   0.315  0.3670 -0.2706 -0.1408
  501TIP3   OH222993   2.324   0.710   3.837  0.2000  0.2094 -0.4325
  501TIP3    H122994   2.351   0.711   3.745  0.5394  1.0227 -0.3346
  501TIP3    H222995   2.274   0.629   3.846  0.6858 -0.1936 -1.1826
  502TIP3   OH222996   3.426   4.778  10.992 -0.2173 -0.1260  0.0920
  502TIP3    H122997   3.395   4.691  10.969 -2.3675  0.5321  0.2191
  502TIP3    H222998   3.517   4.781  10.961 -0.2411 -2.2219 -0.3198
  503TIP3   OH222999   6.432   4.090  11.328  0.2209  0.5707 -0.6260
  503TIP3    H123000   6.491   4.155  11.290  0.3345  0.1465 -1.1864
  503TIP3    H223001   6.348   4.105  11.285 -0.6422  2.4187  1.5178
  504TIP3   OH223002   4.381   2.205  13.076 -0.1174 -0.3516  0.1310
  504TIP3    H123003   4.469   2.172  13.092 -0.3051 -0.7923  0.2577
  504TIP3    H223004   4.326   2.158  13.139 -0.5494 -0.5982 -0.4229
  505TIP3   OH223005   0.184   2.664   5.572  0.1193  0.3582  0.2815
  505TIP3    H123006   0.109   2.658   5.630 -0.6770  1.6022 -0.5726
  505TIP3    H223007   0.225   2.748   5.594  0.0804  0.6228 -0.5859
  506TIP3   OH223008   6.096   0.473  11.019 -0.1926 -0.5126 -1.2835
  506TIP3    H123009   6.045   0.502  11.095  3.1203 -0.0478  0.9463
  506TIP3    H223010   6.032   0.427  10.964 -3.1376  0.7179  0.8537
  507TIP3   OH223011   3.047   5.034   4.668  0.2981  0.7870 -0.2377
  507TIP3    H123012   3.131   5.070   4.638 -0.1504  2.6707  0.6303
  507TIP3    H223013   2.982   5.095   4.635 -0.6760 -0.1865 -0.1583
  508TIP3   OH223014   4.879   1.475  12.326 -0.2295  0.0113 -0.1318
  508TIP3    H123015   4.877   1.435  12.413  1.5458  0.5700  0.2205
  508TIP3    H223016   4.787   1.482  12.300 -0.8389  0.2813  1.9189
  509TIP3   OH223017   5.902   0.683   5.001  0.1835  0.3836 -0.0854
  509TIP3    H123018   5.927   0.606   5.052 -0.4423  0.4263  0.2985
  509TIP3    H223019   5.971   0.747   5.018  0.0926  0.3215  0.5454
  510TIP3   OH223020   6.686   1.624   2.596  0.4569 -0.1575 -0.1042
  510TIP3    H123021   6.641   1.689   2.650 -1.3323 -1.1709 -0.3173
  510TIP3    H223022   6.640   1.625   2.513  2.0896  0.1345 -1.0526
  511TIP3   OH223023   1.219   3.482   4.230  0.0893  0.6023  0.1928
  511TIP3    H123024   1.195   3.562   4.276 -0.1187  1.4523 -1.3305
  511TIP3    H223025   1.272   3.512   4.155 -0.6748 -0.5896 -0.8616
  512TIP3   OH223026   6.753   6.229  14.950  0.0865  0.4781  0.1761
  512TIP3    H123027   6.799   6.152  14.916 -1.1410 -1.0403  1.8241
  512TIP3    H223028   6.794   6.247  15.035 -0.7047  0.6542  0.5274
  513TIP3   OH223029   3.608   0.099   4.567  0.0327 -0.3637 -1.1374
  513TIP3    H123030   3.638   0.190   4.560  0.6476 -0.4801 -0.2591
  513TIP3    H223031   3.678   0.056   4.617  0.3872 -1.6200 -2.6502
  514TIP3   OH223032   6.267   0.442  17.057  0.2983 -0.2596 -0.4515
  514TIP3    H123033   6.316   0.431  17.138 -0.6787 -0.7831  0.0779
  514TIP3    H223034   6.299   0.525  17.020  0.1197  0.4354  0.9123
  515TIP3   OH223035   1.562   2.993  14.749  0.1173 -0.6933 -0.1048
  515TIP3    H123036   1.475   3.032  14.757  0.0078 -0.5733 -1.5564
  515TIP3    H223037   1.621   3.067  14.738  0.3903 -0.7843  0.7156
  516TIP3   OH223038   5.082   1.884   0.410  0.0000  0.0607 -0.2022
  516TIP3    H123039   5.154   1.903   0.350 -0.0896 -1.3657 -0.7931
  516TIP3    H223040   5.121   1.831   0.479 -0.7492 -2.2283 -1.4280
  517TIP3   OH223041   3.521   3.288  13.652  0.4665 -0.3615  0.6033
  517TIP3    H123042   3.439   3.291  13.701 -0.1914 -1.0406 -0.4206
  517TIP3    H223043   3.579   3.235  13.706  0.2436  0.1113  1.3303
  518TIP3   OH223044   5.067   4.665  13.360 -0.2353 -0.1542  0.1543
  518TIP3    H123045   5.023   4.705  13.436  1.9419  0.4350  1.1901
  518TIP3    H223046   5.151   4.635  13.395  0.2576 -1.1078 -1.7556
  519TIP3   OH223047   1.372   5.506   5.694  0.4236 -0.3023  0.1592
  519TIP3    H123048   1.437   5.462   5.640  0.0083 -1.0450  0.2568
  519TIP3    H223049   1.414   5.514   5.780  1.4120  1.6274 -0.4434
  520TIP3   OH223050   4.246   5.524   4.901 -0.5883  0.0138 -0.2565
  520TIP3    H123051   4.293   5.607   4.904  0.1218 -0.4011  2.4275
  520TIP3    H223052   4.299   5.464   4.953 -1.8861 -1.7183 -0.8196
  521TIP3   OH223053   6.236   4.822   4.534  0.0524  1.0957 -0.4190
  521TIP3    H123054   6.248   4.824   4.629 -1.0974  0.0726 -0.2380
  521TIP3    H223055   6.310   4.771   4.502 -0.6947 -0.3880  0.1490
  522TIP3   OH223056   4.055   1.937   2.193 -0.1581  0.1809  0.0895
  522TIP3    H123057   3.999   2.010   2.168 -0.0742 -0.0336 -0.7720
  522TIP3    H223058   4.129   1.941   2.132  0.3045 -0.0769  0.6247
  523TIP3   OH223059   6.678   4.649  12.002 -0.5383 -0.1818  0.1776
  523TIP3    H123060   6.654   4.722  12.059 -0.9748 -0.7957  0.7985
  523TIP3    H223061   6.674   4.685  11.913 -2.9409 -0.0037  0.2985
  524TIP3   OH223062   5.820   2.582  12.154 -0.2435  0.6353  0.6902
  524TIP3    H123063   5.876   2.649  12.192  3.1488 -2.6208  2.0708
  524TIP3    H223064   5.782   2.537  12.230  2.7655 -2.8913  0.3962
  525TIP3   OH223065   5.910   1.673   3.702  0.0339  0.2095  0.1801
  525TIP3    H123066   5.926   1.589   3.659 -0.0326  0.8942 -1.2423
  525TIP3    H223067   5.927   1.656   3.795  0.9477 -1.1335 -0.2015
  526TIP3   OH223068   1.969   2.977  11.677 -0.3529  0.1848 -0.2029
  526TIP3    H123069   1.904   2.927  11.727  1.1610 -0.2299  1.4454
  526TIP3    H223070   1.917   3.024  11.611 -2.3421  0.0444  1.1703
  527TIP3   OH223071   5.565   4.682   3.891  0.1833  0.1533  0.2451
  527TIP3    H123072   5.656   4.652   3.893  0.1450 -0.0283 -0.5306
  527TIP3    H223073   5.568   4.771   3.926  0.7182  0.2896 -0.1430
  528TIP3   OH223074   0.673   0.356  12.376 -0.7313  0.6805 -0.1045
  528TIP3    H123075   0.740   0.380  12.440 -0.8455 -1.6845  1.0152
  528TIP3    H223076   0.590   0.366  12.422 -0.9014  0.2598 -0.3052
  529TIP3   OH223077   3.718   3.157  16.483 -0.0076  0.3699  0.0374
  529TIP3    H123078   3.707   3.246  16.449  1.9849  0.0173 -1.6501
  529TIP3    H223079   3.697   3.166  16.577  2.7483  3.2540  0.5590
  530TIP3   OH223080   0.239   3.701   3.530 -1.0345 -0.2307 -0.2834
  530TIP3    H123081   0.297   3.629   3.554 -2.0667 -0.7391  0.7379
  530TIP3    H223082   0.299   3.772   3.507  0.0210 -0.5949  1.1666
  531TIP3   OH223083   4.376   2.204  16.985 -0.0639  0.3280 -0.3057
  531TIP3    H123084   4.351   2.200  17.078  3.2512  0.6693  0.7367
  531TIP3    H223085   4.422   2.121  16.970 -0.0510  0.5417 -1.4857
  532TIP3   OH223086   6.699   2.681   3.305 -0.1421 -0.0088 -0.0807
  532TIP3    H123087   6.661   2.694   3.218 -1.1173  0.5732  0.4146
  532TIP3    H223088   6.785   2.723   3.299  0.1784 -0.7493 -1.0160
  533TIP3   OH223089   1.334   1.650   0.643 -0.0468  0.2310 -0.1675
  533TIP3    H123090   1.400   1.582   0.633 -0.2633  0.0721 -0.5316
  533TIP3    H223091   1.366   1.723   0.589 -1.6222 -0.9252 -2.8412
  534TIP3   OH223092   1.267   4.492  11.874 -0.1099  0.2174 -0.1396
  534TIP3    H123093   1.188   4.437  11.866  0.8885 -1.1492 -1.0950
  534TIP3    H223094   1.301   4.497  11.785  1.1387  0.4054  0.3362
  535TIP3   OH223095   0.269   3.435   5.922  0.1991  0.7372  0.1792
  535TIP3    H123096   0.279   3.515   5.973 -0.6977  0.4891  0.7568
  535TIP3    H223097   0.234   3.371   5.984  1.3438 -0.2541 -0.1375
  536TIP3   OH223098   0.810   1.457   4.140 -0.3206  0.0728 -0.9344
  536TIP3    H123099   0.788   1.546   4.170  0.6470  0.1828 -0.5244
  536TIP3    H223100   0.776   1.400   4.209  2.0158  0.3319  0.5370
  537TIP3   OH223101   4.605   1.606   2.883 -0.1477 -0.3066  0.0310
  537TIP3    H123102   4.586   1.544   2.953 -0.0520  0.0807  0.3986
  537TIP3    H223103   4.525   1.656   2.872  0.3586  0.7593  1.0096
  538TIP3   OH223104   1.812   3.150   2.193  0.1823  0.3579  0.1561
  538TIP3    H123105   1.793   3.165   2.285  1.4288  0.8828  0.3508
  538TIP3    H223106   1.739   3.190   2.146 -0.8223 -0.5403  0.9243
  539TIP3   OH223107   2.637   3.695  11.163  0.8270  0.1063 -0.3807
  539TIP3    H123108   2.603   3.735  11.243 -1.6686 -2.6507  0.0992
  539TIP3    H223109   2.713   3.645  11.191  0.1814 -0.5503  0.2239
  540TIP3   OH223110   6.740   1.610  14.421  0.2834 -0.0976  0.4014
  540TIP3    H123111   6.650   1.589  14.396 -0.4397 -0.9250  3.2715
  540TIP3    H223112   6.746   1.705  14.411 -0.6073 -0.1355 -0.6892
  541TIP3   OH223113   2.235   1.865   3.570  0.4443  0.0810 -0.4711
  541TIP3    H123114   2.325   1.834   3.576  0.4036 -0.0966 -0.7403
  541TIP3    H223115   2.242   1.959   3.552  0.5732  0.1221 -0.2009
  542TIP3   OH223116   1.271   2.468  15.303 -0.2602  0.0353 -0.3811
  542TIP3    H123117   1.241   2.547  15.348 -0.7121  0.4135 -1.3306
  542TIP3    H223118   1.238   2.477  15.214  1.2700 -0.3255 -1.0154
  543TIP3   OH223119   5.959   6.606   1.335  0.5134 -0.3178  0.1671
  543TIP3    H123120   5.963   6.696   1.369  0.6081  0.0946 -0.9023
  543TIP3    H223121   5.937   6.617   1.242  4.0168 -1.1933 -0.9091
  544TIP3   OH223122   3.589   5.401   1.993  0.6068 -0.2558  0.4636
  544TIP3    H123123   3.559   5.455   2.066 -0.4657  0.8092 -0.7211
  544TIP3    H223124   3.642   5.460   1.940 -0.2385 -0.4504 -0.6387
  545TIP3   OH223125   0.042   1.272   3.096  0.1619  0.5784  0.7757
  545TIP3    H123126   0.059   1.352   3.047 -2.9784  0.3906 -0.8323
  545TIP3    H223127   0.044   1.202   3.031 -0.4079 -0.2149  1.5777
  546TIP3   OH223128   3.356   1.026   5.209  0.2463 -0.0761 -0.3820
  546TIP3    H123129   3.274   0.996   5.248 -0.2175  1.6154  0.0018
  546TIP3    H223130   3.415   1.037   5.283  1.3290 -2.5796 -0.7647
  547TIP3   OH223131   3.992   5.052   5.272 -0.2561 -0.1396 -0.1343
  547TIP3    H123132   4.070   5.076   5.321 -0.6492 -1.3432  1.1626
  547TIP3    H223133   3.985   4.957   5.284 -1.3611 -0.1923 -1.0589
  548TIP3   OH223134   1.221   2.365   4.877  0.1082 -0.5025 -0.4008
  548TIP3    H123135   1.215   2.276   4.843  2.9200 -1.2943  0.8489
  548TIP3    H223136   1.315   2.384   4.877 -0.1797  1.3659  2.0287
  549TIP3   OH223137   1.402   5.793  11.643  0.0821 -0.1846 -0.3031
  549TIP3    H123138   1.446   5.854  11.584  2.9977 -1.0872  0.8121
  549TIP3    H223139   1.318   5.776  11.600  0.7414  1.6439 -2.5333
  550TIP3   OH223140   0.978   0.460  14.849 -0.2632  0.0870 -0.6330
  550TIP3    H123141   1.027   0.391  14.804  0.5765 -0.4671  1.0365
  550TIP3    H223142   0.990   0.441  14.942  0.2630  2.6767 -0.1027
  551TIP3   OH223143   0.829   6.260  17.074 -0.3008  0.4933 -0.0729
  551TIP3    H123144   0.845   6.172  17.107  0.4671  1.0378  1.0668
  551TIP3    H223145   0.811   6.248  16.980 -0.7513 -0.9114  0.1704
  552TIP3   OH223146   4.778   0.167  16.437  0.0508 -0.0215  0.4573
  552TIP3    H123147   4.793   0.165  16.342  1.3946  0.1646  0.6462
  552TIP3    H223148   4.795   0.258  16.461  1.8735 -0.5222  1.1830
  553TIP3   OH223149   0.987   5.044  15.523  0.2067 -0.0756  0.4241
  553TIP3    H123150   0.986   5.136  15.496 -1.1500  0.2975  1.6381
  553TIP3    H223151   1.016   5.046  15.615 -0.5418 -0.7854  0.6897
  554TIP3   OH223152   5.400   3.029  10.208  0.5886 -0.0551  0.2070
  554TIP3    H123153   5.433   3.118  10.218 -2.0409  1.0667 -0.1680
  554TIP3    H223154   5.359   3.028  10.121  0.7790 -1.7333  0.0967
  555TIP3   OH223155   2.458   4.588  16.353 -0.0097  0.4358 -0.0774
  555TIP3    H123156   2.421   4.514  16.402 -2.3212  1.3935 -0.2431
  555TIP3    H223157   2.514   4.633  16.417 -0.5714 -0.0612  0.7950
  556TIP3   OH223158   0.154   4.639  13.014  0.1340 -0.2061  0.3347
  556TIP3    H123159   0.139   4.680  13.099 -0.8192  0.0548  0.0528
  556TIP3    H223160   0.222   4.574  13.031 -0.0756 -0.1907  1.3092
  557TIP3   OH223161   3.887   3.149  14.161 -0.7328 -0.2085  0.0691
  557TIP3    H123162   3.927   3.161  14.075 -0.9944  0.5708  0.0537
  557TIP3    H223163   3.802   3.191  14.155 -0.8894 -0.4284  0.6158
  558TIP3   OH223164   3.877   0.884   4.963  0.1267  0.7744  0.0278
  558TIP3    H123165   3.887   0.969   5.007 -0.0992  1.0430 -0.4286
  558TIP3    H223166   3.787   0.858   4.983  1.1433 -0.9457  2.9198
  559TIP3   OH223167   2.913   2.105   3.418  0.3333  0.1802  0.0833
  559TIP3    H123168   2.998   2.092   3.459  0.1137 -1.5441  0.0796
  559TIP3    H223169   2.931   2.151   3.337  1.3052 -0.3885 -0.0368
  560TIP3   OH223170   0.751   6.507   5.640  0.4754 -0.1699  0.2069
  560TIP3    H123171   0.841   6.510   5.674  1.4453 -0.8599 -2.1166
  560TIP3    H223172   0.756   6.448   5.565 -2.2037 -1.1587  0.7210
  561TIP3   OH223173   5.469   4.413   5.110  0.6488  0.3465 -0.3368
  561TIP3    H123174   5.450   4.370   5.193 -0.4008  1.7723  0.2111
  561TIP3    H223175   5.553   4.456   5.124  0.9908 -0.2949 -0.3906
  562TIP3   OH223176   5.153   2.583   5.808 -0.4780  0.0778  0.3103
  562TIP3    H123177   5.153   2.502   5.758  0.2790  0.8675 -1.0136
  562TIP3    H223178   5.227   2.633   5.774  0.0109  0.6975  2.1640
  563TIP3   OH223179   6.323   4.912  13.703  0.0326  0.3269 -0.2417
  563TIP3    H123180   6.404   4.871  13.731  0.4288  1.2209 -0.0402
  563TIP3    H223181   6.340   4.940  13.613  0.3669  1.5602  0.1938
  564TIP3   OH223182   0.165   4.786   2.249 -0.4449 -0.0452 -0.0523
  564TIP3    H123183   0.119   4.864   2.279  2.3976  1.8010 -0.2242
  564TIP3    H223184   0.112   4.754   2.176 -3.3545 -0.2256  1.9382
  565TIP3   OH223185   6.568   3.449  11.921  0.2378 -0.1185 -0.4079
  565TIP3    H123186   6.638   3.429  11.982  1.2015 -0.1224 -1.4718
  565TIP3    H223187   6.576   3.543  11.905  0.9410 -0.3499 -1.6013
  566TIP3   OH223188   5.347   5.683  11.545  0.4659  0.1995  0.0372
  566TIP3    H123189   5.352   5.590  11.521  1.4960  0.5306 -1.1859
  566TIP3    H223190   5.391   5.688  11.630 -1.6539 -0.7484  1.2567
  567TIP3   OH223191   2.626   2.202  11.938 -0.2141 -0.2024  0.3610
  567TIP3    H123192   2.600   2.195  12.030  0.8840  0.4667  0.7470
  567TIP3    H223193   2.642   2.295  11.925 -2.6689  0.0902 -1.2096
  568TIP3   OH223194   0.062   3.190   0.547 -0.3192 -0.5351 -0.5166
  568TIP3    H123195  -0.015   3.240   0.572  0.6086  0.7120 -0.0779
  568TIP3    H223196   0.063   3.193   0.451  1.8074  3.7523 -0.5757
  569TIP3   OH223197   3.853   5.944   3.512  0.5133  0.7796  0.5355
  569TIP3    H123198   3.920   6.013   3.507  0.2606  0.9524 -1.3021
  569TIP3    H223199   3.773   5.986   3.479  0.6837 -0.7071 -2.0907
  570TIP3   OH223200   0.288   4.283  10.412  0.0231  0.0561 -0.5049
  570TIP3    H123201   0.234   4.346  10.461 -0.4653  1.3199 -2.5189
  570TIP3    H223202   0.363   4.267  10.468 -0.5054  1.4138  0.6630
  571TIP3   OH223203   2.484   0.682  12.922  0.1204 -0.4575 -0.6543
  571TIP3    H123204   2.390   0.692  12.906 -0.1151 -0.7805  0.4901
  571TIP3    H223205   2.507   0.755  12.979  0.9016  0.5175 -2.1370
  572TIP3   OH223206   6.646   5.994   3.346 -0.3491 -0.4063 -0.4735
  572TIP3    H123207   6.599   6.009   3.263  0.8127 -0.5085 -1.1771
  572TIP3    H223208   6.590   6.033   3.413 -0.2748  1.6629 -1.5529
  573TIP3   OH223209   0.472   6.668   3.613 -0.1051  0.0985 -0.2008
  573TIP3    H123210   0.493   6.752   3.572  0.5576 -0.1085 -0.2988
  573TIP3    H223211   0.480   6.685   3.707 -1.0295  0.4169 -0.1728
  574TIP3   OH223212   3.079   4.648   0.494  0.5683  0.4376 -0.2229
  574TIP3    H123213   2.995   4.635   0.538  0.4486 -0.3342 -0.6697
  574TIP3    H223214   3.141   4.663   0.566  0.7686 -2.8291  0.4314
  575TIP3   OH223215   1.573   4.287   3.422  0.4010  0.5924  0.2345
  575TIP3    H123216   1.604   4.312   3.509  1.5441  1.1043 -0.3053
  575TIP3    H223217   1.624   4.341   3.362  3.2040 -3.0914 -1.0355
  576TIP3   OH223218   2.910   6.032  16.029 -0.1396 -0.2382  0.0808
  576TIP3    H123219   2.968   6.064  15.960 -2.0876  1.5245 -0.8445
  576TIP3    H223220   2.888   5.943  16.001 -0.8373  0.4098 -1.5998
  577TIP3   OH223221   2.818   3.299   4.868  0.1487  0.0688 -0.0057
  577TIP3    H123222   2.846   3.268   4.954  1.1719  2.7634  0.7380
  577TIP3    H223223   2.846   3.230   4.807 -0.4000 -1.7871  1.7490
  578TIP3   OH223224   2.095   2.300  16.910  0.3368  0.2188 -0.6132
  578TIP3    H123225   2.142   2.383  16.920  1.9111 -0.8565  2.1903
  578TIP3    H223226   2.154   2.245  16.858  0.4019  0.1062 -0.4216
  579TIP3   OH223227   2.582   5.353  16.051 -0.2679 -0.0700  0.1018
  579TIP3    H123228   2.644   5.341  16.123  0.3525  0.0796 -0.4046
  579TIP3    H223229   2.500   5.375  16.094  0.5421  1.9784  0.6988
  580TIP3   OH223230   5.473   4.931   3.637  0.2055 -0.0073  0.0806
  580TIP3    H123231   5.538   4.862   3.650 -0.1128 -0.5612 -1.1598
  580TIP3    H223232   5.390   4.885   3.629  0.1729  0.3427 -2.2668
  581TIP3   OH223233   4.649   1.794  11.601 -0.4720  0.2670 -0.2077
  581TIP3    H123234   4.647   1.866  11.664  0.8554 -1.6084  2.1573
  581TIP3    H223235   4.736   1.798  11.562  0.2862 -0.9714  1.2248
  582TIP3   OH223236   4.571   3.226   3.937 -0.7717  0.7942  0.0266
  582TIP3    H123237   4.505   3.157   3.944  1.5876 -2.0275 -2.6723
  582TIP3    H223238   4.613   3.228   4.023 -1.7025 -0.2613  0.5264
  583TIP3   OH223239   6.571   0.337   4.280  0.3135  0.2562  0.3554
  583TIP3    H123240   6.522   0.286   4.344 -0.4880  0.6563  0.0660
  583TIP3    H223241   6.657   0.295   4.277 -0.5482 -1.5660 -0.4052
  584TIP3   OH223242   4.093   1.157   3.291 -0.1160  0.1294 -0.1542
  584TIP3    H123243   4.185   1.134   3.280 -0.1131  0.0498  0.0341
  584TIP3    H223244   4.068   1.194   3.206 -0.6795 -2.4042 -1.1891
  585TIP3   OH223245   3.275   4.581  13.772  0.6501 -0.6223 -0.1099
  585TIP3    H123246   3.234   4.650  13.720 -1.0548 -1.0343  0.6159
  585TIP3    H223247   3.310   4.626  13.849 -1.2023 -0.6188  0.7816
  586TIP3   OH223248   2.659   6.435   3.757 -0.1785  0.0968 -0.0831
  586TIP3    H123249   2.609   6.384   3.694 -2.3252  0.9176  0.8123
  586TIP3    H223250   2.728   6.476   3.706 -0.8353 -0.5599 -1.5656
  587TIP3   OH223251   2.691   4.373  12.816 -0.2341 -0.0970 -0.0942
  587TIP3    H123252   2.663   4.448  12.765 -2.1344 -0.7635 -0.1157
  587TIP3    H223253   2.671   4.397  12.907 -0.0051 -0.2439 -0.0023
  588TIP3   OH223254   4.096   2.394  12.106  0.1048 -1.0200 -0.1056
  588TIP3    H123255   4.005   2.407  12.133  0.3718 -0.5598  0.5927
  588TIP3    H223256   4.140   2.359  12.184  0.5841 -0.9985 -0.3587
  589TIP3   OH223257   0.402   1.535   0.895 -0.2254 -0.0772  0.5901
  589TIP3    H123258   0.411   1.617   0.846  0.9914 -0.3245  0.3874
  589TIP3    H223259   0.314   1.541   0.934 -0.5818  0.8373 -0.2981
  590TIP3   OH223260   0.719   6.005  12.633 -0.1204  0.0879 -0.4944
  590TIP3    H123261   0.760   6.001  12.719 -2.3843  0.6710  0.6984
  590TIP3    H223262   0.714   5.913  12.605  1.0040 -0.0739 -0.2167
  591TIP3   OH223263   5.272   2.289  17.079  0.4027  0.5396  0.2618
  591TIP3    H123264   5.211   2.316  17.011 -0.8349 -0.6885  0.8324
  591TIP3    H223265   5.230   2.315  17.161 -0.5720 -2.3849  0.8031
  592TIP3   OH223266   5.384   5.460   0.329  0.0542 -0.0167 -0.4008
  592TIP3    H123267   5.312   5.503   0.374 -0.2033 -0.5950 -0.2483
  592TIP3    H223268   5.341   5.393   0.275  0.6006 -1.6600  1.1426
  593TIP3   OH223269   2.196   6.146  15.942 -0.5410  0.2269  0.5122
  593TIP3    H123270   2.283   6.143  15.981 -0.6826 -1.1401  0.8023
  593TIP3    H223271   2.194   6.228  15.893  1.5173 -0.4643 -0.8745
  594TIP3   OH223272   2.439   1.711   3.446  0.0033  0.3013  0.0447
  594TIP3    H123273   2.461   1.693   3.354 -0.7953 -1.3730  0.1525
  594TIP3    H223274   2.347   1.687   3.454  0.6157 -1.7137  1.7956
  595TIP3   OH223275   4.388   0.593   0.848  0.4190 -0.6863  0.2386
  595TIP3    H123276   4.445   0.537   0.900  0.0739 -0.1504  1.2168
  595TIP3    H223277   4.321   0.623   0.909  0.4533  0.5958 -0.3161
  596TIP3   OH223278   0.522   4.904   1.605  0.0712 -0.3851 -0.4588
  596TIP3    H123279   0.447   4.873   1.555 -0.8752  1.7338 -0.4643
  596TIP3    H223280   0.599   4.869   1.559 -0.8555 -1.1812 -1.4398
  597TIP3   OH223281   5.842   1.527   1.087  0.0016  0.2826 -0.2136
  597TIP3    H123282   5.913   1.549   1.027 -0.4039 -1.0958 -1.2542
  597TIP3    H223283   5.872   1.447   1.131 -0.9195 -0.3861 -0.7567
  598TIP3   OH223284   2.821   4.514   0.238 -0.2736 -0.3617 -0.2790
  598TIP3    H123285   2.886   4.472   0.181 -0.7917 -2.3082  0.4873
  598TIP3    H223286   2.855   4.603   0.251  0.7687 -0.4259 -2.1367
  599TIP3   OH223287   4.301   1.292   2.203  0.3866 -0.0377 -0.3343
  599TIP3    H123288   4.394   1.272   2.212  0.3533 -0.4415 -0.8418
  599TIP3    H223289   4.298   1.385   2.181  0.4894  0.9813  3.3240
  600TIP3   OH223290   6.619   3.913  12.534 -0.1437  0.2564 -0.4048
  600TIP3    H123291   6.675   3.864  12.594  0.0226 -1.8401 -2.1643
  600TIP3    H223292   6.532   3.875  12.546 -0.7122  1.7307  0.4419
  601TIP3   OH223293   0.423   5.693   0.759  0.6943 -0.7167 -0.3246
  601TIP3    H123294   0.382   5.639   0.826  0.5434 -1.2534 -0.8341
  601TIP3    H223295   0.360   5.764   0.744  1.0569 -0.1859  0.6029
  602TIP3   OH223296   1.719   2.455  10.993 -0.5182 -0.2759  0.1871
  602TIP3    H123297   1.682   2.496  11.071 -1.2885  0.0470 -0.3367
  602TIP3    H223298   1.730   2.527  10.931 -2.2259 -0.8543 -0.8767
  603TIP3   OH223299   1.914   4.958   6.117 -0.1390  0.4505 -0.0334
  603TIP3    H123300   1.928   5.051   6.136 -1.4218  0.8421 -0.8627
  603TIP3    H223301   1.844   4.958   6.051  0.5723 -1.0590 -0.8226
  604TIP3   OH223302   2.124   1.863   0.020  0.8969 -0.4056  0.0772
  604TIP3    H123303   2.095   1.879  -0.070  2.4406 -1.4198 -0.6357
  604TIP3    H223304   2.116   1.769   0.031  0.0392 -0.2191  1.2865
  605TIP3   OH223305   3.910   2.866  15.707 -1.0868 -0.2844  0.4303
  605TIP3    H123306   3.995   2.906  15.724 -0.1573 -1.6857 -0.7172
  605TIP3    H223307   3.847   2.936  15.725  0.3615  1.1450  0.2005
  606TIP3   OH223308   5.634   0.888  12.568 -0.0548 -0.0772 -0.3086
  606TIP3    H123309   5.610   0.829  12.496 -0.9287 -0.0761 -0.0175
  606TIP3    H223310   5.572   0.960  12.563 -1.4459 -1.0353  1.6473
  607TIP3   OH223311   0.715   4.654  13.369  0.0948 -0.4522 -0.0853
  607TIP3    H123312   0.701   4.688  13.281 -1.8872 -1.7439 -0.3265
  607TIP3    H223313   0.699   4.728  13.427  3.5166  1.0234 -0.7519
  608TIP3   OH223314   2.239   2.760  15.462 -0.5159  0.4904  0.2619
  608TIP3    H123315   2.298   2.765  15.538 -0.5844  1.1646  0.2751
  608TIP3    H223316   2.151   2.756  15.499 -0.4845 -1.1092  0.2613
  609TIP3   OH223317   0.945   3.974   3.831  0.0937 -0.5268 -0.7256
  609TIP3    H123318   0.854   3.979   3.860  0.6086  0.7385  0.8549
  609TIP3    H223319   0.983   3.905   3.885  0.6859  0.7931  0.6214
  610TIP3   OH223320   1.921   4.016  16.212  0.1826 -0.1435  0.1180
  610TIP3    H123321   1.876   3.936  16.240 -0.2609  0.3542  0.8702
  610TIP3    H223322   1.952   4.056  16.293  0.6919  0.2873 -0.2782
  611TIP3   OH223323   0.782   6.587   4.469  0.2438  0.1363  0.1708
  611TIP3    H123324   0.830   6.537   4.403  0.1221 -0.4781  0.5331
  611TIP3    H223325   0.713   6.631   4.421  1.8680  2.0045 -0.5533
  612TIP3   OH223326   3.595   2.882  13.975  0.1045  0.1483 -0.4643
  612TIP3    H123327   3.552   2.952  14.024 -1.0644 -0.6542 -0.3134
  612TIP3    H223328   3.630   2.824  14.043 -2.9961 -1.8897 -0.4290
  613TIP3   OH223329   1.512   4.040  15.260 -0.3621 -0.1158 -0.2508
  613TIP3    H123330   1.438   4.084  15.217 -0.2716 -1.2509 -1.6681
  613TIP3    H223331   1.577   4.029  15.190 -0.5300 -2.7574 -0.1080
  614TIP3   OH223332   1.311   2.743   1.298 -0.0260 -0.0606 -0.5981
  614TIP3    H123333   1.377   2.686   1.336 -0.6948 -0.7609 -0.4695
  614TIP3    H223334   1.318   2.825   1.346  2.6727  0.9222 -2.4413
  615TIP3   OH223335   4.217   6.101  11.132 -0.3920 -0.4116  0.1748
  615TIP3    H123336   4.238   6.173  11.192 -0.0094 -1.1116  0.9023
  615TIP3    H223337   4.122   6.097  11.131 -0.5034  1.2828 -1.3204
  616TIP3   OH223338   4.651   3.349  15.447 -0.7725  0.4378 -0.0664
  616TIP3    H123339   4.630   3.431  15.403  1.6618 -0.1261 -2.5466
  616TIP3    H223340   4.576   3.292  15.427  0.0714  0.3142 -3.4024
  617TIP3   OH223341   5.132   6.505   4.183 -0.1233 -0.0448  0.1442
  617TIP3    H123342   5.170   6.444   4.246 -1.7757 -1.3623 -0.0684
  617TIP3    H223343   5.189   6.498   4.106 -0.0007 -0.9491  0.3078
  618TIP3   OH223344   2.787   3.587   6.532  0.2224  0.5483  0.4971
  618TIP3    H123345   2.790   3.678   6.504  0.7411  0.3083 -0.2448
  618TIP3    H223346   2.876   3.567   6.561  1.4901 -1.0584 -3.7793
  619TIP3   OH223347   0.680   4.621   0.953  0.2580 -0.5093  0.1343
  619TIP3    H123348   0.668   4.568   0.875 -0.0006 -0.9608  0.4778
  619TIP3    H223349   0.596   4.665   0.966  0.3580 -0.2937  0.0552
  620TIP3   OH223350   4.273   3.049   3.622 -0.0597 -0.3944  0.5757
  620TIP3    H123351   4.312   2.991   3.557  0.7198 -0.0069  0.6904
  620TIP3    H223352   4.203   2.996   3.662  0.4457 -1.1511  0.4778
  621TIP3   OH223353   0.934   1.501  11.768 -0.7390 -0.0081 -0.0301
  621TIP3    H123354   0.947   1.511  11.674 -2.5654 -1.7019 -0.5166
  621TIP3    H223355   1.014   1.458  11.799 -0.2796  0.2346 -0.8707
  622TIP3   OH223356   2.172   0.967  16.615 -0.2940  0.2379 -0.3317
  622TIP3    H123357   2.115   0.901  16.655  1.8727 -1.5502  0.0349
  622TIP3    H223358   2.131   0.985  16.531 -1.0397 -1.5220 -0.4041
  623TIP3   OH223359   2.652   3.255  14.322 -0.3192 -0.2633 -0.0982
  623TIP3    H123360   2.686   3.299  14.399  1.9706 -1.1073 -0.5533
  623TIP3    H223361   2.628   3.326  14.262  0.1308  0.3649  0.4599
  624TIP3   OH223362   3.613   1.030  13.358  0.6584 -0.0163 -0.4002
  624TIP3    H123363   3.592   1.047  13.449 -2.6002  0.5134 -1.1061
  624TIP3    H223364   3.629   0.935  13.354 -1.2275 -0.4294  0.4738
  625TIP3   OH223365   2.082   0.237  11.725  0.1757  0.5313 -0.0330
  625TIP3    H123366   2.111   0.251  11.635 -0.0837  0.1204 -0.1838
  625TIP3    H223367   1.987   0.225  11.718  0.1056  0.8563  0.3381
  626TIP3   OH223368   5.208   1.227  16.808  0.6334 -0.2522  0.2500
  626TIP3    H123369   5.219   1.135  16.830  0.5130 -0.6196 -1.1466
  626TIP3    H223370   5.126   1.230  16.757 -0.1167  0.8415  1.4659
  627TIP3   OH223371   6.014   1.578   3.439 -0.4235 -0.6783 -0.0520
  627TIP3    H123372   6.094   1.526   3.441 -0.7294 -1.1659 -0.1776
  627TIP3    H223373   6.041   1.664   3.407  0.1666 -0.6218  0.5905
  628TIP3   OH223374   6.546   4.516  16.263 -0.6270  0.2770  0.3937
  628TIP3    H123375   6.571   4.596  16.308 -1.5210  0.7729  0.0413
  628TIP3    H223376   6.468   4.540  16.212  1.4244  0.3327 -3.1020
  629TIP3   OH223377   5.684   0.579   3.801  0.5596 -0.3879  0.2889
  629TIP3    H123378   5.632   0.510   3.842 -2.1242  0.7605 -0.9527
  629TIP3    H223379   5.708   0.637   3.873  0.0284 -0.8857  0.8859
  630TIP3   OH223380   5.580   2.020   3.424 -0.3606 -0.3190 -0.3446
  630TIP3    H123381   5.534   1.970   3.357 -0.2567  0.6120 -1.1295
  630TIP3    H223382   5.668   2.032   3.389 -0.7163  1.4292 -0.7406
  631TIP3   OH223383   3.783   6.171  12.917  0.2530  0.5590  0.0201
  631TIP3    H123384   3.781   6.112  12.993  0.1988  2.6702  1.7735
  631TIP3    H223385   3.691   6.185  12.894  0.2801 -0.3471 -0.6943
  632TIP3   OH223386   0.121   3.388   3.704  0.4823  0.1551  0.0349
  632TIP3    H123387   0.194   3.449   3.692  0.7737 -0.1788  0.1079
  632TIP3    H223388   0.156   3.303   3.678  0.2987 -0.1096  0.6268
  633TIP3   OH223389   0.942   5.265   0.007  0.3074 -0.0837 -0.0732
  633TIP3    H123390   1.010   5.272   0.075  0.2162  0.7382 -0.0655
  633TIP3    H223391   0.871   5.321   0.038  0.4493  0.6523 -1.0675
  634TIP3   OH223392   4.461   0.750  13.601  0.4931  0.5261  0.9865
  634TIP3    H123393   4.471   0.818  13.535  1.8707 -1.3265 -0.8511
  634TIP3    H223394   4.457   0.797  13.684 -1.1210  2.9476 -0.3314
  635TIP3   OH223395   3.741   1.158   5.665 -0.0061 -0.1814  0.3359
  635TIP3    H123396   3.737   1.068   5.699 -3.5888 -0.6971 -0.9977
  635TIP3    H223397   3.702   1.211   5.734 -0.2700 -0.0841  0.1163
  636TIP3   OH223398   5.396   3.445  15.524 -0.7130 -0.0889 -0.2842
  636TIP3    H123399   5.470   3.469  15.467 -0.5527  1.4477  0.5174
  636TIP3    H223400   5.368   3.360  15.491  0.4717 -0.0361 -1.5579
  637TIP3   OH223401   3.893   0.085  13.685 -0.3218  0.0951  0.2573
  637TIP3    H123402   3.970   0.029  13.691 -0.4933 -0.1782 -0.1053
  637TIP3    H223403   3.919   0.165  13.732  0.2050  0.0377  0.0748
  638TIP3   OH223404   3.214   3.686   1.936  0.1148 -0.1763  0.0115
  638TIP3    H123405   3.224   3.764   1.881  1.5523 -0.0906  0.3711
  638TIP3    H223406   3.267   3.619   1.892  1.4355 -0.0558  1.3489
  639TIP3   OH223407   2.277   0.064  15.135 -0.1048 -0.2012  0.5138
  639TIP3    H123408   2.240  -0.009  15.184 -2.6539 -0.2053 -1.2647
  639TIP3    H223409   2.371   0.045  15.131 -0.5659 -2.9321  0.8118
  640TIP3   OH223410   1.443   2.183  13.189  0.8513  0.1763  0.1717
  640TIP3    H123411   1.363   2.188  13.136  1.8072 -1.8323 -1.6364
  640TIP3    H223412   1.418   2.129  13.264  0.6995 -1.3040 -0.8978
  641TIP3   OH223413   2.102   6.184  12.291 -0.6577 -0.2997  0.3976
  641TIP3    H123414   2.166   6.243  12.250  0.4847 -1.1477  0.9078
  641TIP3    H223415   2.146   6.099  12.294 -2.2169 -1.1602 -0.1825
  642TIP3   OH223416   2.465   5.786   2.255  0.1274 -0.6284 -0.3492
  642TIP3    H123417   2.374   5.805   2.278  0.0425 -1.1576 -0.2212
  642TIP3    H223418   2.506   5.872   2.244 -0.5420 -0.3874 -1.0245
  643TIP3   OH223419   3.670   2.453  13.844 -0.0832  0.1754  0.4142
  643TIP3    H123420   3.632   2.379  13.892 -2.0257  0.0242 -1.2395
  643TIP3    H223421   3.714   2.412  13.769 -1.4282  0.6643 -0.6783
  644TIP3   OH223422   0.825   6.722  14.692 -0.0631  0.1192 -0.2528
  644TIP3    H123423   0.824   6.776  14.772 -0.8682  2.3616 -1.6820
  644TIP3    H223424   0.908   6.676  14.695 -0.0083  0.2579  1.7941
  645TIP3   OH223425   6.080   4.718   5.191  0.1521  0.7078  0.3043
  645TIP3    H123426   6.088   4.623   5.202 -1.7158  0.0709 -2.8568
  645TIP3    H223427   6.166   4.745   5.158 -0.0027 -0.2978 -0.9800
  646TIP3   OH223428   2.057   2.657   4.896  0.2285  0.4249 -0.2333
  646TIP3    H123429   2.004   2.582   4.870  1.6602 -0.9018  0.4716
  646TIP3    H223430   2.022   2.730   4.847  0.6043 -1.2655 -3.2491
  647TIP3   OH223431   0.411   4.566   5.951 -0.0148  0.4101  0.1525
  647TIP3    H123432   0.390   4.484   5.997  0.1957 -1.0517 -2.1871
  647TIP3    H223433   0.496   4.592   5.988  1.1060 -1.7749 -0.6683
  648TIP3   OH223434   4.394   6.424  15.458  0.0080  0.1213  0.2777
  648TIP3    H123435   4.414   6.500  15.404  1.2330  0.4247  1.0963
  648TIP3    H223436   4.314   6.388  15.421  1.4819 -0.5054 -2.6016
  649TIP3   OH223437   3.814   1.390   4.288  0.0368  0.0275 -0.4841
  649TIP3    H123438   3.718   1.389   4.287 -0.0212  0.6749  1.2409
  649TIP3    H223439   3.837   1.430   4.371  1.8279  0.1680 -0.9983
  650TIP3   OH223440   5.325   1.753  15.994  0.3202  0.0493  0.8641
  650TIP3    H123441   5.401   1.803  16.023  0.4978  0.8760 -0.8491
  650TIP3    H223442   5.250   1.808  16.016  0.4332  0.5373  0.0792
  651TIP3   OH223443   3.642   5.321   2.318 -0.1256  0.2177 -0.0568
  651TIP3    H123444   3.684   5.261   2.257 -0.0722  0.8785 -0.6728
  651TIP3    H223445   3.576   5.267   2.362 -0.4439 -0.1764 -0.9885
  652TIP3   OH223446   3.261   4.709  17.102  0.3817  0.1906 -0.0107
  652TIP3    H123447   3.356   4.707  17.116  0.3434  1.3997  0.6770
  652TIP3    H223448   3.227   4.750  17.182 -0.4781  1.9718 -1.2051
  653TIP3   OH223449   0.161   0.378  13.436 -0.0227  0.6302  0.2065
  653TIP3    H123450   0.152   0.365  13.530  0.9907  0.0879  0.2461
  653TIP3    H223451   0.234   0.322  13.411  1.0285  2.2747 -0.5668
  654TIP3   OH223452   3.714   2.506  14.283  0.4202  0.3113 -0.4479
  654TIP3    H123453   3.622   2.524  14.302  1.4550  5.0999  1.5031
  654TIP3    H223454   3.738   2.435  14.342 -1.5698  0.2255  0.3256
  655TIP3   OH223455   2.171   5.915   2.666 -0.1073  0.8463  0.0386
  655TIP3    H123456   2.229   5.839   2.678 -0.3179  0.7007  0.1437
  655TIP3    H223457   2.206   5.959   2.589 -0.5619  0.0968 -0.6157
  656TIP3   OH223458   3.032   3.219  16.623  0.3254  0.2783  0.1472
  656TIP3    H123459   2.996   3.239  16.537 -0.6345  0.0257  0.4800
  656TIP3    H223460   3.082   3.297  16.646  0.4794  0.4039 -0.5730
  657TIP3   OH223461   0.462   1.728  16.067 -0.2359 -0.1434  0.4043
  657TIP3    H123462   0.409   1.673  16.011  1.3078 -1.3966  0.1063
  657TIP3    H223463   0.428   1.817  16.053 -1.1286 -0.6831 -1.0269
  658TIP3   OH223464   0.697   0.578  10.477  0.2408  0.0950 -0.3570
  658TIP3    H123465   0.761   0.649  10.481  1.2192 -0.7224 -1.0713
  658TIP3    H223466   0.683   0.553  10.568  0.1689  0.9465 -0.1259
  659TIP3   OH223467   2.256   4.892  11.718  0.0145 -0.4090  0.1625
  659TIP3    H123468   2.309   4.844  11.655 -1.9251  0.2214 -2.0941
  659TIP3    H223469   2.206   4.954  11.666 -2.0000 -0.0877  2.2624
  660TIP3   OH223470   5.355   0.268   1.093  0.0838  0.4248 -0.3388
  660TIP3    H123471   5.354   0.361   1.115 -0.4489  0.2646  0.3249
  660TIP3    H223472   5.263   0.243   1.089  0.2348 -0.2358  0.1821
  661TIP3   OH223473   0.212   3.744   2.056  0.5183 -0.3275  0.4297
  661TIP3    H123474   0.252   3.827   2.085  0.1744  0.2335 -0.6493
  661TIP3    H223475   0.233   3.682   2.126 -3.8051  1.8082  4.1599
  662TIP3   OH223476   5.289   0.824   0.370 -0.1438  0.2999 -0.4832
  662TIP3    H123477   5.381   0.845   0.356 -0.1826  0.6430 -0.2320
  662TIP3    H223478   5.288   0.731   0.393  0.1834  0.4058 -0.0362
  663TIP3   OH223479   6.424   5.797   1.787 -0.8196  0.5273 -0.2948
  663TIP3    H123480   6.476   5.721   1.761 -0.1472  1.0173 -0.4111
  663TIP3    H223481   6.423   5.793   1.882 -1.3469  0.0059 -0.3187
  664TIP3   OH223482   1.047   0.388   3.760 -0.3420 -0.7901  0.3507
  664TIP3    H123483   1.114   0.365   3.695 -0.4448  2.0270 -0.8982
  664TIP3    H223484   0.966   0.351   3.725  0.1648 -2.2803  0.7064
  665TIP3   OH223485   0.218   0.794   3.349  0.5696  0.0229  0.2079
  665TIP3    H123486   0.274   0.777   3.425  2.1001  1.1614 -0.6243
  665TIP3    H223487   0.196   0.707   3.316  0.3698 -0.4795  1.5795
  666TIP3   OH223488   2.659   4.768   0.565 -0.8702  0.8196  0.3894
  666TIP3    H123489   2.649   4.738   0.474 -0.3158  0.7280  0.3545
  666TIP3    H223490   2.688   4.691   0.613  0.3870  1.2407  0.3356
  667TIP3   OH223491   6.056   6.444  15.468 -0.0407 -0.0931  0.5145
  667TIP3    H123492   6.096   6.371  15.516  2.6936  1.6289  1.0964
  667TIP3    H223493   6.128   6.481  15.417 -1.3519  2.1013  0.1384
  668TIP3   OH223494   4.402   1.498   0.902  0.5559  0.6524  0.5171
  668TIP3    H123495   4.310   1.495   0.927  0.9322  0.8119  2.0063
  668TIP3    H223496   4.437   1.413   0.928  0.3807 -0.2689 -2.0449
  669TIP3   OH223497   3.775   3.505  14.603  0.2318  0.7661  0.8704
  669TIP3    H123498   3.779   3.513  14.507  0.5000  0.9680  0.8990
  669TIP3    H223499   3.858   3.541  14.634  1.2650 -1.5751  1.0461
  670TIP3   OH223500   4.389   4.021  13.499 -0.5811 -0.0414 -1.1659
  670TIP3    H123501   4.428   3.934  13.500 -0.9483 -0.2452  1.5562
  670TIP3    H223502   4.359   4.032  13.409  0.1242 -2.4130 -1.7731
  671TIP3   OH223503   4.046   5.404   3.473  0.1429 -0.0611  0.5795
  671TIP3    H123504   3.972   5.370   3.424  1.1131 -2.5005  0.6813
  671TIP3    H223505   4.050   5.349   3.551  2.3403 -0.3253  0.3335
  672TIP3   OH223506   0.897   5.216   3.401 -0.0472  0.1181  0.8312
  672TIP3    H123507   0.816   5.214   3.453  0.4750  2.7412  1.9004
  672TIP3    H223508   0.868   5.238   3.312 -0.6873 -1.4416  0.6283
  673TIP3   OH223509   0.061   2.226   1.356 -0.2008  0.2226 -0.5465
  673TIP3    H123510  -0.032   2.218   1.337  0.2130  0.5829 -3.1194
  673TIP3    H223511   0.071   2.190   1.444 -2.4915 -1.3966 -0.8705
  674TIP3   OH223512   5.786   1.073   4.175  0.2450 -0.1211  0.2116
  674TIP3    H123513   5.693   1.094   4.171  0.1628 -0.6189 -1.1892
  674TIP3    H223514   5.792   0.998   4.234 -0.3008 -0.3413 -0.0096
  675TIP3   OH223515   5.924   4.298  12.127 -0.2164  0.3909 -0.3021
  675TIP3    H123516   5.957   4.387  12.116  0.5875  0.0808 -0.4616
  675TIP3    H223517   5.848   4.294  12.068  0.3903  0.6433 -1.1320
  676TIP3   OH223518   3.077   4.228  13.516  0.3032 -0.5642  0.3687
  676TIP3    H123519   3.148   4.290  13.498  0.0855 -1.0608 -2.7463
  676TIP3    H223520   2.997   4.279  13.505  0.1057 -1.3561 -2.7744
  677TIP3   OH223521   2.615   1.362   5.599  0.0161  0.1372 -0.5432
  677TIP3    H123522   2.595   1.394   5.511  1.1606 -2.0884 -1.7158
  677TIP3    H223523   2.593   1.269   5.596  1.0958 -0.2275  1.1840
  678TIP3   OH223524   3.679   6.370  13.401  0.1486 -0.4051 -0.2656
  678TIP3    H123525   3.649   6.311  13.471  0.3288  0.6412  0.7292
  678TIP3    H223526   3.774   6.362  13.403  0.3389  1.4213  1.3171
  679TIP3   OH223527   6.584   1.766  13.624  0.4388  0.4931 -0.3009
  679TIP3    H123528   6.536   1.734  13.548  1.2825 -0.3010 -0.5190
  679TIP3    H223529   6.580   1.862  13.617 -1.5169  0.4728 -0.0311
  680TIP3   OH223530   5.396   2.551   0.398  0.4681  0.0488 -0.1381
  680TIP3    H123531   5.489   2.543   0.379  0.4850  0.7944 -0.3928
  680TIP3    H223532   5.391   2.617   0.467  0.0087  1.2892 -1.3312
  681TIP3   OH223533   3.029   0.562  11.360  1.0393  0.1929  0.0286
  681TIP3    H123534   3.112   0.608  11.370  0.6265  0.7479  0.9815
  681TIP3    H223535   2.969   0.607  11.419 -0.4199  0.9021 -1.8956
  682TIP3   OH223536   5.006   3.122  15.767 -0.0909  0.1317  0.0385
  682TIP3    H123537   5.076   3.119  15.831  1.1146  0.0187 -1.2352
  682TIP3    H223538   4.994   3.216  15.749 -0.6369  0.1820  0.6234
  683TIP3   OH223539   4.342   5.522   0.769 -0.0929 -0.0061  0.4006
  683TIP3    H123540   4.363   5.436   0.733  2.1713  1.3123 -1.7054
  683TIP3    H223541   4.314   5.574   0.693  0.1428  1.5841  1.3435
  684TIP3   OH223542   0.855   5.313   6.063 -0.5452  0.1592  0.2446
  684TIP3    H123543   0.890   5.396   6.096  0.4579  0.2415 -0.9485
  684TIP3    H223544   0.777   5.297   6.116 -0.9088  1.9902  0.3315
  685TIP3   OH223545   2.033   5.086  14.612  0.2142 -0.0573 -0.0116
  685TIP3    H123546   2.108   5.026  14.615 -0.2963 -0.6897  0.7060
  685TIP3    H223547   2.022   5.114  14.703  0.8820  1.7225 -0.4354
  686TIP3   OH223548   5.774   6.130   0.678  0.2080 -0.3499  0.1949
  686TIP3    H123549   5.758   6.073   0.752  1.2720 -0.2686  0.5067
  686TIP3    H223550   5.703   6.194   0.680 -0.2952 -0.9165  0.5685
  687TIP3   OH223551   2.232   2.618   0.707 -0.8309 -0.0979 -0.0744
  687TIP3    H123552   2.312   2.619   0.760 -1.6612 -0.3787  1.2336
  687TIP3    H223553   2.263   2.619   0.616  0.6823 -1.5183  0.3802
  688TIP3   OH223554   3.303   2.268  11.430  0.0732 -0.6219  0.0066
  688TIP3    H123555   3.377   2.300  11.482  0.2371 -0.7333 -0.1567
  688TIP3    H223556   3.250   2.219  11.493  0.2055 -0.6518  0.0978
  689TIP3   OH223557   4.669   0.615  13.745 -0.1721  0.3212 -0.6552
  689TIP3    H123558   4.743   0.589  13.689  0.7686  0.3399  0.5454
  689TIP3    H223559   4.596   0.628  13.683  0.3323 -1.4250 -1.6850
  690TIP3   OH223560   3.828   0.256  16.814 -0.5968  0.2521 -0.2875
  690TIP3    H123561   3.770   0.240  16.740 -0.6913  1.0590 -0.3953
  690TIP3    H223562   3.870   0.171  16.830 -0.6387  0.0435 -1.2046
  691TIP3   OH223563   5.718   2.479  13.482  0.4499 -0.3070 -0.4511
  691TIP3    H123564   5.795   2.484  13.425  1.8405  0.0117  1.3616
  691TIP3    H223565   5.742   2.415  13.548 -1.4219 -1.2173 -0.6043
  692TIP3   OH223566   4.067   6.253   2.502 -0.0682  0.0517  0.9116
  692TIP3    H123567   4.026   6.321   2.554 -0.9718  0.1121  0.1287
  692TIP3    H223568   3.995   6.202   2.466  0.5690 -0.6784  0.6210
  693TIP3   OH223569   6.602   6.808  15.819 -0.0705  0.0305 -0.0657
  693TIP3    H123570   6.528   6.865  15.796  0.6028  0.6221 -0.8479
  693TIP3    H223571   6.579   6.723  15.781  0.7691  0.8539 -2.5984
  694TIP3   OH223572   5.255   4.586  14.541 -0.1002  0.4325 -0.1524
  694TIP3    H123573   5.301   4.617  14.463 -0.6413  1.0359 -0.2441
  694TIP3    H223574   5.239   4.666  14.593  0.3787  0.0213  0.6431
  695TIP3   OH223575   3.754   3.868   4.831  0.2502  0.5379 -0.0233
  695TIP3    H123576   3.776   3.874   4.738  0.1805 -0.8096 -0.1524
  695TIP3    H223577   3.752   3.774   4.848 -1.2924  0.7263  0.9690
  696TIP3   OH223578   6.687   3.543  14.465  0.0998  0.5995  0.1301
  696TIP3    H123579   6.683   3.609  14.534  0.0408  1.9604 -1.1171
  696TIP3    H223580   6.762   3.488  14.489 -0.3718  0.5791  1.6397
  697TIP3   OH223581   1.725   6.538   0.795  0.2871  0.6332 -0.1114
  697TIP3    H123582   1.710   6.495   0.711 -0.8398 -0.8527  0.8194
  697TIP3    H223583   1.820   6.552   0.798  0.3723  0.4977 -1.5078
  698TIP3   OH223584   4.383   0.388   4.256 -0.4713 -0.6283 -0.1820
  698TIP3    H123585   4.436   0.467   4.249 -1.4360  0.0188 -0.3158
  698TIP3    H223586   4.313   0.411   4.318 -1.0627 -1.1970 -0.6259
  699TIP3   OH223587   0.260   1.306   5.067 -0.2691 -0.3754  0.0777
  699TIP3    H123588   0.300   1.313   4.981 -1.9309  0.1879 -0.6856
  699TIP3    H223589   0.334   1.298   5.127  0.9210 -0.9226 -1.3924
  700TIP3   OH223590   1.352   1.619   4.725  0.3548  0.0834 -0.0959
  700TIP3    H123591   1.419   1.567   4.770  1.2572 -1.2423 -2.8116
  700TIP3    H223592   1.365   1.600   4.632 -1.1169  3.0496 -1.0200
  701TIP3   OH223593   6.076   2.401  12.809 -0.6723  0.1510 -0.1372
  701TIP3    H123594   6.134   2.326  12.806  0.8341  1.2438  0.5334
  701TIP3    H223595   6.122   2.469  12.760 -0.5013  1.6058  1.9124
  702TIP3   OH223596   2.120   0.804  15.730 -0.1797 -0.1906  0.0540
  702TIP3    H123597   2.074   0.757  15.799  2.7606 -1.1694  1.5261
  702TIP3    H223598   2.098   0.896  15.745 -2.5129 -0.6654 -0.0910
  703TIP3   OH223599   0.345   0.996  14.165  0.4569 -0.4548  0.7136
  703TIP3    H123600   0.351   1.090  14.181  3.5341 -0.7236  1.6220
  703TIP3    H223601   0.300   0.961  14.242  0.3402  0.1378  0.9174
  704TIP3   OH223602   6.435   2.305  14.241  0.1769 -0.1185  0.2865
  704TIP3    H123603   6.451   2.261  14.158  1.1419  1.6957 -0.5292
  704TIP3    H223604   6.346   2.341  14.233  0.0437 -0.4457  0.2849
  705TIP3   OH223605   0.786   6.812   4.660  0.4877  0.5785 -0.1183
  705TIP3    H123606   0.722   6.764   4.713  0.7686  0.9400  0.5694
  705TIP3    H223607   0.776   6.777   4.572 -0.2210  0.1912  0.1109
  706TIP3   OH223608   4.556   3.106  16.839 -0.3608  0.5514 -0.2300
  706TIP3    H123609   4.480   3.111  16.897 -0.7790 -0.3002 -0.6797
  706TIP3    H223610   4.604   3.186  16.856 -1.9541  1.6761 -0.7443
  707TIP3   OH223611   1.859   1.715  11.634  0.5753 -0.0667 -0.1755
  707TIP3    H123612   1.884   1.794  11.585  0.4910 -0.7496 -1.3579
  707TIP3    H223613   1.809   1.663  11.572 -0.2039 -0.6332  0.8888
  708TIP3   OH223614   2.508   1.248  12.219 -0.3054  0.2261 -0.5909
  708TIP3    H123615   2.542   1.245  12.309 -0.2674  1.3050 -0.5550
  708TIP3    H223616   2.450   1.324  12.218  0.8337  1.1228 -1.8566
  709TIP3   OH223617   2.314   1.002  14.711 -0.0495 -0.2066  0.0838
  709TIP3    H123618   2.357   0.937  14.766  0.0223 -1.0689 -0.9566
  709TIP3    H223619   2.251   0.952  14.659 -1.7938  0.9242  1.0140
  710TIP3   OH223620   6.515   5.074   3.607  0.9701 -0.3706  0.0541
  710TIP3    H123621   6.443   5.019   3.576  0.6808  0.1464 -0.1976
  710TIP3    H223622   6.578   5.012   3.644  1.1365 -0.9671 -1.1844
  711TIP3   OH223623   0.360   2.808   4.141  0.1530  0.7244 -0.2574
  711TIP3    H123624   0.268   2.829   4.125  0.3936  2.6715  0.5994
  711TIP3    H223625   0.401   2.815   4.054 -0.0734  2.4741 -0.2578
  712TIP3   OH223626   1.056   3.656  16.885 -0.3319 -0.2471  0.5018
  712TIP3    H123627   1.065   3.670  16.979  1.3230 -0.4862  0.4222
  712TIP3    H223628   1.067   3.743  16.846  1.5395 -0.4531  0.4430
  713TIP3   OH223629   6.522   4.781  13.325  0.0766 -0.1896 -0.0405
  713TIP3    H123630   6.477   4.707  13.285  0.7867 -0.9274  0.4681
  713TIP3    H223631   6.580   4.740  13.390 -0.7246  0.9153  1.4265
  714TIP3   OH223632   5.715   5.115  12.148  0.0774  0.6259  0.3412
  714TIP3    H123633   5.638   5.126  12.092  0.7425 -1.5797 -1.1196
  714TIP3    H223634   5.720   5.020  12.163  2.2207  0.7818  0.8242
  715TIP3   OH223635   3.634   6.630  10.392 -0.2062 -0.1803 -0.0698
  715TIP3    H123636   3.659   6.618  10.484 -0.8196  0.6063  0.2099
  715TIP3    H223637   3.570   6.701  10.394 -0.8392 -0.7013 -1.0109
  716TIP3   OH223638   2.816   5.555  14.328  0.1705  0.2974 -0.1062
  716TIP3    H123639   2.840   5.511  14.246  1.1085 -1.4840  1.0324
  716TIP3    H223640   2.801   5.646  14.303 -1.9332 -0.6021 -2.6484
  717TIP3   OH223641   4.188   3.701   6.063 -0.4887 -0.3468 -0.6115
  717TIP3    H123642   4.283   3.692   6.063 -0.2950  1.3195  0.1855
  717TIP3    H223643   4.160   3.659   6.144 -0.2842  0.2691 -0.2124
  718TIP3   OH223644   4.676   3.661  16.743 -0.0019 -0.0193 -0.1202
  718TIP3    H123645   4.769   3.667  16.762  0.0096  1.6984 -0.5900
  718TIP3    H223646   4.672   3.620  16.656  0.1464 -2.7051  1.0323
  719TIP3   OH223647   1.063   3.857  14.962 -0.3159 -0.5616 -0.4912
  719TIP3    H123648   1.057   3.875  14.868  0.3299 -2.1211 -0.8740
  719TIP3    H223649   1.011   3.778  14.974  0.4814 -0.9854  0.2657
  720TIP3   OH223650   1.946   4.789  15.647  0.1735  0.0969 -0.7233
  720TIP3    H123651   1.917   4.836  15.569  1.6873  1.4946 -0.5136
  720TIP3    H223652   1.966   4.858  15.710  2.3837 -0.7819 -0.3601
  721TIP3   OH223653   4.623   2.788   6.314 -0.2830 -0.6142 -0.1100
  721TIP3    H123654   4.674   2.793   6.395 -0.8511  0.4842  0.1994
  721TIP3    H223655   4.534   2.768   6.342 -0.3737 -0.7757 -0.5049
  722TIP3   OH223656   2.144   0.178   2.719  0.3679 -0.3606  0.3383
  722TIP3    H123657   2.077   0.161   2.786 -1.0581  1.5500 -0.4859
  722TIP3    H223658   2.117   0.124   2.645 -0.4765  0.5974 -0.0834
  723TIP3   OH223659   4.723   3.844   0.577  0.3800  0.3265  0.0066
  723TIP3    H123660   4.708   3.785   0.651 -3.5990 -1.2943 -1.7625
  723TIP3    H223661   4.699   3.931   0.609 -0.6400 -0.2457  0.8445
  724TIP3   OH223662   2.406   4.094   5.667  0.5988 -0.0609 -0.2259
  724TIP3    H123663   2.450   4.014   5.693  0.5291  0.1854  0.6796
  724TIP3    H223664   2.477   4.157   5.654  0.6252 -0.1501 -0.5242
  725TIP3   OH223665   3.704   1.448   1.181  0.0251  0.2973  0.6787
  725TIP3    H123666   3.726   1.373   1.237  0.0983  0.0518  0.3273
  725TIP3    H223667   3.742   1.523   1.227 -0.5982  0.2103  1.3555
  726TIP3   OH223668   2.372   5.176   2.035 -0.3410  0.6294  0.5955
  726TIP3    H123669   2.287   5.161   2.076 -0.9540 -0.2763 -0.9445
  726TIP3    H223670   2.432   5.116   2.080 -0.5752  0.9776  1.3990
  727TIP3   OH223671   4.875   6.516   4.115 -0.0975 -0.5393  0.1839
  727TIP3    H123672   4.867   6.605   4.082 -0.8683 -0.6157  0.1399
  727TIP3    H223673   4.968   6.505   4.133 -0.3196  1.2760  3.0499
  728TIP3   OH223674   5.647   2.308  13.049 -0.0824  0.3383 -0.1942
  728TIP3    H123675   5.596   2.382  13.017 -0.0937  0.0152 -0.9388
  728TIP3    H223676   5.616   2.294  13.138  0.4964  1.7353  0.2474
  729TIP3   OH223677   4.255   0.645   5.959 -0.1661 -0.3811  0.8512
  729TIP3    H123678   4.306   0.718   5.995 -1.2160  0.7424  0.1336
  729TIP3    H223679   4.285   0.637   5.869  0.2202 -1.1115  1.0390
  730TIP3   OH223680   1.579   2.615   2.544  0.3567  0.1036 -0.6357
  730TIP3    H123681   1.526   2.694   2.542 -1.2935 -0.9500 -0.3537
  730TIP3    H223682   1.638   2.627   2.619  0.6721  1.3642 -1.0617
  731TIP3   OH223683   4.085   0.135   4.861 -0.1836  0.3122 -0.2223
  731TIP3    H123684   4.162   0.157   4.914 -0.7478 -0.6650  1.0546
  731TIP3    H223685   4.073   0.211   4.804  0.8303  1.1354  0.6114
  732TIP3   OH223686   2.898   4.411   5.521  0.2594  0.1441 -1.1423
  732TIP3    H123687   2.857   4.436   5.438 -2.2417  0.6587  0.1488
  732TIP3    H223688   2.923   4.494   5.561  0.1992 -0.0161 -0.7723
  733TIP3   OH223689   4.695   3.548  14.909  0.3180  0.1991  0.0351
  733TIP3    H123690   4.737   3.474  14.952 -1.2371 -0.0962  1.1693
  733TIP3    H223691   4.675   3.608  14.981  0.4165  1.1342 -0.7078
  734TIP3   OH223692   5.813   1.073  14.746 -0.0494  0.4500 -0.3434
  734TIP3    H123693   5.861   1.049  14.826 -0.5872 -0.6635 -0.3336
  734TIP3    H223694   5.880   1.106  14.686  0.4481  0.6951  0.3343
  735TIP3   OH223695   5.028   5.615  14.757 -0.0895  0.4228 -0.3267
  735TIP3    H123696   5.117   5.613  14.721 -1.0094  0.7281 -2.8411
  735TIP3    H223697   5.011   5.708  14.772 -0.0654  0.3896 -0.1017
  736TIP3   OH223698   1.081   0.053   2.910 -0.4907  0.1262  0.4036
  736TIP3    H123699   1.146  -0.017   2.908 -1.2846 -0.6320 -0.3028
  736TIP3    H223700   1.079   0.082   3.001  0.4456 -0.1965  0.5343
  737TIP3   OH223701   6.465   5.518   3.947 -0.6097 -0.1277  0.4005
  737TIP3    H123702   6.409   5.441   3.956  0.9169 -1.2616  0.7316
  737TIP3    H223703   6.409   5.592   3.970 -1.9690 -1.1933  0.6237
  738TIP3   OH223704   5.311   5.878   6.001 -0.1105  0.0370 -0.1674
  738TIP3    H123705   5.375   5.942   6.031 -1.5243 -0.2074  4.0352
  738TIP3    H223706   5.353   5.793   6.015 -0.8483 -0.0894  1.3862
  739TIP3   OH223707   0.108   0.652   3.879  0.5468  0.3626 -0.4706
  739TIP3    H123708   0.111   0.736   3.834 -0.2785 -0.0984 -1.4347
  739TIP3    H223709   0.065   0.670   3.962 -1.5135  0.5580 -1.5258
  740TIP3   OH223710   1.590   0.512   3.285  0.4101  0.0698  0.4764
  740TIP3    H123711   1.613   0.421   3.267  2.2433  0.5789  0.0535
  740TIP3    H223712   1.516   0.506   3.345  0.5051 -1.6940  0.4776
  741TIP3   OH223713   2.699   2.321  11.546  0.1734  0.3763 -0.0931
  741TIP3    H123714   2.640   2.339  11.473  1.0285  0.4816 -0.7866
  741TIP3    H223715   2.711   2.226  11.545 -2.2117 -0.0301  1.8675
  742TIP3   OH223716   4.874   2.008   2.434  0.1827  0.4293  0.3454
  742TIP3    H123717   4.892   1.937   2.495  0.2368 -1.5983 -1.8785
  742TIP3    H223718   4.779   2.014   2.431  0.1912  1.0845  1.1990
  743TIP3   OH223719   3.526   4.985   6.691  0.1804 -0.8413  0.1752
  743TIP3    H123720   3.550   4.963   6.601  1.6540  1.8471 -0.2140
  743TIP3    H223721   3.584   4.931   6.745  0.6130 -1.1165 -0.5511
  744TIP3   OH223722   4.685   4.946  15.461 -0.5268 -0.3819 -0.8514
  744TIP3    H123723   4.659   5.009  15.529 -1.2020 -1.0324 -0.4854
  744TIP3    H223724   4.620   4.876  15.469  1.2047 -1.9696 -0.0646
  745TIP3   OH223725   3.628   3.370   2.864 -0.8707 -0.6766 -0.1474
  745TIP3    H123726   3.538   3.383   2.895 -0.3432  0.8022  0.9041
  745TIP3    H223727   3.625   3.395   2.771 -1.6215 -1.0300 -0.2240
  746TIP3   OH223728   0.638   1.217  16.487  0.1911  0.3477 -0.6472
  746TIP3    H123729   0.563   1.197  16.543  0.6207  1.2384  0.2714
  746TIP3    H223730   0.627   1.158  16.412  0.3786 -1.9298  0.9973
  747TIP3   OH223731   1.319   2.364  14.456  0.1225 -0.1559 -0.4474
  747TIP3    H123732   1.261   2.314  14.399  0.1888 -1.4202  0.5460
  747TIP3    H223733   1.282   2.353  14.544  0.7559  0.6627 -0.0608
  748TIP3   OH223734   1.316   1.324   3.358 -0.0055  0.4311 -0.8962
  748TIP3    H123735   1.310   1.326   3.262 -0.7577  0.4055 -0.8549
  748TIP3    H223736   1.272   1.243   3.383 -0.7338  0.9449 -0.4735
  749TIP3   OH223737   2.057   5.348   2.469 -0.2370  0.0075  0.0840
  749TIP3    H123738   2.052   5.257   2.439  1.8753 -0.1812  0.0954
  749TIP3    H223739   1.970   5.367   2.504 -1.1335 -1.5498 -1.1675
  750TIP3   OH223740   0.476   3.925  10.530  0.3086  0.3651  0.5152
  750TIP3    H123741   0.511   4.013  10.545 -0.0745  0.2310  2.4449
  750TIP3    H223742   0.401   3.938  10.472  1.3741  1.0620 -0.7606
  751TIP3   OH223743   3.166   0.830  13.250  0.1593 -0.3195  0.4257
  751TIP3    H123744   3.250   0.791  13.225 -0.0751 -1.1703  0.9388
  751TIP3    H223745   3.102   0.786  13.194  0.1036  0.7468 -0.3829
  752TIP3   OH223746   1.548   0.977  12.191  0.2219 -0.3097  0.1833
  752TIP3    H123747   1.585   1.022  12.114  0.4460 -0.9824 -0.1099
  752TIP3    H223748   1.472   0.931  12.157 -0.6280  0.6893  0.6948
  753TIP3   OH223749   4.416   2.926  10.598  0.4301 -0.2548 -0.4363
  753TIP3    H123750   4.441   2.833  10.601  2.2526  0.1576 -1.3062
  753TIP3    H223751   4.424   2.956  10.689  0.1528 -0.8521 -0.2068
  754TIP3   OH223752   3.417   0.280  16.944  0.5532 -0.5805  0.2726
  754TIP3    H123753   3.356   0.328  17.000 -1.8960 -1.9150 -1.0385
  754TIP3    H223754   3.461   0.219  17.002 -0.0156 -0.1656  1.1575
  755TIP3   OH223755   1.943   5.615  15.147  0.1074  0.1936 -0.4229
  755TIP3    H123756   1.927   5.534  15.194  1.5782  0.5924  0.8573
  755TIP3    H223757   1.911   5.599  15.059  1.0309 -2.0361 -0.4063
  756TIP3   OH223758   5.742   1.482  12.293 -0.1020 -0.2705  0.0123
  756TIP3    H123759   5.650   1.458  12.281 -0.5811  1.0105  0.9580
  756TIP3    H223760   5.747   1.514  12.383  1.2208 -0.0511 -0.1207
  757TIP3   OH223761   1.259   5.699   2.631 -0.1853  0.0292 -0.2648
  757TIP3    H123762   1.229   5.776   2.680 -1.6331 -0.2960 -0.5897
  757TIP3    H223763   1.199   5.630   2.657  1.4137 -1.1742  0.4350
  758TIP3   OH223764   1.260   4.527  15.597 -0.3225  0.0502 -0.0722
  758TIP3    H123765   1.223   4.604  15.641 -1.6987 -0.6658  0.1011
  758TIP3    H223766   1.354   4.542  15.596 -0.3532  0.6986  1.9858
  759TIP3   OH223767   2.537   0.532  12.507  0.1189 -0.0277  0.6544
  759TIP3    H123768   2.566   0.448  12.472  1.9074 -0.0544  2.0701
  759TIP3    H223769   2.459   0.511  12.558  0.7206 -0.8870  1.2379
  760TIP3   OH223770   0.629   3.520   3.824  0.6062 -0.9893 -0.6170
  760TIP3    H123771   0.717   3.484   3.824  0.5502 -1.2513  1.2708
  760TIP3    H223772   0.582   3.468   3.891 -0.3255  0.5926  0.0196
  761TIP3   OH223773   0.128   3.509  13.149  0.1346 -0.3682 -0.0281
  761TIP3    H123774   0.155   3.417  13.143  0.1397 -0.2943 -2.3228
  761TIP3    H223775   0.034   3.507  13.134  0.3785  0.0690 -1.9500
  762TIP3   OH223776   3.302   0.212  11.331 -0.4268  0.0839 -0.6526
  762TIP3    H123777   3.350   0.133  11.307 -0.3254 -0.2120  0.4624
  762TIP3    H223778   3.212   0.182  11.343  0.3091 -1.0458  4.5360
  763TIP3   OH223779   3.362   0.894  13.949  0.2535  0.3210  0.1397
  763TIP3    H123780   3.365   0.848  13.866 -0.8785 -1.0170  0.8022
  763TIP3    H223781   3.275   0.934  13.951  1.3849  3.1178 -0.6842
  764TIP3   OH223782   2.764   5.971   1.513  0.0504  0.0023  0.6699
  764TIP3    H123783   2.683   5.923   1.499  0.8197 -1.0999 -0.2133
  764TIP3    H223784   2.737   6.063   1.522 -1.3476 -0.4503  1.2804
  765TIP3   OH223785   4.306   1.691   1.186  0.3220  0.0137 -0.5884
  765TIP3    H123786   4.243   1.713   1.117  2.1038 -0.6017 -2.4785
  765TIP3    H223787   4.369   1.763   1.184  0.4289 -0.0400  0.4088
  766TIP3   OH223788   1.599   5.128  12.955 -0.1162 -0.1843 -0.2020
  766TIP3    H123789   1.561   5.081  13.030 -0.7804  0.2601 -0.2517
  766TIP3    H223790   1.582   5.220  12.974 -0.8800 -0.1077 -1.2156
  767TIP3   OH223791   0.689   3.893   4.552  0.5061  0.3954  0.2806
  767TIP3    H123792   0.632   3.830   4.509  1.1288  0.1402 -0.2041
  767TIP3    H223793   0.654   3.903   4.640 -0.0254 -0.0696  0.1237
  768TIP3   OH223794   4.629   2.679  11.444  0.6203 -0.2049  0.1099
  768TIP3    H123795   4.595   2.590  11.431  0.6275  0.0909 -2.4262
  768TIP3    H223796   4.552   2.735  11.437  0.9346  0.1382 -0.6499
  769TIP3   OH223797   5.441   6.624  10.558 -0.4821 -0.2218 -0.0428
  769TIP3    H123798   5.402   6.537  10.547 -0.6463 -0.1879  0.2571
  769TIP3    H223799   5.398   6.678  10.492  2.3987 -1.2304 -2.9637
  770TIP3   OH223800   6.216   6.230   6.590  0.3104  0.2841 -0.0443
  770TIP3    H123801   6.230   6.300   6.526 -2.2688  0.6022 -0.3819
  770TIP3    H223802   6.121   6.220   6.594  0.4450 -0.7784  2.6652
  771TIP3   OH223803   6.700   4.323  15.260 -0.2394 -0.3342  0.0217
  771TIP3    H123804   6.776   4.369  15.296 -0.1644 -0.8164  0.4994
  771TIP3    H223805   6.650   4.390  15.214  0.4370  0.0049 -0.2262
  772TIP3   OH223806   4.053   2.538  11.029 -0.3501  0.2384 -0.1489
  772TIP3    H123807   3.977   2.564  10.977  0.2378 -0.3848 -1.3763
  772TIP3    H223808   4.125   2.591  10.994  0.4957 -1.6717 -1.4962
  773TIP3   OH223809   5.356   5.018   5.193 -0.1183  0.5684 -0.2067
  773TIP3    H123810   5.379   4.925   5.199 -1.6537  0.2386  1.9789
  773TIP3    H223811   5.438   5.061   5.169  0.3675 -1.4243 -2.4795
  774TIP3   OH223812   2.085   2.588  13.952  0.6944  0.0073 -0.0378
  774TIP3    H123813   2.058   2.501  13.981  2.0722 -1.4040 -2.6185
  774TIP3    H223814   2.173   2.598  13.989  0.5201  0.3459  0.2908
  775TIP3   OH223815   0.178   2.479  15.543 -0.4067  0.4102 -0.1977
  775TIP3    H123816   0.233   2.425  15.486 -0.4272  0.2250 -0.0471
  775TIP3    H223817   0.090   2.444  15.531 -0.1486 -0.9510  1.4004
  776TIP3   OH223818   5.785   2.952   1.630  0.3172  0.5420 -0.5212
  776TIP3    H123819   5.853   2.983   1.690 -1.4495 -0.5095  2.2748
  776TIP3    H223820   5.722   3.023   1.626 -0.5443 -0.1180  0.5890
  777TIP3   OH223821   6.520   5.666   0.255  0.3685  0.6230  0.5772
  777TIP3    H123822   6.437   5.698   0.289 -0.1490 -0.7117  0.5957
  777TIP3    H223823   6.513   5.571   0.258  0.9973  0.4545 -1.5667
  778TIP3   OH223824   1.539   5.320   0.157 -0.4763 -0.3266  0.2954
  778TIP3    H123825   1.561   5.227   0.150 -0.7230 -0.4720  1.2149
  778TIP3    H223826   1.598   5.354   0.224  0.7892  0.5968 -1.2239
  779TIP3   OH223827   2.936   1.591  14.287 -0.4490  0.8453  0.3557
  779TIP3    H123828   2.934   1.641  14.205  1.5176  1.8867  0.8751
  779TIP3    H223829   2.863   1.529  14.280  0.5584 -0.1433 -2.8367
  780TIP3   OH223830   0.486   1.077  12.345 -0.2769 -0.7318 -0.5457
  780TIP3    H123831   0.509   1.142  12.279 -1.2562 -0.0352 -0.2301
  780TIP3    H223832   0.524   0.995  12.313 -0.2112 -0.2839 -1.6574
  781TIP3   OH223833   2.802   4.588   6.128 -0.3258 -0.8111 -0.2376
  781TIP3    H123834   2.826   4.518   6.067 -1.1384 -0.6478 -0.7615
  781TIP3    H223835   2.863   4.577   6.201 -1.2899 -2.9371  0.3459
  782TIP3   OH223836   5.688   3.431  17.001  0.1040 -0.0867 -0.2536
  782TIP3    H123837   5.648   3.507  17.042  3.0676  0.5466  1.7463
  782TIP3    H223838   5.727   3.466  16.921 -4.0789 -0.9757 -3.0409
  783TIP3   OH223839   5.614   2.875   2.365 -0.1649  0.0707 -0.3807
  783TIP3    H123840   5.574   2.903   2.283  1.8026  1.7073 -0.8663
  783TIP3    H223841   5.589   2.943   2.428 -1.5822 -1.1255  0.4097
  784TIP3   OH223842   0.267   1.012  13.292  0.3107 -0.1540  0.4032
  784TIP3    H123843   0.353   1.041  13.260 -0.3324  0.5011 -0.8200
  784TIP3    H223844   0.223   0.980  13.214  0.2669 -2.7006  1.3994
  785TIP3   OH223845   0.711   1.015  10.634  0.4508  0.0569 -0.2234
  785TIP3    H123846   0.736   0.923  10.645  0.9372  0.2234  0.0962
  785TIP3    H223847   0.728   1.035  10.542 -0.3091 -0.3590 -0.4693
  786TIP3   OH223848   2.057   4.969   3.450  0.7927  0.0435 -0.2236
  786TIP3    H123849   2.119   5.004   3.514  0.2659  0.4782  0.0512
  786TIP3    H223850   1.974   4.966   3.496  0.1691  1.3759 -1.1926
  787TIP3   OH223851   3.648   0.137  12.964  0.0480  0.8299 -0.0651
  787TIP3    H123852   3.655   0.181  13.049  0.6454  0.8864 -0.1420
  787TIP3    H223853   3.554   0.123  12.952 -0.0070  0.3726  0.8319
  788TIP3   OH223854   0.323   0.162  14.339 -0.6134 -0.2064  0.2652
  788TIP3    H123855   0.358   0.125  14.420  0.1387 -1.5074 -0.6149
  788TIP3    H223856   0.395   0.211  14.301 -1.4623  1.8736  1.1752
  789TIP3   OH223857   0.261   4.171  17.121  0.5190 -0.2530  0.1456
  789TIP3    H123858   0.211   4.116  17.061  0.2267  0.0592  0.1006
  789TIP3    H223859   0.284   4.248  17.069 -0.5274  0.4486  0.6859
  790TIP3   OH223860   0.855   1.768   1.213  0.6621  0.3271  0.2330
  790TIP3    H123861   0.895   1.704   1.154  0.2065  0.3678 -0.1330
  790TIP3    H223862   0.768   1.783   1.176  0.9724  1.6242 -0.0499
  791TIP3   OH223863   4.327   0.187  15.625 -0.2343  0.8642  0.3329
  791TIP3    H123864   4.365   0.114  15.674 -1.0729 -0.4493 -0.8939
  791TIP3    H223865   4.341   0.264  15.681  2.6783  0.1900  0.6686
  792TIP3   OH223866   0.279   1.879   4.333  0.6932  0.3229 -0.3550
  792TIP3    H123867   0.221   1.954   4.348  0.7287  0.2427  0.1802
  792TIP3    H223868   0.230   1.804   4.364  1.7421  0.4443  1.7750
  793TIP3   OH223869   6.553   0.564  12.213  0.2192  0.0541 -0.4968
  793TIP3    H123870   6.547   0.602  12.126  0.3031 -0.0541 -0.5505
  793TIP3    H223871   6.463   0.566  12.246  0.2440  0.3957 -0.4551
  794TIP3   OH223872   6.620   6.294   0.107 -0.3137  0.4160  0.0026
  794TIP3    H123873   6.692   6.235   0.129 -1.1344 -0.7366 -0.3119
  794TIP3    H223874   6.542   6.251   0.142 -0.8861  1.5959  0.2632
  795TIP3   OH223875   0.911   5.515   1.473 -0.1769  0.0546 -0.0269
  795TIP3    H123876   0.964   5.448   1.430 -0.2400 -0.0932  0.1249
  795TIP3    H223877   0.860   5.467   1.538  1.7004  0.5989  1.9273
  796TIP3   OH223878   0.957   3.940   1.044 -0.6071 -0.1965  0.4381
  796TIP3    H123879   0.875   3.890   1.050 -0.9331  0.3508  0.6272
  796TIP3    H223880   0.935   4.026   1.078 -0.4051  0.5226 -1.1903
  797TIP3   OH223881   4.185   4.308   2.352  0.0266 -0.5845  0.2792
  797TIP3    H123882   4.129   4.351   2.416 -0.7909 -0.2539 -0.6457
  797TIP3    H223883   4.194   4.218   2.384  0.4311 -0.1746  1.3632
  798TIP3   OH223884   3.966   5.376  15.539 -0.5122  0.6648 -0.5710
  798TIP3    H123885   4.023   5.311  15.499 -1.0115  0.0945 -0.3683
  798TIP3    H223886   4.025   5.446  15.568  0.3982 -0.8694  1.5920
  799TIP3   OH223887   3.124   2.191  15.015  0.2329  0.3208  0.3405
  799TIP3    H123888   3.065   2.266  15.025  0.4920  0.5898 -0.1142
  799TIP3    H223889   3.138   2.185  14.920  0.1803 -0.3310  0.3735
  800TIP3   OH223890   4.065   2.726  16.014  0.3034 -0.3751  0.2479
  800TIP3    H123891   3.975   2.705  16.040 -0.4822 -0.3074 -2.1642
  800TIP3    H223892   4.061   2.815  15.982  0.7570 -1.0152 -1.7179
  801TIP3   OH223893   5.373   0.601   0.545  0.2938  0.2189  0.0335
  801TIP3    H123894   5.396   0.623   0.635  0.3109 -1.4448  0.4563
  801TIP3    H223895   5.290   0.554   0.551  0.2815  0.1029 -0.8220
  802TIP3   OH223896   0.915   5.927   1.836 -0.1730 -0.3491  0.5606
  802TIP3    H123897   1.010   5.933   1.839 -0.1380 -0.5769  0.0226
  802TIP3    H223898   0.888   6.005   1.786 -0.0595 -1.7269 -1.8316
  803TIP3   OH223899   3.302   4.831   5.255  0.0262  0.0194 -0.1271
  803TIP3    H123900   3.298   4.737   5.235 -0.6620 -0.1893  0.9016
  803TIP3    H223901   3.232   4.845   5.319  0.5574  1.1061  0.2460
  804TIP3   OH223902   4.840   5.373  14.175 -0.2780  0.2431 -0.7642
  804TIP3    H123903   4.799   5.370  14.088 -0.2631  1.4342 -0.8329
  804TIP3    H223904   4.912   5.436  14.165  0.5917 -0.6256 -0.2286
  805TIP3   OH223905   2.270   0.464  13.859  0.2203 -0.6051 -0.0956
  805TIP3    H123906   2.333   0.458  13.930  0.2866 -0.8000 -0.1707
  805TIP3    H223907   2.294   0.394  13.799  0.3435 -0.2565 -0.4576
  806TIP3   OH223908   5.782   5.656   4.189  0.1219  0.1329 -0.2206
  806TIP3    H123909   5.781   5.637   4.095  1.1719 -0.1076 -0.1970
  806TIP3    H223910   5.739   5.580   4.229 -1.1473  0.6511 -0.5547
  807TIP3   OH223911   2.495   1.053   1.354  0.3959 -0.1075  0.7146
  807TIP3    H123912   2.575   1.100   1.378  0.5004 -0.3316  0.8146
  807TIP3    H223913   2.451   1.036   1.438 -1.7728  3.4346  0.5127
  808TIP3   OH223914   1.456   6.096   4.803 -0.2066 -0.2923 -0.0556
  808TIP3    H123915   1.477   6.173   4.751 -0.8228  0.2974  0.5514
  808TIP3    H223916   1.499   6.024   4.757 -2.0028 -0.0567 -2.3110
  809TIP3   OH223917   2.648   1.124  15.079 -0.0005  0.1489 -0.3146
  809TIP3    H123918   2.658   1.105  15.172  1.2291  0.5110 -0.3452
  809TIP3    H223919   2.583   1.194  15.076 -0.3825 -0.1748  0.2309
  810TIP3   OH223920   4.348   3.391   1.168 -0.4870 -0.2714 -0.4603
  810TIP3    H123921   4.319   3.383   1.077 -2.5667  2.6645 -0.1954
  810TIP3    H223922   4.406   3.468   1.167 -1.0405  0.1747  0.7789
  811TIP3   OH223923   4.062   4.110  14.867 -0.3809  0.3210 -0.4511
  811TIP3    H123924   4.125   4.047  14.903  2.3661  2.2976 -1.4960
  811TIP3    H223925   4.090   4.195  14.901 -2.0490  1.3998 -1.6023
  812TIP3   OH223926   1.727   5.898   1.299  0.0173  0.6251 -0.1712
  812TIP3    H123927   1.748   5.833   1.232 -0.2513 -0.5034  0.8091
  812TIP3    H223928   1.733   5.982   1.254 -0.1837 -0.1067 -1.6119
  813TIP3   OH223929   1.987   3.169   4.459  0.3556 -0.4678  0.1001
  813TIP3    H123930   2.027   3.097   4.409  1.4847  0.9994 -1.2165
  813TIP3    H223931   2.012   3.151   4.550 -2.5344 -3.7287  0.4652
  814TIP3   OH223932   1.461   2.683   6.185  0.7148 -0.5253 -0.0655
  814TIP3    H123933   1.516   2.669   6.108 -1.9327  0.7806 -2.4056
  814TIP3    H223934   1.488   2.768   6.219  0.3712 -0.0157 -1.0297
  815TIP3   OH223935   1.124   0.102   2.638 -0.2427  0.3443  0.5437
  815TIP3    H123936   1.133   0.089   2.733 -1.4325  0.0823  0.6423
  815TIP3    H223937   1.142   0.195   2.625  1.1486  0.1314  0.8458
  816TIP3   OH223938   1.500   6.780   4.421  0.4653  0.1069  0.2737
  816TIP3    H123939   1.562   6.810   4.354  1.6908  0.0777  1.3473
  816TIP3    H223940   1.462   6.700   4.384  0.9201  0.2341 -0.4926
  817TIP3   OH223941   4.816   2.782  15.905 -0.0506  0.1280  0.2017
  817TIP3    H123942   4.828   2.690  15.928  0.6243  0.0695 -0.3689
  817TIP3    H223943   4.808   2.827  15.989  0.6853 -0.3103  0.5104
  818TIP3   OH223944   2.508   2.253   0.308 -0.3631  0.3947 -0.4703
  818TIP3    H123945   2.538   2.288   0.224  1.3710  1.8018  0.6582
  818TIP3    H223946   2.427   2.300   0.326 -0.4455  0.4950 -1.0733
  819TIP3   OH223947   4.930   0.807  16.716 -0.1515 -0.3450  0.1831
  819TIP3    H123948   4.921   0.788  16.623 -1.3070 -2.5861  0.6513
  819TIP3    H223949   4.840   0.817  16.747  0.2843  3.0657  0.6644
  820TIP3   OH223950   4.272   3.681  13.446  0.1712 -0.1239  0.3068
  820TIP3    H123951   4.324   3.613  13.402 -1.9723 -1.0966 -0.9408
  820TIP3    H223952   4.222   3.722  13.375 -1.5743 -0.0209  1.5254
  821TIP3   OH223953   3.008   6.255   1.772  0.3342 -0.6370  0.1507
  821TIP3    H123954   2.924   6.301   1.769  1.0223  0.6365 -0.2778
  821TIP3    H223955   3.007   6.198   1.695  0.0429 -0.3082 -0.0884
  822TIP3   OH223956   2.635   3.981  15.455 -0.3022 -0.7026 -0.2835
  822TIP3    H123957   2.645   4.063  15.407  0.1939 -0.8433 -0.4309
  822TIP3    H223958   2.546   3.984  15.489 -0.8623 -0.8687 -1.6974
  823TIP3   OH223959   0.830   5.995   0.826  0.6494  0.2716  0.1812
  823TIP3    H123960   0.838   5.929   0.894  1.2022 -1.5108 -1.5118
  823TIP3    H223961   0.754   5.966   0.774  1.9833 -0.1458 -1.6522
  824TIP3   OH223962   1.421   6.405   5.132  0.0685  0.0278  0.5315
  824TIP3    H123963   1.508   6.369   5.116 -1.0953 -3.0993  0.3766
  824TIP3    H223964   1.432   6.464   5.207  2.1967 -0.8900  1.0218
  825TIP3   OH223965   5.553   5.821  14.598 -0.1097  1.1328  0.2876
  825TIP3    H123966   5.620   5.812  14.530  0.2303  0.4107  0.7138
  825TIP3    H223967   5.474   5.785  14.558  0.1752  0.3749  0.3926
  826TIP3   OH223968   0.423   0.560  12.093 -0.4542 -0.2257  0.7978
  826TIP3    H123969   0.372   0.637  12.121  0.2730  0.1465  1.1484
  826TIP3    H223970   0.358   0.496  12.067 -1.1157  0.1271  1.5285
  827TIP3   OH223971   4.872   3.324   1.831  0.2609  0.2651 -0.0154
  827TIP3    H123972   4.832   3.237   1.835  0.7189  0.0496  0.0677
  827TIP3    H223973   4.801   3.383   1.809 -0.0270 -0.1569 -0.2352
  828TIP3   OH223974   1.384   3.425   5.166  0.5710 -0.6821  0.4272
  828TIP3    H123975   1.377   3.330   5.161 -0.8318 -0.5489 -0.5400
  828TIP3    H223976   1.294   3.457   5.156  1.2140  0.8021 -1.2429
  829TIP3   OH223977   1.211   6.306  16.671 -0.2355  0.3804 -0.1324
  829TIP3    H123978   1.212   6.233  16.733 -0.6456  0.6094  0.1537
  829TIP3    H223979   1.161   6.374  16.716 -0.4601  0.5838 -0.6798
  830TIP3   OH223980   6.816   2.719  14.559  0.0279 -0.2412  0.2442
  830TIP3    H123981   6.794   2.681  14.473  0.4667  0.1507 -0.0424
  830TIP3    H223982   6.878   2.657  14.597  1.9730  0.9029 -0.8790
  831TIP3   OH223983   6.603   4.449   1.739  0.3144  0.2754  1.1548
  831TIP3    H123984   6.590   4.458   1.834  0.6967 -0.9414  1.3351
  831TIP3    H223985   6.525   4.402   1.709  1.3029 -1.5016  1.2652
  832TIP3   OH223986   5.961   3.646  11.689 -0.3542  0.2297 -0.2333
  832TIP3    H123987   6.054   3.627  11.674 -0.0993  1.5399 -0.4494
  832TIP3    H223988   5.957   3.741  11.696 -1.5892  0.1478  0.4959
  833TIP3   OH223989   3.120   0.811  14.574  0.0058 -0.3195 -0.0191
  833TIP3    H123990   3.142   0.810  14.481 -2.4491 -0.2381 -0.6800
  833TIP3    H223991   3.147   0.725  14.607 -1.0766 -1.2183 -1.3738
  834TIP3   OH223992   5.938   2.402  10.593  0.4733  0.0373  0.1274
  834TIP3    H123993   6.015   2.345  10.594 -0.4914 -1.3237  1.2189
  834TIP3    H223994   5.888   2.373  10.516  0.2816 -0.1812  0.3323
  835TIP3   OH223995   2.774   1.728   4.173  0.2546  0.2223  0.3501
  835TIP3    H123996   2.689   1.730   4.129 -0.1639  0.9159  1.1710
  835TIP3    H223997   2.776   1.642   4.216  1.0580 -0.8758 -1.7041
  836TIP3   OH223998   4.759   1.474  11.939 -0.5507 -0.6249 -0.4016
  836TIP3    H123999   4.710   1.422  12.003 -0.5729 -1.1392 -0.8312
  836TIP3    H224000   4.705   1.551  11.925 -0.8496 -0.8067 -0.2636
  837TIP3   OH224001   5.296   6.299   3.273  0.0998 -0.2062  0.1940
  837TIP3    H124002   5.366   6.290   3.338  0.5115 -2.2221 -0.4309
  837TIP3    H224003   5.244   6.219   3.283 -0.9262  0.3130 -0.7187
  838TIP3   OH224004   6.521   0.250  11.645  0.6588 -0.3102  0.0768
  838TIP3    H124005   6.436   0.261  11.687  0.8221 -2.6247  1.1873
  838TIP3    H224006   6.504   0.266  11.552 -1.3500 -2.0548  0.0702
  839TIP3   OH224007   2.176   6.377   3.410  0.1100  0.1906 -0.8570
  839TIP3    H124008   2.137   6.418   3.332  0.3192  0.3176 -0.8977
  839TIP3    H224009   2.254   6.333   3.377 -0.4103 -0.7200 -0.9047
  840TIP3   OH224010   0.933   2.871  13.920  0.0339  0.4492 -0.1307
  840TIP3    H124011   0.995   2.943  13.917  0.5524  0.0144 -0.0874
  840TIP3    H224012   0.943   2.835  14.009 -0.1039  0.2297 -0.2031
  841TIP3   OH224013   1.345   2.585  13.136  0.0662  0.7147 -0.2044
  841TIP3    H124014   1.396   2.536  13.200  0.1628  1.3238  0.1946
  841TIP3    H224015   1.393   2.575  13.054  0.1681  0.2799 -0.0918
  842TIP3   OH224016   4.334   4.534   1.459  0.4759 -0.2689 -0.6903
  842TIP3    H124017   4.335   4.439   1.452 -1.0095 -0.4211  0.7386
  842TIP3    H224018   4.272   4.563   1.392  1.4721 -0.2152 -1.6245
  843TIP3   OH224019   2.268   2.513  11.330 -0.7133  0.3425  0.1378
  843TIP3    H124020   2.186   2.538  11.372  0.4829  1.5286  1.8774
  843TIP3    H224021   2.299   2.593  11.287 -0.7080 -0.2325 -0.9757
  844TIP3   OH224022   1.003   6.825  16.254 -0.1854  0.2344  0.0638
  844TIP3    H124023   1.090   6.790  16.275  0.1841  1.0531 -0.0930
  844TIP3    H224024   1.019   6.911  16.217 -0.8768 -0.6761 -2.6052
  845TIP3   OH224025   6.343   3.592  12.166  0.4547  0.3732 -0.1155
  845TIP3    H124026   6.292   3.510  12.166  0.3544  0.3371 -2.6657
  845TIP3    H224027   6.434   3.564  12.173  0.3784  0.0879 -0.2452
  846TIP3   OH224028   5.533   5.907   1.389  0.2635  0.2035  0.6881
  846TIP3    H124029   5.595   5.836   1.406  0.4085 -0.4160 -1.9920
  846TIP3    H224030   5.568   5.982   1.439  2.6894 -0.3769  0.0148
  847TIP3   OH224031   5.428   3.405   2.743 -0.1669  0.2340 -0.0877
  847TIP3    H124032   5.339   3.411   2.709 -0.0717  1.5187 -0.1558
  847TIP3    H224033   5.484   3.415   2.666  0.0391  0.5794  0.1042
  848TIP3   OH224034   2.883   6.767   4.294  0.6465 -0.1642 -0.5610
  848TIP3    H124035   2.956   6.764   4.355 -0.4926 -0.5480  0.8215
  848TIP3    H224036   2.860   6.676   4.279  0.5817 -0.0555 -1.1653
  849TIP3   OH224037   3.440   3.568  14.503 -0.1326 -0.0696  0.2674
  849TIP3    H124038   3.407   3.478  14.493 -0.3779  0.0454  0.0456
  849TIP3    H224039   3.530   3.556  14.534 -0.4706 -0.3789  1.1628
  850TIP3   OH224040   1.834   3.503  15.287  0.2712 -0.2572 -0.0982
  850TIP3    H124041   1.755   3.556  15.279 -0.3517 -1.1888 -0.2441
  850TIP3    H224042   1.896   3.542  15.225  0.4398  1.3353  1.0044
  851TIP3   OH224043   4.316   1.589  15.616 -0.5113 -0.3268 -0.2356
  851TIP3    H124044   4.259   1.553  15.548 -1.2576  1.2667 -0.4819
  851TIP3    H224045   4.296   1.682  15.618  0.4229 -0.1238  1.3032
  852TIP3   OH224046   3.425   5.834   6.688 -0.3617  0.0389 -0.0145
  852TIP3    H124047   3.411   5.927   6.706  1.0226  1.2838 -4.0960
  852TIP3    H224048   3.354   5.810   6.629  0.1422 -1.0460 -0.2109
  853TIP3   OH224049   5.560   0.158  11.813 -0.0688 -0.3334 -0.2009
  853TIP3    H124050   5.496   0.184  11.880  0.6339 -1.1845  0.8389
  853TIP3    H224051   5.603   0.081  11.850  2.6002  1.0572 -0.1684
  854TIP3   OH224052   6.104   1.287  17.081  0.3720 -0.1326  0.0675
  854TIP3    H124053   6.087   1.360  17.140 -0.1357 -1.1250  1.2001
  854TIP3    H224054   6.059   1.310  17.000  0.8491  1.1313  0.1428
  855TIP3   OH224055   5.047   0.405  14.340  0.0022 -0.2534 -0.5340
  855TIP3    H124056   5.093   0.335  14.293  1.7896  0.7045 -0.2938
  855TIP3    H224057   5.013   0.462  14.271 -0.7997 -0.9046 -0.7070
  856TIP3   OH224058   0.845   0.194   0.200 -0.3637 -0.1968 -0.0168
  856TIP3    H124059   0.893   0.274   0.222 -1.8096  0.7368 -0.1209
  856TIP3    H224060   0.907   0.142   0.149  0.8292  0.5458  0.6267
  857TIP3   OH224061   4.067   5.625  14.883 -0.4312  0.5985  0.2291
  857TIP3    H124062   3.989   5.587  14.843  0.9861  0.2217 -2.3828
  857TIP3    H224063   4.091   5.562  14.951 -1.1011 -0.4742 -0.4822
  858TIP3   OH224064   5.183   5.273  14.234 -0.2352  0.3419  0.8194
  858TIP3    H124065   5.264   5.258  14.283  0.3789 -1.3679 -0.6132
  858TIP3    H224066   5.206   5.341  14.171  0.2917 -0.5263  0.0460
  859TIP3   OH224067   5.190   4.383  13.466  0.1158 -0.2498  0.1569
  859TIP3    H124068   5.246   4.423  13.398  2.5701 -1.9988  1.0114
  859TIP3    H224069   5.217   4.427  13.547  0.6372 -1.4149  0.6417
  860TIP3   OH224070   4.854   4.596  10.782  0.1912  0.7657 -0.0127
  860TIP3    H124071   4.879   4.685  10.807 -0.0540  0.7079  0.4440
  860TIP3    H224072   4.772   4.607  10.734  0.1706  0.7884  0.0276
  861TIP3   OH224073   5.032   5.293   1.003 -0.5052 -0.4885 -0.2540
  861TIP3    H124074   4.983   5.373   0.982 -1.8750 -1.1622  0.2813
  861TIP3    H224075   5.017   5.236   0.928  3.0807  0.7972 -2.2157
  862TIP3   OH224076   1.949   5.472   3.571  1.0421 -0.3104 -0.1788
  862TIP3    H124077   1.951   5.485   3.666  0.7425  0.4889 -0.2731
  862TIP3    H224078   2.034   5.434   3.550  1.6921  0.8501  0.2327
  863TIP3   OH224079   5.036   0.910  11.811  0.5724 -0.0539 -0.2116
  863TIP3    H124080   5.012   0.818  11.809  1.6881 -0.5411  3.0605
  863TIP3    H224081   5.126   0.912  11.777  0.0959  0.0749 -1.5242
  864TIP3   OH224082   2.608   6.611   4.832 -1.0297  0.1164  0.1395
  864TIP3    H124083   2.668   6.555   4.881 -2.7641 -1.1968  0.8781
  864TIP3    H224084   2.521   6.575   4.851 -1.9253  0.6150 -2.5364
  865TIP3   OH224085   2.661   4.508  13.915  0.6304  0.1824  0.3710
  865TIP3    H124086   2.665   4.419  13.881  1.8973 -0.6300  2.4175
  865TIP3    H224087   2.726   4.509  13.985  0.4023  2.6357  0.6153
  866TIP3   OH224088   5.461   0.883   1.350  0.2799 -1.0804 -0.3085
  866TIP3    H124089   5.437   0.976   1.357 -3.2400 -1.9809  1.5872
  866TIP3    H224090   5.527   0.871   1.418  0.3425 -0.0949 -0.1805
  867TIP3   OH224091   0.497   2.244   2.151 -0.6031  0.6556  0.1420
  867TIP3    H124092   0.587   2.225   2.126 -1.3152 -1.0094 -1.3559
  867TIP3    H224093   0.495   2.229   2.245  0.4359 -0.3810  0.0231
  868TIP3   OH224094   0.443   1.725   2.720  0.4493 -0.7273  0.8763
  868TIP3    H124095   0.358   1.769   2.709  1.1696  0.5302  0.1226
  868TIP3    H224096   0.421   1.631   2.717 -1.0156 -0.4414  1.6426
  869TIP3   OH224097   6.562   3.989  12.128  0.0714 -0.4937 -0.3993
  869TIP3    H124098   6.635   4.020  12.181  0.2414 -1.1506 -0.2340
  869TIP3    H224099   6.587   4.009  12.038  0.7463 -1.2520 -0.4004
  870TIP3   OH224100   0.447   2.627   5.089  0.1221  0.4890 -0.7624
  870TIP3    H124101   0.487   2.546   5.059 -1.0831 -0.1065 -0.8238
  870TIP3    H224102   0.504   2.658   5.159  1.2338  0.2170 -1.5314
  871TIP3   OH224103   5.418   4.837  12.141 -0.8117 -0.2374 -0.6243
  871TIP3    H124104   5.337   4.798  12.108  0.1295 -3.2745  0.2493
  871TIP3    H224105   5.487   4.780  12.107  0.6815  0.4519  1.1085
  872TIP3   OH224106   3.142   2.409   2.039 -0.0253 -0.8472  0.0250
  872TIP3    H124107   3.070   2.462   2.005 -0.3165 -1.5285 -0.4548
  872TIP3    H224108   3.137   2.420   2.134  0.2907  0.4388 -0.0946
  873TIP3   OH224109   6.591   3.320   1.512 -0.1634  0.0205  0.0436
  873TIP3    H124110   6.686   3.329   1.515 -0.1618  0.0106  0.0242
  873TIP3    H224111   6.574   3.269   1.432 -0.2033  0.2667 -0.1046
  874TIP3   OH224112   4.629   1.092  12.999  0.4137 -0.0066 -0.1898
  874TIP3    H124113   4.690   1.068  13.069  0.0953  1.4075  0.5991
  874TIP3    H224114   4.566   1.151  13.040 -1.0257 -0.7734 -1.1885
  875TIP3   OH224115   0.468   6.245  14.185  0.1331 -0.2629 -0.0105
  875TIP3    H124116   0.512   6.285  14.260 -0.6100 -1.4967  1.1403
  875TIP3    H224117   0.482   6.306  14.113  1.5759  0.5674  0.9285
  876TIP3   OH224118   1.922   6.389   2.540 -0.2345  0.2812  0.4704
  876TIP3    H124119   1.853   6.438   2.495  1.2144  0.2494 -1.9713
  876TIP3    H224120   1.986   6.455   2.564  0.5623 -0.0812 -0.5895
  877TIP3   OH224121   1.479   1.416  13.347  0.1547  0.7906  0.1428
  877TIP3    H124122   1.441   1.335  13.315  0.9488 -0.0300  1.2060
  877TIP3    H224123   1.532   1.390  13.423 -0.6734  2.4620  1.3771
  878TIP3   OH224124   4.894   3.530   1.337 -0.0105  0.6680 -0.3662
  878TIP3    H124125   4.832   3.598   1.310  1.1348  1.8157 -0.1910
  878TIP3    H224126   4.919   3.488   1.255 -0.3941  0.7471 -0.5273
  879TIP3   OH224127   1.124   4.391   3.631  0.0130  0.3154 -0.1823
  879TIP3    H124128   1.143   4.306   3.591 -0.2815  0.0856  0.1610
  879TIP3    H224129   1.122   4.453   3.557  0.3286  0.0426 -0.4191
  880TIP3   OH224130   0.606   1.728  14.528 -0.3054  0.0051 -0.2436
  880TIP3    H124131   0.632   1.734  14.620 -4.1736  1.3870  0.9699
  880TIP3    H224132   0.606   1.819  14.497 -1.1309 -0.2066 -0.9194
  881TIP3   OH224133   5.947   4.879   1.771 -0.0369  0.2111  0.4749
  881TIP3    H124134   5.913   4.920   1.850 -0.6220  0.6776 -0.0086
  881TIP3    H224135   6.012   4.941   1.738  0.6725 -0.2797  0.9303
  882TIP3   OH224136   2.894   1.161   4.808 -0.1618 -0.2240  0.4723
  882TIP3    H124137   2.968   1.120   4.763  0.0060 -0.4435  0.9434
  882TIP3    H224138   2.821   1.152   4.747  0.2066  0.0251 -0.0104
  883TIP3   OH224139   4.749   4.671   5.244  0.3792  0.6870 -0.2613
  883TIP3    H124140   4.753   4.664   5.149  2.2436  0.4669 -0.1948
  883TIP3    H224141   4.719   4.761   5.261 -0.9863  0.4000 -1.0287
  884TIP3   OH224142   4.782   5.477   1.344 -0.1485  0.1495 -0.8670
  884TIP3    H124143   4.799   5.550   1.404 -1.5775  1.0199 -1.4620
  884TIP3    H224144   4.689   5.485   1.322 -0.1475 -1.4067 -1.5628
  885TIP3   OH224145   3.339   3.507  16.759  0.2304  0.2361 -0.0502
  885TIP3    H124146   3.271   3.574  16.769  0.3184  0.3981 -0.5075
  885TIP3    H224147   3.403   3.529  16.827  1.1049  1.6714 -1.2831
  886TIP3   OH224148   4.909   5.424  16.795 -0.1708 -0.5103  0.2373
  886TIP3    H124149   4.976   5.366  16.760 -1.4748 -0.9450 -1.6765
  886TIP3    H224150   4.836   5.417  16.733 -1.3772  1.1585  1.3808
  887TIP3   OH224151   0.218   3.981   0.254 -0.1996 -0.0635 -0.0843
  887TIP3    H124152   0.147   3.923   0.281 -0.2815 -0.2855 -0.7527
  887TIP3    H224153   0.180   4.069   0.259 -0.2627 -0.1134  0.3486
  888TIP3   OH224154   2.771   1.495   4.370  0.3561  0.3413 -0.2459
  888TIP3    H124155   2.800   1.417   4.418  0.4434 -0.0941 -0.9918
  888TIP3    H224156   2.723   1.547   4.435 -0.4443 -0.7379  0.0490
  889TIP3   OH224157   2.197   1.412   2.832 -0.0651  0.4055 -0.1833
  889TIP3    H124158   2.226   1.325   2.805 -0.5633  0.4013 -0.7372
  889TIP3    H224159   2.140   1.441   2.760  1.0388  1.6848 -0.5696
  890TIP3   OH224160   6.180   4.419   2.587  0.4031  0.7365  0.7817
  890TIP3    H124161   6.199   4.504   2.626  1.9942 -0.3660  2.5670
  890TIP3    H224162   6.253   4.363   2.613  0.5181 -0.6685 -2.1195
  891TIP3   OH224163   6.516   2.689   3.830 -0.1770  0.1146 -0.1437
  891TIP3    H124164   6.608   2.712   3.819 -0.4643  1.1088 -0.5228
  891TIP3    H224165   6.506   2.673   3.924  0.0392  1.5764  0.1450
  892TIP3   OH224166   5.744   1.400   5.210  0.0990 -0.7704 -0.2140
  892TIP3    H124167   5.838   1.394   5.225  0.2526 -0.3501 -0.9854
  892TIP3    H224168   5.710   1.439   5.291  0.6938 -0.1315 -0.2601
  893TIP3   OH224169   0.052   3.555  15.821  0.4475 -0.0606 -0.1278
  893TIP3    H124170  -0.012   3.612  15.778  2.5648  0.8894 -2.3060
  893TIP3    H224171   0.047   3.472  15.773 -1.1832 -1.0749  1.6873
  894TIP3   OH224172   6.480   5.113  17.055 -0.3966  0.0441  0.0674
  894TIP3    H124173   6.403   5.131  17.109 -1.9083 -0.4480 -1.7856
  894TIP3    H224174   6.554   5.117  17.115 -1.8223  0.9770  1.8468
  895TIP3   OH224175   0.934   0.564   3.995  0.0281  0.0869  0.5585
  895TIP3    H124176   0.863   0.526   4.046 -1.3694 -0.8463 -1.8849
  895TIP3    H224177   0.995   0.491   3.981  1.1050  0.6786  1.9471
  896TIP3   OH224178   3.174   6.047  11.910  0.7187 -0.3406 -0.1638
  896TIP3    H124179   3.099   6.029  11.967  1.2810 -0.1860  0.6380
  896TIP3    H224180   3.168   6.140  11.891  1.2487 -0.1182  0.7084
  897TIP3   OH224181   6.036   6.802  11.046  0.0837 -0.4057 -0.2436
  897TIP3    H124182   5.970   6.734  11.058 -1.1824  0.8613  0.2423
  897TIP3    H224183   6.010   6.847  10.965  0.8229 -0.3895 -0.4818
  898TIP3   OH224184   2.828   4.533  16.470  0.3900  0.3577 -0.4115
  898TIP3    H124185   2.903   4.498  16.519  0.3369  1.5332  0.5599
  898TIP3    H224186   2.767   4.460  16.465 -0.0263  0.4359  2.1806
  899TIP3   OH224187   3.029   3.876  14.240 -0.1843 -0.5243 -0.1409
  899TIP3    H124188   3.034   3.965  14.206  2.9699 -1.4143 -2.4908
  899TIP3    H224189   2.980   3.828  14.174 -1.2467 -0.6982  0.7607
  900TIP3   OH224190   4.469   4.858  12.333 -0.1328  0.2837  0.0470
  900TIP3    H124191   4.560   4.850  12.363  0.7846  0.2927 -2.5434
  900TIP3    H224192   4.441   4.767  12.319  0.4264  0.3418 -1.6743
  901TIP3   OH224193   3.334   5.971   4.142 -0.5863 -0.2397 -0.2270
  901TIP3    H124194   3.387   5.897   4.112  1.8895  0.7922  1.2846
  901TIP3    H224195   3.293   6.004   4.063  0.3588 -1.6267 -1.3577
  902TIP3   OH224196   5.473   5.344   4.391  0.2675 -0.0820  0.2184
  902TIP3    H124197   5.486   5.291   4.313  1.7753  1.4161 -0.5991
  902TIP3    H224198   5.497   5.286   4.464  1.8981 -0.5349 -0.6473
  903TIP3   OH224199   1.629   3.412  15.108 -0.5372 -0.3216  0.3105
  903TIP3    H124200   1.631   3.447  15.019 -1.5807  1.2789  0.8845
  903TIP3    H224201   1.721   3.410  15.135 -0.2967  0.0651 -0.4510
  904TIP3   OH224202   2.510   2.222   2.167  0.1844  0.3359 -0.4873
  904TIP3    H124203   2.447   2.271   2.113  0.0842 -0.5061 -1.1413
  904TIP3    H224204   2.531   2.145   2.115 -0.0670 -0.5979  0.7596
  905TIP3   OH224205   2.336   3.211   2.187 -0.2086 -0.3207 -0.3336
  905TIP3    H124206   2.295   3.155   2.120  0.6381  0.1410 -1.2688
  905TIP3    H224207   2.423   3.174   2.200 -0.5576 -0.7326  0.9486
  906TIP3   OH224208   3.780   2.156   6.017 -0.0606 -0.3476  0.4863
  906TIP3    H124209   3.748   2.070   6.044 -1.4785  0.0738  0.2236
  906TIP3    H224210   3.732   2.218   6.072  1.3379  0.2783  1.0481
  907TIP3   OH224211   1.851   4.586   0.407  0.8099  0.0996 -0.0239
  907TIP3    H124212   1.800   4.507   0.422  1.0749 -0.1146 -0.2431
  907TIP3    H224213   1.824   4.645   0.477  1.0380 -0.3934  0.4885
  908TIP3   OH224214   6.823   1.574  14.136 -0.5520 -0.5789 -0.6857
  908TIP3    H124215   6.811   1.614  14.222 -0.8707  2.2268 -1.9155
  908TIP3    H224216   6.885   1.503  14.151  1.3629  1.3722  1.5041
  909TIP3   OH224217   5.761   6.299   1.140 -0.0237  0.1578  0.2470
  909TIP3    H124218   5.721   6.270   1.222  0.6822  0.1405  0.5911
  909TIP3    H224219   5.691   6.347   1.095 -1.0155 -1.4518 -0.0195
  910TIP3   OH224220   3.675   1.212  14.309  0.5404 -0.6003 -0.3017
  910TIP3    H124221   3.602   1.156  14.336 -0.6335  0.8776 -0.2704
  910TIP3    H224222   3.738   1.206  14.381 -0.5851 -0.1293  0.7560
  911TIP3   OH224223   4.689   2.262   0.896 -0.5806  0.1037  0.7632
  911TIP3    H124224   4.739   2.180   0.901  1.5446  1.3547  1.0890
  911TIP3    H224225   4.633   2.261   0.974 -0.2120 -0.7929  1.0282
  912TIP3   OH224226   4.340   5.120  10.485  0.8115 -0.1865  0.1081
  912TIP3    H124227   4.316   5.131  10.577 -0.5340  0.0815 -0.2534
  912TIP3    H224228   4.345   5.209  10.451 -0.6104 -0.3239 -0.5217
  913TIP3   OH224229   3.414   5.671  13.053  0.4879 -0.0210  0.0876
  913TIP3    H124230   3.418   5.766  13.047 -0.8774 -0.0306 -1.5671
  913TIP3    H224231   3.347   5.653  13.118  0.7164  0.1332  0.3691
  914TIP3   OH224232   0.348   0.508   3.288  0.3307  0.0837  0.4813
  914TIP3    H124233   0.376   0.583   3.236  0.6920  0.9311  1.8446
  914TIP3    H224234   0.359   0.433   3.229  1.7465  0.8696 -0.3203
  915TIP3   OH224235   1.288   5.956  16.611 -0.3271 -0.5425 -0.2306
  915TIP3    H124236   1.289   6.005  16.693 -2.2150  1.9425 -1.5331
  915TIP3    H224237   1.199   5.920  16.606 -0.5269  0.0827 -1.5517
  916TIP3   OH224238   0.547   2.031  17.061  0.0608 -0.3520  0.6606
  916TIP3    H124239   0.521   1.947  17.024 -0.2932 -0.1963  0.5542
  916TIP3    H224240   0.564   2.012  17.153  1.8391 -0.9319  0.2490
  917TIP3   OH224241   2.150   4.207  14.079  0.4094 -0.3309 -0.4487
  917TIP3    H124242   2.236   4.196  14.038  0.1794  0.8699 -1.3407
  917TIP3    H224243   2.153   4.295  14.117 -0.5884 -0.0709 -0.9368
  918TIP3   OH224244   1.574   6.197   5.493 -0.6394  0.3451  0.5534
  918TIP3    H124245   1.577   6.137   5.568 -2.1235  1.1669  1.3337
  918TIP3    H224246   1.519   6.269   5.524 -1.1209  0.7989 -1.2724
  919TIP3   OH224247   5.356   3.097   4.242  0.1392  0.2354 -0.5025
  919TIP3    H124248   5.262   3.087   4.262 -0.0660  2.6091  0.0362
  919TIP3    H224249   5.400   3.041   4.306 -0.8966 -0.1656 -0.1158
  920TIP3   OH224250   2.415   4.348   2.314 -0.4236 -0.2138 -0.3269
  920TIP3    H124251   2.434   4.260   2.280  1.5980  0.7450 -1.8528
  920TIP3    H224252   2.445   4.345   2.405 -1.8949 -1.5385  0.1684
  921TIP3   OH224253   6.142   2.608   6.125 -0.3472  0.6621 -0.0042
  921TIP3    H124254   6.173   2.618   6.036  1.0922 -2.8346 -0.0723
  921TIP3    H224255   6.075   2.539   6.120  1.0426 -0.9380  1.7481
  922TIP3   OH224256   0.565   0.863   0.566 -0.5112  0.5920  0.3573
  922TIP3    H124257   0.641   0.903   0.609 -0.0384  1.3102 -1.1071
  922TIP3    H224258   0.554   0.779   0.612  0.7168  0.7878  1.0699
  923TIP3   OH224259   6.732   3.657   0.984 -0.0854  0.4980 -0.0690
  923TIP3    H124260   6.688   3.641   1.068  0.0564 -1.1039 -0.2574
  923TIP3    H224261   6.661   3.667   0.921 -0.1871  1.2139  0.1472
  924TIP3   OH224262   2.595   1.200   5.282 -0.5133  0.4817  0.2482
  924TIP3    H124263   2.598   1.295   5.297 -0.1864  0.5051  0.0549
  924TIP3    H224264   2.609   1.190   5.188 -0.7558  0.2498  0.2361
  925TIP3   OH224265   5.678   4.467   3.252 -0.4515 -0.0923 -0.3642
  925TIP3    H124266   5.685   4.377   3.283 -0.3359  0.2044  0.4948
  925TIP3    H224267   5.650   4.459   3.160 -1.0040 -0.9877 -0.1289
  926TIP3   OH224268   5.248   5.028  11.021 -0.0798 -0.1012  0.1129
  926TIP3    H124269   5.316   5.004  10.958 -1.2498 -1.8207 -0.5728
  926TIP3    H224270   5.246   5.124  11.018  0.6914 -0.0912 -1.6076
  927TIP3   OH224271   4.231   0.481  13.306 -0.1313 -0.3085 -0.0340
  927TIP3    H124272   4.156   0.494  13.364 -0.4300 -0.9145 -0.2775
  927TIP3    H224273   4.265   0.569  13.290 -0.9773 -0.0025 -0.1698
  928TIP3   OH224274   2.204   2.982   3.997 -0.1753  0.1208  0.0983
  928TIP3    H124275   2.125   2.928   4.011  0.4540 -0.5803  1.0659
  928TIP3    H224276   2.261   2.926   3.943  0.5629 -0.2981  1.2731
  929TIP3   OH224277   6.423   1.095   2.452  0.0678  0.0194  0.2761
  929TIP3    H124278   6.517   1.079   2.456  0.2669  0.8691 -0.6559
  929TIP3    H224279   6.405   1.150   2.529 -0.2482 -2.6380  2.2357
  930TIP3   OH224280   2.193   4.192   3.449  0.0800 -0.5119  0.7456
  930TIP3    H124281   2.183   4.269   3.505 -0.1914 -0.5603  0.7678
  930TIP3    H224282   2.194   4.118   3.510  1.3729 -0.4664  0.8045
  931TIP3   OH224283   6.432   5.488  11.240  0.1983 -0.5115  0.5967
  931TIP3    H124284   6.431   5.522  11.150 -3.0779  0.2956  0.8039
  931TIP3    H224285   6.498   5.542  11.285  0.2327  0.6689 -0.7803
  932TIP3   OH224286   6.225   2.466  14.193  0.2880  0.3390 -0.1515
  932TIP3    H124287   6.245   2.556  14.167 -0.6515  0.3557 -0.9209
  932TIP3    H224288   6.168   2.475  14.269  1.3529  0.3504  0.6499
  933TIP3   OH224289   4.571   1.613  16.303 -0.4232  0.5009 -0.0352
  933TIP3    H124290   4.649   1.584  16.351 -0.1749  0.7926 -0.2623
  933TIP3    H224291   4.497   1.582  16.356 -0.1786 -1.0409 -0.5442
  934TIP3   OH224292   6.209   0.640  16.240  0.9754  0.0380  0.2052
  934TIP3    H124293   6.235   0.555  16.206 -0.8978 -0.3507 -0.3745
  934TIP3    H224294   6.120   0.653  16.208  1.3250  2.3824 -0.0012
  935TIP3   OH224295   0.898   5.406   3.108  0.0361  0.3652 -0.7070
  935TIP3    H124296   0.804   5.420   3.121 -0.5696  1.8846 -4.9213
  935TIP3    H224297   0.904   5.317   3.075  0.1934  0.0014  0.2951
  936TIP3   OH224298   6.258   0.271  12.105 -0.7665  0.2986  0.2209
  936TIP3    H124299   6.217   0.273  12.192  1.1182 -1.8320  1.2744
  936TIP3    H224300   6.260   0.179  12.081  0.2668  0.6725 -1.3298
  937TIP3   OH224301   6.581   6.739   2.752  0.4132  0.4586 -0.1894
  937TIP3    H124302   6.659   6.739   2.806 -1.1874  0.7597  2.3052
  937TIP3    H224303   6.520   6.798   2.798 -1.4268 -0.1187 -1.7512
  938TIP3   OH224304   2.626   2.302  12.848 -0.0174  0.0420 -0.6963
  938TIP3    H124305   2.589   2.214  12.852 -0.3634  0.2304  0.9710
  938TIP3    H224306   2.551   2.358  12.827 -0.1369  0.1174 -0.0801
  939TIP3   OH224307   5.008   4.647   1.650 -0.1802 -0.0629  0.5599
  939TIP3    H124308   5.040   4.737   1.661  1.9892 -0.4790 -1.5274
  939TIP3    H224309   5.084   4.592   1.668 -0.3027 -1.2585 -2.1327
  940TIP3   OH224310   4.514   1.203  11.878 -0.1402  0.0253 -0.1339
  940TIP3    H124311   4.583   1.172  11.936 -1.8410 -3.1131  0.4446
  940TIP3    H224312   4.471   1.273  11.927  1.2040  0.5079  0.4142
  941TIP3   OH224313   1.105   3.614  12.738 -0.2882  0.3226 -0.0070
  941TIP3    H124314   1.097   3.533  12.688 -0.0218  0.2322  0.0938
  941TIP3    H224315   1.200   3.626  12.749 -0.3561  0.0300  0.9853
  942TIP3   OH224316   5.550   2.699   4.048 -0.3065  0.2740  0.0334
  942TIP3    H124317   5.596   2.678   3.966 -1.1775  0.1977 -0.4452
  942TIP3    H224318   5.470   2.647   4.044  0.1455 -0.5942  1.4544
  943TIP3   OH224319   2.483   4.416   0.439  0.0480 -0.0803 -0.0671
  943TIP3    H124320   2.487   4.493   0.383  0.9285  1.0848  1.5316
  943TIP3    H224321   2.533   4.349   0.392  1.2112  1.0278 -0.4473
  944TIP3   OH224322   4.547   0.566   5.868 -0.0848  0.1272 -0.3820
  944TIP3    H124323   4.594   0.521   5.798  0.3629 -0.0814  0.0497
  944TIP3    H224324   4.489   0.500   5.905 -0.6368  0.3502 -0.8289
  945TIP3   OH224325   0.879   4.523  13.052  0.1722  0.0451  0.1305
  945TIP3    H124326   0.801   4.538  12.999  0.6508  0.4691 -0.4667
  945TIP3    H224327   0.845   4.507  13.141 -0.7067 -1.8161 -0.4900
  946TIP3   OH224328   4.536   0.079  16.313 -0.0852  0.0419  0.1576
  946TIP3    H124329   4.604   0.094  16.379  0.3978  0.5640 -0.4458
  946TIP3    H224330   4.531   0.161  16.265 -1.0615 -0.0361  0.1121
  947TIP3   OH224331   2.283   2.583  16.985 -0.1217  0.1344 -0.5057
  947TIP3    H124332   2.249   2.672  16.987 -0.1695  0.0995  1.0884
  947TIP3    H224333   2.254   2.544  17.067  1.7487 -0.6478 -0.1678
  948TIP3   OH224334   4.848   3.875  15.742  0.6468 -0.4295  0.4161
  948TIP3    H124335   4.822   3.859  15.652  0.8289 -0.6596  0.4034
  948TIP3    H224336   4.771   3.852  15.794  0.0399  1.0598  0.2338
  949TIP3   OH224337   4.170   6.029  12.250  0.1401  0.2779 -0.3727
  949TIP3    H124338   4.077   6.013  12.233  0.3479  0.1646 -1.5110
  949TIP3    H224339   4.209   5.941  12.256  0.5600  0.2592 -2.3842
  950TIP3   OH224340   1.105   4.260  12.461  0.2231 -0.4138 -0.5673
  950TIP3    H124341   1.100   4.356  12.463 -1.3326 -0.4574  1.6168
  950TIP3    H224342   1.160   4.237  12.536  1.5923 -1.2486 -1.7775
  951TIP3   OH224343   5.563   4.408   5.752  0.4852  0.1536 -0.1018
  951TIP3    H124344   5.526   4.496   5.756 -0.4610 -0.2337 -0.2664
  951TIP3    H224345   5.649   4.421   5.712  0.4757  1.0339  0.1325
  952TIP3   OH224346   2.112   0.036  13.257  0.2071 -0.4088  0.2553
  952TIP3    H124347   2.203   0.011  13.270  0.8982  0.4126 -2.3758
  952TIP3    H224348   2.111   0.081  13.172 -2.7697 -1.0423 -0.1692
  953TIP3   OH224349   5.218   1.925   4.463  0.7334 -0.0840  0.3998
  953TIP3    H124350   5.177   1.841   4.445  1.2210 -0.5197  1.2445
  953TIP3    H224351   5.272   1.942   4.385  0.8988 -0.7212  0.3668
  954TIP3   OH224352   4.009   4.181  15.180 -0.0854 -0.1597  0.1717
  954TIP3    H124353   4.038   4.255  15.128 -1.7654  1.1554  0.9828
  954TIP3    H224354   3.937   4.143  15.130 -0.7057  0.1758  0.7833
  955TIP3   OH224355   1.911   6.477  16.287 -0.3328 -0.1942  0.1331
  955TIP3    H124356   1.946   6.474  16.376 -0.4113 -2.2927  0.1363
  955TIP3    H224357   1.986   6.499  16.233  0.2179 -1.0745  0.5120
  956TIP3   OH224358   6.483   6.257  11.239  0.2507 -0.2639 -0.1685
  956TIP3    H124359   6.389   6.260  11.224  0.4289 -0.3917 -1.3793
  956TIP3    H224360   6.519   6.217  11.160  1.3323 -0.0947  0.2205
  957TIP3   OH224361   4.764   4.295   0.925 -0.2759 -0.1161  0.4001
  957TIP3    H124362   4.682   4.339   0.905  0.1165  0.0436 -0.9946
  957TIP3    H224363   4.778   4.236   0.851  1.4576  0.7333 -0.0057
  958TIP3   OH224364   6.732   4.691   1.771  0.3228 -0.3954 -0.3507
  958TIP3    H124365   6.698   4.741   1.697  2.2696  0.6983 -0.5869
  958TIP3    H224366   6.721   4.600   1.745 -0.3959 -0.0581 -1.3163
  959TIP3   OH224367   6.742   1.041   0.100  0.3383  0.2299 -0.0622
  959TIP3    H124368   6.713   1.044   0.009 -0.9896  1.2610  0.3576
  959TIP3    H224369   6.837   1.054   0.095  0.3344 -0.1089 -1.3172
  960TIP3   OH224370   3.248   3.328   1.046 -0.4682  0.3158 -0.4286
  960TIP3    H124371   3.198   3.256   1.084 -0.7114  0.4774 -0.4347
  960TIP3    H224372   3.304   3.358   1.117  1.0498 -1.1143 -0.9733
  961TIP3   OH224373   0.208   5.440   0.092 -0.3448 -0.2529 -0.3318
  961TIP3    H124374   0.153   5.412   0.019  0.3509  0.2300 -1.0619
  961TIP3    H224375   0.234   5.529   0.069  3.0647 -1.3835 -1.4842
  962TIP3   OH224376   3.273   0.992  12.424  0.2169  0.4248 -0.1692
  962TIP3    H124377   3.195   0.947  12.456  1.3383 -1.2301  0.3580
  962TIP3    H224378   3.334   0.988  12.498  1.3662  0.2595 -1.1163
  963TIP3   OH224379   4.292   4.251  13.019 -0.1954 -0.3864 -0.5166
  963TIP3    H124380   4.304   4.300  13.100  1.3009 -2.8168  0.8604
  963TIP3    H224381   4.381   4.241  12.983 -0.4639 -1.9302 -0.8062
  964TIP3   OH224382   3.192   2.812  15.111  0.1337 -0.6743 -0.0669
  964TIP3    H124383   3.111   2.762  15.121  0.0541 -0.2637  1.7416
  964TIP3    H224384   3.241   2.765  15.043 -1.1362 -1.5555 -0.4199
  965TIP3   OH224385   3.052   0.072  10.964  0.1375  0.4055 -0.1945
  965TIP3    H124386   3.016   0.140  10.907  0.5097  1.3205  0.6338
  965TIP3    H224387   2.991  -0.002  10.954  0.0408  0.6271 -1.5461
  966TIP3   OH224388   2.938   4.890  17.122 -0.2083 -0.2119  0.4779
  966TIP3    H124389   2.933   4.950  17.048 -1.0371 -1.2545 -0.3282
  966TIP3    H224390   3.016   4.919  17.170 -0.8997  1.8526  0.4460
  967TIP3   OH224391   0.523   4.886   5.708 -0.0271 -0.3809 -0.0068
  967TIP3    H124392   0.530   4.896   5.803  2.1916  0.9683 -0.2299
  967TIP3    H224393   0.574   4.808   5.689  1.0944  0.3628 -0.1962
  968TIP3   OH224394   0.962   4.348  16.350  0.0618  0.5886  0.0315
  968TIP3    H124395   1.010   4.416  16.303  0.7748 -0.7911 -1.3148
  968TIP3    H224396   1.005   4.345  16.436  1.9984 -0.1292 -0.8944
  969TIP3   OH224397   6.646   1.984  15.297  0.0078  0.4670 -0.0216
  969TIP3    H124398   6.600   1.983  15.213  1.0069 -0.3930 -0.5763
  969TIP3    H224399   6.719   2.045  15.283  0.0347  0.5106  0.3056
  970TIP3   OH224400   5.644   0.108   0.485  0.0856  0.6768  0.3311
  970TIP3    H124401   5.650   0.178   0.550  0.2885 -0.2865  1.3743
  970TIP3    H224402   5.732   0.103   0.446  0.3397  0.3927  0.9228
  971TIP3   OH224403   6.751   3.753   5.761  0.2920  0.2894  0.1411
  971TIP3    H124404   6.802   3.810   5.818  1.1056  0.3689 -0.6433
  971TIP3    H224405   6.807   3.675   5.750 -0.6225 -0.4960  0.8681
  972TIP3   OH224406   5.422   0.697  10.877  0.0300 -0.0819 -0.2943
  972TIP3    H124407   5.386   0.728  10.794 -0.1516 -2.0295 -0.9877
  972TIP3    H224408   5.348   0.696  10.937 -0.9015 -2.7266 -1.3349
  973TIP3   OH224409   1.728   4.619  13.655 -0.2677 -0.8003 -0.1597
  973TIP3    H124410   1.821   4.614  13.675 -0.5358 -2.6216  0.9148
  973TIP3    H224411   1.723   4.635  13.561  1.1033  0.5996 -0.0209
  974TIP3   OH224412   0.586   4.757  15.750 -0.2011  0.6558  0.2473
  974TIP3    H124413   0.529   4.745  15.674  0.2107  1.5167 -0.2121
  974TIP3    H224414   0.621   4.846  15.740 -0.2023  0.8169  1.4835
  975TIP3   OH224415   4.385   1.980   0.579 -0.0401  0.3429 -0.5150
  975TIP3    H124416   4.314   1.937   0.625 -0.1926 -0.3740 -1.3965
  975TIP3    H224417   4.440   1.909   0.547  0.8666  0.8722 -0.1880
  976TIP3   OH224418   1.847   5.851  16.129  0.6367  0.1102 -0.0315
  976TIP3    H124419   1.840   5.756  16.122  0.3559  0.1455 -0.2379
  976TIP3    H224420   1.786   5.875  16.199  0.2076  0.2051 -0.4332
  977TIP3   OH224421   3.106   2.261  10.796 -0.1593  0.3644  0.2206
  977TIP3    H124422   3.141   2.203  10.728  2.1529  1.0933  0.6708
  977TIP3    H224423   3.013   2.268  10.776  0.1928 -0.4481 -2.1035
  978TIP3   OH224424   1.113   1.003  15.170  0.3992  0.3841  0.5239
  978TIP3    H124425   1.110   0.908  15.165  0.8511  0.3513  0.8064
  978TIP3    H224426   1.084   1.023  15.259 -1.7854  0.6364 -0.1868
  979TIP3   OH224427   6.355   6.186  13.724 -0.3161 -0.0625 -0.6530
  979TIP3    H124428   6.269   6.190  13.683  0.1302 -2.2604 -1.9958
  979TIP3    H224429   6.393   6.272  13.709 -2.2065  0.9203 -0.1141
  980TIP3   OH224430   2.309   2.138  12.910 -0.2164  0.0837 -0.0988
  980TIP3    H124431   2.386   2.093  12.874  0.2850  0.7161  0.1635
  980TIP3    H224432   2.254   2.156  12.833 -0.0391 -0.2340 -0.3065
  981TIP3   OH224433   3.373   0.239   4.102 -0.7217  0.2619  0.3041
  981TIP3    H124434   3.365   0.169   4.036 -0.9990  1.5731 -1.1072
  981TIP3    H224435   3.467   0.244   4.120 -0.5758  0.2477 -0.4077
  982TIP3   OH224436   6.810   6.587  16.879  0.0181 -0.0042 -0.1813
  982TIP3    H124437   6.802   6.646  16.954 -0.0452  0.5773 -0.6404
  982TIP3    H224438   6.903   6.588  16.857 -0.2680  1.5844 -1.4937
  983TIP3   OH224439   4.838   2.154   2.011  0.0178  0.1844  0.2906
  983TIP3    H124440   4.899   2.112   1.950 -0.1368  0.2237  0.1080
  983TIP3    H224441   4.873   2.243   2.021 -0.2604  0.3518 -0.1703
  984TIP3   OH224442   0.065   3.592   3.236 -0.3795  0.0668  0.3060
  984TIP3    H124443   0.157   3.611   3.219  0.0555 -1.6789  0.5066
  984TIP3    H224444   0.040   3.652   3.306  0.4557  0.8865 -0.0772
  985TIP3   OH224445   0.587   6.370  11.839  0.3865  1.2171 -0.1484
  985TIP3    H124446   0.508   6.324  11.865  0.3936  0.6935 -1.0155
  985TIP3    H224447   0.635   6.383  11.920  0.4345 -0.4106  0.1236
  986TIP3   OH224448   0.227   6.149  12.707 -0.0091 -0.0447  0.2324
  986TIP3    H124449   0.173   6.098  12.647  1.7131 -0.8599 -0.7068
  986TIP3    H224450   0.191   6.238  12.703 -0.8943 -0.4355 -0.7896
  987TIP3   OH224451   1.046   0.697  17.058 -0.3065 -0.1906 -0.4138
  987TIP3    H124452   1.120   0.750  17.090  1.0249 -0.4014 -2.9317
  987TIP3    H224453   1.058   0.612  17.100  1.4634 -0.4998 -1.4359
  988TIP3   OH224454   3.376   4.560   0.920  0.0020  0.2799 -0.0801
  988TIP3    H124455   3.465   4.594   0.925  1.5089 -3.3482  1.6966
  988TIP3    H224456   3.331   4.601   0.994  0.5667  1.1453 -0.2006
  989TIP3   OH224457   4.958   5.288   1.425  0.5971  0.5298  0.3221
  989TIP3    H124458   4.897   5.351   1.386  0.0273  0.2965  0.8167
  989TIP3    H224459   4.905   5.239   1.487  0.8014 -1.0696 -0.7160
  990TIP3   OH224460   3.675   2.739   4.256  0.0416  0.4243  0.0183
  990TIP3    H124461   3.629   2.804   4.203 -1.3470  0.5955  1.3545
  990TIP3    H224462   3.671   2.774   4.345 -0.9572 -1.5982  0.8198
  991TIP3   OH224463   3.317   0.372   2.317  0.1210 -0.0320 -0.6848
  991TIP3    H124464   3.293   0.340   2.404  0.2516  1.6342  0.0056
  991TIP3    H224465   3.411   0.355   2.310  0.2794  0.5691 -0.1369
  992TIP3   OH224466   4.714   2.297   4.492 -0.4795  0.1870  0.8929
  992TIP3    H124467   4.693   2.289   4.398  1.5713  1.5286  0.2650
  992TIP3    H224468   4.715   2.391   4.508 -0.7162 -0.0335  2.2626
  993TIP3   OH224469   1.959   5.653  10.729  0.0252 -0.0246 -0.2071
  993TIP3    H124470   1.956   5.748  10.740 -2.1913 -0.0122 -0.3750
  993TIP3    H224471   1.944   5.639  10.635 -0.8666 -0.5425  0.0003
  994TIP3   OH224472   3.439   5.287  16.793 -0.0597 -0.0744  0.2381
  994TIP3    H124473   3.360   5.336  16.770  0.6325  0.2900 -1.6131
  994TIP3    H224474   3.442   5.217  16.728  1.2028  0.0245  0.1701
  995TIP3   OH224475   0.049   0.436  12.894  0.2181 -0.5461  0.2828
  995TIP3    H124476   0.004   0.450  12.978  1.1794  0.0302  0.7210
  995TIP3    H224477   0.140   0.462  12.911  0.7353 -1.7194 -0.5712
  996TIP3   OH224478   1.788   0.814   5.386 -0.1293 -0.0990 -0.6600
  996TIP3    H124479   1.867   0.771   5.353 -0.5865 -1.5741  0.0878
  996TIP3    H224480   1.721   0.745   5.384 -1.1482  0.8558 -0.3370
  997TIP3   OH224481   2.575   5.021   1.835  0.0796 -0.2783 -0.4491
  997TIP3    H124482   2.660   5.021   1.879 -0.5136  2.2174  0.9084
  997TIP3    H224483   2.512   5.001   1.905 -0.6263  0.1386 -0.9534
  998TIP3   OH224484   0.848   1.074  14.716 -0.0332 -0.5932 -0.3360
  998TIP3    H124485   0.817   1.020  14.788 -1.6306 -0.5299 -0.9407
  998TIP3    H224486   0.843   1.164  14.750 -0.4976 -0.5864 -0.4184
  999TIP3   OH224487   2.169   2.668   2.498 -0.0788 -0.4673  0.2392
  999TIP3    H124488   2.164   2.763   2.496  1.1970 -0.3714  0.9593
  999TIP3    H224489   2.080   2.640   2.477 -0.8628  0.9080  1.5134
 1000TIP3   OH224490   6.371   5.101   0.205  0.1278  0.3680 -0.2258
 1000TIP3    H124491   6.429   5.120   0.279 -1.1714  0.7306  0.7367
 1000TIP3    H224492   6.349   5.186   0.168 -1.0055  0.3691  0.4001
 1001TIP3   OH224493   5.529   0.364   3.049  0.1397  0.0160 -0.4029
 1001TIP3    H124494   5.554   0.283   3.094  2.9005 -0.3250 -2.3502
 1001TIP3    H224495   5.597   0.427   3.072  1.6827 -0.1638 -3.8617
 1002TIP3   OH224496   3.917   2.464  13.201 -0.3159  0.4238  0.1744
 1002TIP3    H124497   3.940   2.552  13.230 -0.7792  1.3071 -1.9235
 1002TIP3    H224498   3.988   2.439  13.141 -0.4299 -0.4339  0.3829
 1003TIP3   OH224499   1.220   0.744   0.533 -0.1842 -0.4660  0.5522
 1003TIP3    H124500   1.135   0.701   0.523 -1.4150  1.5213  1.7697
 1003TIP3    H224501   1.226   0.763   0.627 -0.3029  2.9966 -0.0154
 1004TIP3   OH224502   1.112   2.918  16.523 -0.1198 -0.3292  0.0369
 1004TIP3    H124503   1.097   2.988  16.587 -3.2027 -0.4584 -0.3737
 1004TIP3    H224504   1.030   2.868  16.523  0.6302 -1.7267 -2.3487
 1005TIP3   OH224505   1.589   1.273   1.821 -0.3399 -0.3833  0.0873
 1005TIP3    H124506   1.642   1.239   1.893  1.2243 -2.1392 -1.7801
 1005TIP3    H224507   1.516   1.212   1.814  1.2363 -2.1949 -1.7799
 1006TIP3   OH224508   6.511   2.109   5.546  0.1357 -0.9042 -0.3048
 1006TIP3    H124509   6.485   2.024   5.511  1.1198 -1.0019 -0.8178
 1006TIP3    H224510   6.604   2.101   5.565 -0.1064 -0.4626  1.2282
 1007TIP3   OH224511   6.053   5.200   2.764  0.7139 -0.5863  0.1497
 1007TIP3    H124512   5.991   5.261   2.723  0.9782 -1.3979 -1.5903
 1007TIP3    H224513   6.090   5.151   2.690 -0.0547 -3.3879  1.4634
 1008TIP3   OH224514   4.084   3.855   1.368  0.2080 -0.2254 -0.1424
 1008TIP3    H124515   4.122   3.791   1.429 -0.9883 -1.2873 -0.4646
 1008TIP3    H224516   3.999   3.876   1.406  0.6853  1.4206  0.0955
 1009TIP3   OH224517   3.164   1.730  16.692  0.0853  0.1196 -0.6628
 1009TIP3    H124518   3.163   1.791  16.618 -1.3694  0.8743 -0.0665
 1009TIP3    H224519   3.137   1.784  16.767 -2.3845 -1.4591 -0.3127
 1010TIP3   OH224520   4.571   2.904  15.220 -0.3935 -0.3719 -0.4531
 1010TIP3    H124521   4.484   2.864  15.218 -0.5671 -0.0727  0.4694
 1010TIP3    H224522   4.613   2.866  15.297 -0.0707  0.2043 -0.3357
 1011TIP3   OH224523   6.404   2.490   4.590  0.5187 -0.0686  0.2729
 1011TIP3    H124524   6.344   2.427   4.630  0.6094 -1.5637 -1.7619
 1011TIP3    H224525   6.361   2.575   4.602 -0.0000 -0.5857  2.3882
 1012TIP3   OH224526   5.709   5.253   2.003 -0.4030  0.2331 -0.3051
 1012TIP3    H124527   5.690   5.273   1.911 -0.6465 -0.2050 -0.3578
 1012TIP3    H224528   5.662   5.320   2.052  0.9986  1.4205 -0.5243
 1013TIP3   OH224529   4.315   1.611  12.956 -0.4070  0.2916  0.0130
 1013TIP3    H124530   4.304   1.665  12.877  0.7217 -0.5656 -0.7584
 1013TIP3    H224531   4.383   1.548  12.932 -1.6690 -1.4700  0.8849
 1014TIP3   OH224532   1.123   3.105   6.253  0.4544  0.4040  0.0529
 1014TIP3    H124533   1.218   3.106   6.241  0.4052  0.9199 -0.3243
 1014TIP3    H224534   1.092   3.046   6.184  0.6336 -1.2169  1.3012
 1015TIP3   OH224535   0.238   5.102   5.849  0.1459 -0.1283  0.0099
 1015TIP3    H124536   0.184   5.065   5.779 -0.2225  0.9590 -0.2953
 1015TIP3    H224537   0.317   5.134   5.804  2.1397 -3.5804  0.6857
 1016TIP3   OH224538   5.627   4.485   0.692 -0.1356 -0.4751  0.1367
 1016TIP3    H124539   5.603   4.573   0.723  0.3071 -0.4330  0.3637
 1016TIP3    H224540   5.599   4.484   0.600  3.6480  1.4774 -1.2860
 1017TIP3   OH224541   0.562   5.382  12.205  0.4932 -0.6896 -0.5207
 1017TIP3    H124542   0.511   5.444  12.153 -2.1131 -0.3987  2.0878
 1017TIP3    H224543   0.604   5.436  12.271 -2.8633 -1.4786  2.6261
 1018TIP3   OH224544   3.335   5.953  17.064  0.1597  0.1351  0.0516
 1018TIP3    H124545   3.395   5.889  17.102 -0.6187  0.0734  1.2283
 1018TIP3    H224546   3.336   5.933  16.970  1.6876 -0.0844  0.0911
 1019TIP3   OH224547   4.413   4.032  14.755 -0.3433 -0.1385 -0.2677
 1019TIP3    H124548   4.365   4.022  14.672  0.0237 -1.0217 -0.3930
 1019TIP3    H224549   4.505   4.024  14.730 -0.2136 -0.0489  0.1768
 1020TIP3   OH224550   1.233   1.757  13.534 -0.1178 -0.2872  0.6993
 1020TIP3    H124551   1.262   1.715  13.453  1.7824 -0.5213  1.4525
 1020TIP3    H224552   1.153   1.711  13.558  0.5800 -1.8242  0.1798
 1021TIP3   OH224553   1.738   2.869   2.675 -0.5314 -0.1885 -0.5255
 1021TIP3    H124554   1.746   2.951   2.722  3.5790 -0.1735 -0.9223
 1021TIP3    H224555   1.708   2.894   2.587  0.3265  0.8450 -0.5379
 1022TIP3   OH224556   3.013   4.829   4.926  0.2100  0.3093 -0.0493
 1022TIP3    H124557   3.030   4.785   5.010  2.4945 -0.6019 -0.9141
 1022TIP3    H224558   2.919   4.844   4.926  0.1237  0.3041  2.6599
 1023TIP3   OH224559   3.745   5.399  13.961  0.3128  0.1213 -0.3167
 1023TIP3    H124560   3.774   5.309  13.945  0.1693  0.3222 -1.8498
 1023TIP3    H224561   3.669   5.410  13.905 -0.8359  0.6252  1.2829
 1024TIP3   OH224562   6.701   1.278   4.532  0.1631 -0.2090  0.3316
 1024TIP3    H124563   6.789   1.306   4.506  0.5382 -0.8096  0.9243
 1024TIP3    H224564   6.645   1.309   4.462  0.5620  1.9395  0.9010
 1025TIP3   OH224565   5.639   0.988  16.514 -0.3796 -0.5780 -0.5103
 1025TIP3    H124566   5.665   0.897  16.504  0.0347 -0.4600 -0.5280
 1025TIP3    H224567   5.595   0.991  16.599  1.8070 -0.3266  0.6936
 1026TIP3   OH224568   0.576   5.183  12.447 -0.1373  0.6379 -0.6459
 1026TIP3    H124569   0.665   5.205  12.421 -0.1130 -0.3416 -1.4469
 1026TIP3    H224570   0.521   5.230  12.384 -0.2493  2.0517  0.4540
 1027TIP3   OH224571   6.537   3.302   2.649  0.2705 -0.6755  0.5410
 1027TIP3    H124572   6.443   3.298   2.666  0.3917 -3.3095  0.9969
 1027TIP3    H224573   6.571   3.357   2.720 -0.8985  0.4269  0.2897
 1028TIP3   OH224574   2.830   4.395   6.723  0.5799 -0.4611 -0.1967
 1028TIP3    H124575   2.914   4.353   6.708  0.7700 -0.1795  0.0690
 1028TIP3    H224576   2.849   4.468   6.782  0.6949  1.5628 -2.5431
 1029TIP3   OH224577   4.832   6.558   0.284 -0.0023  0.2938 -0.1963
 1029TIP3    H124578   4.881   6.582   0.205 -0.0887 -0.0500 -0.3568
 1029TIP3    H224579   4.888   6.586   0.356 -0.0325  0.8289 -0.3797
 1030TIP3   OH224580   6.253   0.251   2.137 -0.1372  0.1155  0.3132
 1030TIP3    H124581   6.172   0.219   2.176 -0.3678  1.4305  0.9624
 1030TIP3    H224582   6.254   0.212   2.049 -1.1197 -0.4626  0.5389
 1031TIP3   OH224583   5.197   3.607  12.172 -0.1852 -0.3847  0.1023
 1031TIP3    H124584   5.105   3.579  12.168  0.4011 -2.2837 -1.9918
 1031TIP3    H224585   5.198   3.676  12.238 -2.7746 -1.5998  1.5590
 1032TIP3   OH224586   1.414   1.786   0.375  0.2101  0.6568 -0.1102
 1032TIP3    H124587   1.475   1.802   0.303 -1.7804  0.5415 -1.9494
 1032TIP3    H224588   1.394   1.692   0.367 -0.6694  0.8266  0.0269
 1033TIP3   OH224589   6.275   4.049   4.239  0.2286 -0.1912  0.1076
 1033TIP3    H124590   6.339   4.115   4.267  2.3896 -1.8028 -0.7096
 1033TIP3    H224591   6.283   3.979   4.305  0.3714 -1.0176 -0.7587
 1034TIP3   OH224592   2.445   0.160  15.667  0.6314  0.3764 -0.5652
 1034TIP3    H124593   2.511   0.199  15.609  0.2459  1.0847 -0.5334
 1034TIP3    H224594   2.423   0.076  15.625  0.6159  0.7224 -1.2578
 1035TIP3   OH224595   4.613   1.850   5.516 -0.5543  0.8065 -0.5605
 1035TIP3    H124596   4.705   1.857   5.492 -0.3122 -0.4521 -0.0884
 1035TIP3    H224597   4.586   1.765   5.484 -1.6415  1.2699 -0.9247
 1036TIP3   OH224598   2.968   1.802   3.411  0.7086  0.3207  0.1444
 1036TIP3    H124599   2.900   1.834   3.470  0.0143 -0.0233 -0.4461
 1036TIP3    H224600   2.976   1.709   3.432 -0.6931 -0.1871 -1.3521
 1037TIP3   OH224601   6.375   3.606  13.939  0.3110  0.3273 -0.0973
 1037TIP3    H124602   6.385   3.577  13.848 -1.3658 -0.0885 -0.1953
 1037TIP3    H224603   6.379   3.525  13.990  2.1985  0.6508  0.3277
 1038TIP3   OH224604   5.809   6.582   3.324 -0.0814  0.2476 -0.1374
 1038TIP3    H124605   5.746   6.634   3.274  0.0970  0.9930  0.3958
 1038TIP3    H224606   5.886   6.638   3.331  0.8970 -0.8745 -1.2926
 1039TIP3   OH224607   0.762   6.737   5.025  0.7425  0.3516 -0.0070
 1039TIP3    H124608   0.684   6.735   4.969  1.8593  1.0315 -1.6998
 1039TIP3    H224609   0.760   6.824   5.066 -0.2201 -0.2483  1.2625
 1040TIP3   OH224610   3.421   6.676   0.468  0.2233 -0.0675  0.5776
 1040TIP3    H124611   3.514   6.663   0.452  0.5278  0.0847  2.0629
 1040TIP3    H224612   3.385   6.700   0.383  1.7025  0.8537  0.1799
 1041TIP3   OH224613   4.993   0.907   5.252  0.3218 -1.2113  0.1873
 1041TIP3    H124614   5.040   0.843   5.200  0.6773 -0.7694 -0.0488
 1041TIP3    H224615   5.059   0.973   5.275  1.1980 -3.2666  4.4969
 1042TIP3   OH224616   4.133   0.382   0.685  0.4155  0.0914 -0.2486
 1042TIP3    H124617   4.132   0.410   0.777  0.9281  1.0130 -0.5154
 1042TIP3    H224618   4.050   0.412   0.650 -0.6568 -1.9722  0.3868
 1043TIP3   OH224619   0.964   6.730   0.657  0.2985  0.5798 -0.4925
 1043TIP3    H124620   0.966   6.770   0.744  0.6409 -1.8540  0.7035
 1043TIP3    H224621   0.875   6.693   0.650  0.4868  0.1812 -0.8714
 1044TIP3   OH224622   2.954   6.637  16.372  0.0310  0.3655  0.0748
 1044TIP3    H124623   2.968   6.548  16.339 -2.5911  0.5335 -1.7704
 1044TIP3    H224624   2.934   6.688  16.294 -1.9996  1.8113  1.4613
 1045TIP3   OH224625   0.473   0.772   5.564  0.0695 -0.2416 -0.2125
 1045TIP3    H124626   0.546   0.712   5.577  0.2912 -0.1030 -0.7797
 1045TIP3    H224627   0.514   0.857   5.548 -0.1945 -0.2099 -0.7744
 1046TIP3   OH224628   1.449   0.699  14.033  0.2609  0.0155  0.4299
 1046TIP3    H124629   1.365   0.715  14.077 -0.5125  0.5077 -1.1255
 1046TIP3    H224630   1.479   0.616  14.068 -0.8196 -0.1065  1.1284
 1047TIP3   OH224631   3.119   1.679  11.275 -0.2118 -0.2554 -0.2746
 1047TIP3    H124632   3.123   1.641  11.187  0.0405 -3.8113  1.0952
 1047TIP3    H224633   3.047   1.742  11.271  0.1612  0.1237 -3.1319
 1048TIP3   OH224634   0.335   6.489  10.945  0.0903  0.7913  0.7425
 1048TIP3    H124635   0.343   6.545  11.022 -1.5793  1.3657  0.5398
 1048TIP3    H224636   0.367   6.404  10.974 -2.3629  0.4245  2.7782
 1049TIP3   OH224637   6.534   0.264   1.944 -0.0777  0.0460 -0.0543
 1049TIP3    H124638   6.599   0.205   1.982  0.5502  1.9779  2.0693
 1049TIP3    H224639   6.492   0.306   2.020 -2.6332  0.1299 -1.3978
 1050TIP3   OH224640   1.359   6.721   3.537 -0.0680 -0.2366  0.3228
 1050TIP3    H124641   1.444   6.764   3.545 -0.1464 -0.1132  0.5144
 1050TIP3    H224642   1.366   6.666   3.459  0.0498  0.0895  0.1027
 1051TIP3   OH224643   0.174   6.217  12.247  0.2395  0.7232 -0.5455
 1051TIP3    H124644   0.099   6.259  12.289 -0.5049 -1.0383 -0.0442
 1051TIP3    H224645   0.209   6.157  12.313 -0.8156 -1.9562 -2.2309
 1052TIP3   OH224646   2.786   0.223  11.131  0.6700 -0.0319  0.1162
 1052TIP3    H124647   2.712   0.222  11.192  1.2721  0.7042  0.8933
 1052TIP3    H224648   2.748   0.208  11.045 -0.7453  2.9919  0.1321
 1053TIP3   OH224649   1.301   3.817   1.369 -0.0335  0.4322 -0.0398
 1053TIP3    H124650   1.281   3.767   1.290 -1.6544  1.4760 -0.3514
 1053TIP3    H224651   1.359   3.887   1.340 -0.8827  1.0049 -0.4119
 1054TIP3   OH224652   0.293   5.485   4.427 -0.2430  0.3073  0.3566
 1054TIP3    H124653   0.220   5.525   4.474 -0.1837 -0.7356  1.3993
 1054TIP3    H224654   0.345   5.443   4.496  0.2238 -0.6938 -0.5799
 1055TIP3   OH224655   4.601   2.523   2.357  0.2125  0.0837  0.1578
 1055TIP3    H124656   4.647   2.485   2.432 -0.0736  0.2453  0.4154
 1055TIP3    H224657   4.636   2.612   2.350 -0.9736  0.6552  1.1497
 1056TIP3   OH224658   4.068   0.163  13.348  0.0713  0.4464  0.0561
 1056TIP3    H124659   3.977   0.142  13.329  0.4269 -1.1355 -0.0164
 1056TIP3    H224660   4.065   0.202  13.436 -0.4587 -1.7857  1.1039
 1057TIP3   OH224661   2.489   1.622   1.656  1.1887 -0.2855  0.2181
 1057TIP3    H124662   2.469   1.579   1.739  2.2074  0.8247  1.0780
 1057TIP3    H224663   2.414   1.679   1.641  1.2589 -0.0616  0.6837
 1058TIP3   OH224664   4.749   0.434  12.776  0.3652 -0.2198  0.3060
 1058TIP3    H124665   4.778   0.499  12.840 -1.0524 -0.3868  1.1493
 1058TIP3    H224666   4.759   0.350  12.821  0.5152 -0.4546 -0.1507
 1059TIP3   OH224667   3.716   4.731   2.105 -0.4594 -0.2155 -0.1328
 1059TIP3    H124668   3.743   4.744   2.196  0.0409 -0.5058 -0.2366
 1059TIP3    H224669   3.704   4.637   2.096  0.0416 -0.2484 -0.5132
 1060TIP3   OH224670   0.561   6.019   5.246 -0.0786  0.2830  0.2055
 1060TIP3    H124671   0.512   6.081   5.301 -0.9451  0.6098 -0.8986
 1060TIP3    H224672   0.651   6.052   5.247 -1.0338  3.7655 -3.1173
 1061TIP3   OH224673   2.449   4.195   1.249  0.6254 -0.0177 -0.0600
 1061TIP3    H124674   2.475   4.277   1.291  0.8670 -0.5995  0.9934
 1061TIP3    H224675   2.373   4.218   1.195  2.2050  1.3809 -1.8134
 1062TIP3   OH224676   2.124   5.825  14.050 -0.0685  0.5857  0.0666
 1062TIP3    H124677   2.199   5.855  14.101 -0.2989 -0.1746  0.8668
 1062TIP3    H224678   2.056   5.807  14.115 -0.7871  0.7912 -0.6069
 1063TIP3   OH224679   0.368   6.464  17.013 -0.0610 -0.3854  0.3934
 1063TIP3    H124680   0.457   6.453  16.979  0.1219 -1.8051  1.2431
 1063TIP3    H224681   0.367   6.414  17.095 -1.7163 -0.6393  0.2610
 1064TIP3   OH224682   4.017   6.028  12.543  0.0140  0.1377  0.6553
 1064TIP3    H124683   4.009   6.043  12.448 -0.5052  0.6521  0.7699
 1064TIP3    H224684   3.942   5.973  12.565  1.6926 -2.4375  0.3074
 1065TIP3   OH224685   3.214   2.050   2.551 -0.0158  1.0395  0.2874
 1065TIP3    H124686   3.232   1.992   2.624  0.8829 -0.3766 -0.9974
 1065TIP3    H224687   3.296   2.099   2.538  0.0806  0.7537 -0.2132
 1066TIP3   OH224688   6.150   4.139   3.125  0.0608 -0.9302 -0.6511
 1066TIP3    H124689   6.133   4.177   3.039  0.2370 -3.0999 -1.7114
 1066TIP3    H224690   6.126   4.047   3.116  1.4795 -1.5468  1.1723
 1067TIP3   OH224691   4.460   2.855  14.166 -0.1559  0.6259  0.2977
 1067TIP3    H124692   4.523   2.863  14.094 -2.1266 -0.8716 -1.7399
 1067TIP3    H224693   4.456   2.943  14.204  0.1079  1.8404 -2.2388
 1068TIP3   OH224694   3.962   3.243   1.457  0.4618 -0.2523  0.1736
 1068TIP3    H124695   4.052   3.238   1.425 -0.3834 -1.5680 -2.2897
 1068TIP3    H224696   3.952   3.167   1.513  1.1189  0.4237  1.2408
 1069TIP3   OH224697   3.253   0.129   3.541 -0.0370  0.4708 -0.1832
 1069TIP3    H124698   3.285   0.174   3.463 -0.9550  1.3162 -0.0959
 1069TIP3    H224699   3.168   0.094   3.514 -1.0045  1.9584  0.8117
 1070TIP3   OH224700   2.980   1.803  13.111 -0.4839 -0.0820  0.2458
 1070TIP3    H124701   2.957   1.895  13.121  1.7990  0.5382  0.4434
 1070TIP3    H224702   2.898   1.756  13.123 -1.6757  1.9070  0.3322
 1071TIP3   OH224703   5.655   6.071   2.951 -0.4106  0.3036 -0.4954
 1071TIP3    H124704   5.564   6.052   2.974 -1.0548  3.8284  0.5007
 1071TIP3    H224705   5.706   6.033   3.023 -1.3138  0.2430  0.1289
 1072TIP3   OH224706   2.198   5.512  14.140  0.9786  0.1385  0.1833
 1072TIP3    H124707   2.122   5.472  14.183  0.2800  2.0694  0.8553
 1072TIP3    H224708   2.180   5.503  14.046  0.4490 -0.3687  0.3234
 1073TIP3   OH224709   4.533   6.458   3.752 -0.5452  0.1172  0.1309
 1073TIP3    H124710   4.461   6.395   3.758  0.2253 -0.7287  0.6586
 1073TIP3    H224711   4.553   6.462   3.658  0.7218 -1.9809  0.2512
 1074TIP3   OH224712   5.741   2.129   0.543  0.4184 -0.0230  0.1387
 1074TIP3    H124713   5.698   2.147   0.459  0.5111  1.3103  0.3578
 1074TIP3    H224714   5.735   2.034   0.553 -0.3009 -0.1167 -0.9966
 1075TIP3   OH224715   5.851   1.204  12.083  0.2186 -0.2139  0.2466
 1075TIP3    H124716   5.941   1.226  12.058  0.7011  0.0903  2.1585
 1075TIP3    H224717   5.797   1.251  12.019  1.3954  0.0763 -0.5687
 1076TIP3   OH224718   2.862   0.134  12.237  0.4207 -0.5657 -0.5153
 1076TIP3    H124719   2.942   0.167  12.197  0.9216 -0.2519  0.6986
 1076TIP3    H224720   2.801   0.124  12.164  1.7070 -1.2852 -1.5412
 1077TIP3   OH224721   1.875   3.614  13.592 -0.2290  0.1371  0.6705
 1077TIP3    H124722   1.959   3.598  13.550 -0.6053 -0.4875  0.1449
 1077TIP3    H224723   1.818   3.647  13.522 -0.7567 -0.5673  0.7637
 1078TIP3   OH224724   2.968   6.291   3.887 -0.4125  0.1595  0.1830
 1078TIP3    H124725   3.033   6.316   3.954 -1.0063  1.8690  0.1714
 1078TIP3    H224726   2.933   6.374   3.856  0.8576 -0.4609 -3.3526
 1079TIP3   OH224727   0.989   5.271   0.510  0.2895  0.1855  0.4465
 1079TIP3    H124728   1.067   5.324   0.526  0.7279 -0.6614  1.2620
 1079TIP3    H224729   1.023   5.182   0.497 -0.2188  0.3406 -3.0210
 1080TIP3   OH224730   2.338   0.742   2.675  0.4259 -0.7875  0.5338
 1080TIP3    H124731   2.329   0.647   2.681  2.4532 -0.9860  1.1870
 1080TIP3    H224732   2.412   0.763   2.732 -0.2578  1.2582  0.7765
 1081TIP3   OH224733   2.778   3.510  12.759 -0.6506 -0.0081 -0.8043
 1081TIP3    H124734   2.872   3.515  12.739  0.1419 -0.7560  2.2686
 1081TIP3    H224735   2.741   3.464  12.684  1.6065 -0.6371 -1.6312
 1082TIP3   OH224736   0.305   3.676   3.842 -0.7571 -0.0199  0.1232
 1082TIP3    H124737   0.347   3.590   3.840 -2.1474 -0.7147 -0.9952
 1082TIP3    H224738   0.298   3.696   3.936 -0.4040 -1.1286  0.4091
 1083TIP3   OH224739   1.884   2.988  16.147  0.1012 -0.2047  0.4384
 1083TIP3    H124740   1.790   2.992  16.132  0.1920  0.9410  0.0698
 1083TIP3    H224741   1.899   3.046  16.222  0.5442 -0.1225  0.2907
 1084TIP3   OH224742   5.978   0.653  17.086 -0.0635 -0.7567 -0.0702
 1084TIP3    H124743   5.953   0.563  17.064 -1.6026 -0.4783  0.4376
 1084TIP3    H224744   6.008   0.649  17.176  3.0361 -1.3016 -1.0328
 1085TIP3   OH224745   4.439   3.046   1.982 -0.0290 -0.4126 -0.4141
 1085TIP3    H124746   4.524   3.016   2.013 -0.1336  1.0202  1.4447
 1085TIP3    H224747   4.376   2.988   2.026 -0.0974  0.2789  0.4187
 1086TIP3   OH224748   5.267   2.243   1.800  0.2271 -0.3915  0.0558
 1086TIP3    H124749   5.257   2.148   1.792  0.0623 -0.3849  0.1741
 1086TIP3    H224750   5.199   2.279   1.743  0.8187 -0.3405 -0.6424
 1087TIP3   OH224751   1.842   0.797   6.369  0.5270 -0.1931  0.0953
 1087TIP3    H124752   1.930   0.833   6.374  0.4012 -0.0152  1.0824
 1087TIP3    H224753   1.788   0.871   6.340  0.6144 -0.1747 -0.0251
 1088TIP3   OH224754   3.436   3.307  11.589  0.0593  0.1371  0.1911
 1088TIP3    H124755   3.377   3.317  11.663  1.8182  1.1154  1.5239
 1088TIP3    H224756   3.402   3.231  11.542 -0.9233 -0.7276  2.1763
 1089TIP3   OH224757   5.996   6.002   4.894  0.0931  0.3764  0.2254
 1089TIP3    H124758   6.017   6.094   4.910  0.0927  0.5649 -0.7630
 1089TIP3    H224759   5.910   6.005   4.851  0.3908 -0.0353 -0.4135
 1090TIP3   OH224760   1.296   6.056  15.583  0.4156  0.2345  0.1224
 1090TIP3    H124761   1.342   6.138  15.600 -0.4934  0.7759  0.0645
 1090TIP3    H224762   1.352   6.009  15.521  0.6533  1.0899 -0.3187
 1091TIP3   OH224763   2.730   2.485  15.275  0.4419  0.6400 -0.4895
 1091TIP3    H124764   2.644   2.446  15.290  1.0717 -0.1140  1.5166
 1091TIP3    H224765   2.792   2.413  15.289  1.5045  1.7235  0.6006
 1092TIP3   OH224766   2.754   6.225   3.535  0.4978  0.2330  0.4788
 1092TIP3    H124767   2.696   6.162   3.492  0.2973  0.9591 -0.3548
 1092TIP3    H224768   2.786   6.179   3.612 -2.3036  0.2732  1.7974
 1093TIP3   OH224769   1.162   3.712   4.369 -0.5003 -0.0882  0.3301
 1093TIP3    H124770   1.067   3.712   4.379 -0.4915 -0.0415  0.4162
 1093TIP3    H224771   1.186   3.805   4.373 -0.2606 -0.1972  2.1140
 1094TIP3   OH224772   5.810   6.622  11.711  0.0516  0.1962 -0.2616
 1094TIP3    H124773   5.768   6.693  11.760 -2.4913 -1.0480 -0.4646
 1094TIP3    H224774   5.752   6.607  11.636  1.0525 -1.4173 -0.7627
 1095TIP3   OH224775   0.524   2.914   3.644 -0.3983 -0.1659 -0.4534
 1095TIP3    H124776   0.525   3.002   3.606  0.0419  0.5787  1.2203
 1095TIP3    H224777   0.606   2.874   3.613 -0.5777  0.0170 -1.1802
 1096TIP3   OH224778   2.389   4.203  14.768  0.0518 -0.4201 -0.0604
 1096TIP3    H124779   2.416   4.255  14.843  0.8503 -0.5844 -0.2198
 1096TIP3    H224780   2.460   4.140  14.755  1.5732  1.6401 -2.9045
 1097TIP3   OH224781   6.208   4.220  11.240 -0.2052 -0.2207 -0.0154
 1097TIP3    H124782   6.225   4.314  11.244 -1.4842 -0.0216  1.5214
 1097TIP3    H224783   6.171   4.206  11.153  1.8158  0.3224 -1.0386
 1098TIP3   OH224784   4.830   5.689   0.078 -0.1216 -0.3044 -0.6593
 1098TIP3    H124785   4.889   5.673   0.003 -0.6987  1.9592 -1.6660
 1098TIP3    H224786   4.889   5.695   0.153  0.6666 -0.7615 -1.2212
 1099TIP3   OH224787   5.063   0.639   3.985 -0.4417 -0.4876  0.5645
 1099TIP3    H124788   5.019   0.670   4.064  2.0429  1.6959  1.2365
 1099TIP3    H224789   5.088   0.549   4.005  0.6456  0.2057  2.5932
 1100TIP3   OH224790   5.939   2.356  11.315  0.0549 -0.1436 -0.1478
 1100TIP3    H124791   6.010   2.389  11.260  2.2657  2.9636  4.0237
 1100TIP3    H224792   5.981   2.294  11.374 -1.3397 -0.3250  0.6940
 1101TIP3   OH224793   5.974   6.584   6.392 -0.3896 -0.1507  0.0198
 1101TIP3    H124794   5.930   6.634   6.324 -0.4043  0.8886  0.7664
 1101TIP3    H224795   6.037   6.646   6.430 -0.7435 -0.5419  1.2872
 1102TIP3   OH224796   4.032   1.984  13.193 -0.1909  0.1471  0.9593
 1102TIP3    H124797   4.028   2.023  13.105  1.7021 -2.6180 -0.5097
 1102TIP3    H224798   3.942   1.956  13.210 -0.7250  1.3146  0.2430
 1103TIP3   OH224799   2.208   4.878   2.415  0.3910  0.0477  0.4119
 1103TIP3    H124800   2.289   4.904   2.459  1.2656 -0.7766 -0.6410
 1103TIP3    H224801   2.194   4.946   2.349 -0.2482  0.6307  1.1297
 1104TIP3   OH224802   3.684   5.439  15.011  0.2433 -0.0556 -0.3746
 1104TIP3    H124803   3.757   5.481  15.056 -0.4406  0.4417  0.3096
 1104TIP3    H224804   3.723   5.399  14.933  1.0116  1.4114 -0.7751
 1105TIP3   OH224805   3.835   5.618   5.525  0.0223  0.3991 -0.4307
 1105TIP3    H124806   3.801   5.552   5.584  1.3043  0.0832 -0.0046
 1105TIP3    H224807   3.831   5.700   5.575  2.2984 -0.0660  0.6709
 1106TIP3   OH224808   0.001   5.875  11.262 -0.1580 -0.2218  0.2256
 1106TIP3    H124809   0.008   5.888  11.357 -0.2472 -0.2851  0.2415
 1106TIP3    H224810  -0.093   5.884  11.244 -0.2847 -1.2405  0.3006
 1107TIP3   OH224811   0.980   6.426   0.824  0.5844 -0.4939  0.3086
 1107TIP3    H124812   0.939   6.377   0.894  0.2052  0.2446  0.6209
 1107TIP3    H224813   1.030   6.495   0.868 -1.7535  1.6429 -0.1179
 1108TIP3   OH224814   3.990   3.452   0.325  0.2595 -0.4388  0.3732
 1108TIP3    H124815   3.968   3.360   0.314  0.1245 -0.2263 -1.3996
 1108TIP3    H224816   4.024   3.480   0.240  1.6566  0.8030  1.2805
 1109TIP3   OH224817   1.777   1.421   3.268 -0.4504  0.2845  0.1949
 1109TIP3    H124818   1.749   1.456   3.353  0.7818  1.6761  0.0548
 1109TIP3    H224819   1.715   1.457   3.205  0.4098  1.7172  0.1405
 1110TIP3   OH224820   4.478   5.052  14.928 -1.0734 -0.9624 -0.0899
 1110TIP3    H124821   4.501   5.059  14.835  0.2341  0.4058  0.3006
 1110TIP3    H224822   4.518   4.970  14.957  0.8102 -0.1071 -0.1513
 1111TIP3   OH224823   0.262   4.938   0.570  0.0960  0.2185  0.4034
 1111TIP3    H124824   0.349   4.968   0.542  0.7215 -0.4616  1.5371
 1111TIP3    H224825   0.236   4.999   0.639  1.2184 -1.4955  2.4685
 1112TIP3   OH224826   1.228   3.113  13.385  0.2282 -0.3986  0.0864
 1112TIP3    H124827   1.281   3.166  13.445 -0.0990  0.0659 -0.0293
 1112TIP3    H224828   1.195   3.176  13.321 -0.5183 -0.6723  0.2003
 1113TIP3   OH224829   4.777   5.913   5.289  0.1943 -0.5475 -0.2989
 1113TIP3    H124830   4.748   5.962   5.212  2.0312 -1.8397 -1.9044
 1113TIP3    H224831   4.841   5.969   5.332 -0.1388 -0.2196 -0.2206
 1114TIP3   OH224832   1.931   0.088   1.463  0.6099  0.2116  0.4824
 1114TIP3    H124833   1.976   0.173   1.465  1.3328 -0.1571  0.3917
 1114TIP3    H224834   2.001   0.025   1.447 -0.0696 -0.3042 -0.5293
 1115TIP3   OH224835   4.625   5.921   4.635 -0.6021  0.9914  0.0916
 1115TIP3    H124836   4.651   5.883   4.551 -1.5920  0.3677  0.0557
 1115TIP3    H224837   4.698   5.900   4.694 -0.4804  0.2962 -0.2926
 1116TIP3   OH224838   3.052   6.129  13.595  0.2408  0.1489  0.8251
 1116TIP3    H124839   3.028   6.221  13.579 -2.9438 -0.7100 -0.0815
 1116TIP3    H224840   3.025   6.112  13.685 -1.3450 -0.4497  0.2650
 1117TIP3   OH224841   4.635   2.542   3.348  0.0405 -0.0252 -0.2016
 1117TIP3    H124842   4.672   2.593   3.420  0.7762 -0.2188 -0.4358
 1117TIP3    H224843   4.670   2.454   3.359 -0.5101 -0.2665 -0.3199
 1118TIP3   OH224844   3.816   0.011   2.410  0.0049  0.3429  0.0877
 1118TIP3    H124845   3.806  -0.074   2.451  0.5342 -0.0623 -0.6075
 1118TIP3    H224846   3.814   0.073   2.483  0.5518 -0.3334  0.6858
 1119TIP3   OH224847   2.766   5.270  13.430  0.3397  0.5278 -0.3745
 1119TIP3    H124848   2.721   5.189  13.454  0.2587  1.2257  2.0509
 1119TIP3    H224849   2.856   5.258  13.461  0.0597  1.7393  1.0029
 1120TIP3   OH224850   2.807   0.791   0.685  0.3359  0.4231 -0.3253
 1120TIP3    H124851   2.759   0.849   0.626  0.4784 -0.6843 -1.5815
 1120TIP3    H224852   2.782   0.820   0.773  1.2901  3.1187 -0.8302
 1121TIP3   OH224853   1.587   3.846   0.950 -0.1752 -0.2846  0.3303
 1121TIP3    H124854   1.632   3.775   0.906 -0.7414 -0.5684  0.2055
 1121TIP3    H224855   1.647   3.874   1.019  2.0696  2.1022 -2.3337
 1122TIP3   OH224856   6.206   6.668  16.899 -0.5688 -0.0552 -0.0843
 1122TIP3    H124857   6.261   6.603  16.941  0.3221  1.0670  0.5419
 1122TIP3    H224858   6.263   6.711  16.836 -0.5646  1.4005  0.8580
 1123TIP3   OH224859   1.602   4.681  12.540  0.5060 -0.3667 -0.3951
 1123TIP3    H124860   1.595   4.753  12.478  1.5445  0.4669  0.4122
 1123TIP3    H224861   1.686   4.695  12.584  1.1591 -2.5689 -0.8170
 1124TIP3   OH224862   5.985   1.400  11.829 -0.4042 -1.0911  0.4916
 1124TIP3    H124863   5.912   1.337  11.836  0.0977 -1.9030 -1.0606
 1124TIP3    H224864   6.036   1.368  11.755  0.8277  0.2106  0.7515
 1125TIP3   OH224865   5.569   2.529   2.717  0.8182 -0.3496  0.9134
 1125TIP3    H124866   5.657   2.543   2.680  0.0996  2.4006  0.0119
 1125TIP3    H224867   5.572   2.571   2.803  0.3063  0.0439  0.7427
 1126TIP3   OH224868   2.066   2.217  13.150  0.2978  0.3229 -0.1737
 1126TIP3    H124869   2.133   2.242  13.214  0.4965  1.8618 -0.9347
 1126TIP3    H224870   2.090   2.128  13.124  0.8116  0.0644  1.1156
 1127TIP3   OH224871   5.214   5.855   2.255  0.2273 -0.3333  0.1481
 1127TIP3    H124872   5.127   5.846   2.216  1.7551 -3.6598 -3.1890
 1127TIP3    H224873   5.226   5.949   2.265 -2.7485  0.4083 -1.7834
 1128TIP3   OH224874   2.476   1.812  14.122 -0.1463 -0.7118 -0.2782
 1128TIP3    H124875   2.454   1.884  14.182  2.3018 -1.1117  1.2512
 1128TIP3    H224876   2.470   1.733  14.176 -2.5004 -1.7256 -1.8553
 1129TIP3   OH224877   5.750   4.404   2.993  0.5042 -0.2224  0.2613
 1129TIP3    H124878   5.667   4.363   2.967  0.5884  0.0599 -0.4859
 1129TIP3    H224879   5.775   4.456   2.917  1.3777 -0.3121  0.4825
 1130TIP3   OH224880   0.632   0.649  13.813 -0.0217  0.0524 -0.4820
 1130TIP3    H124881   0.610   0.665  13.905  0.9419 -0.0701 -0.2197
 1130TIP3    H224882   0.619   0.734  13.770 -2.0388 -0.2478 -0.5845
 1131TIP3   OH224883   5.297   6.027  12.370 -0.3229 -0.0807 -0.4995
 1131TIP3    H124884   5.235   6.094  12.400 -0.0638 -0.0737  0.0147
 1131TIP3    H224885   5.261   5.944  12.402  0.3828  0.0074  0.5512
 1132TIP3   OH224886   4.481   5.436  11.852 -0.1180  0.1225 -0.2332
 1132TIP3    H124887   4.423   5.416  11.778 -1.7635  0.1791  0.9889
 1132TIP3    H224888   4.537   5.359  11.860 -0.6780 -0.3633 -0.8507
 1133TIP3   OH224889   3.510   0.349  14.776  0.0031  0.3452  0.0069
 1133TIP3    H124890   3.586   0.406  14.764 -1.1233  2.0655  0.6507
 1133TIP3    H224891   3.504   0.299  14.694  0.5311  1.7955 -0.9517
 1134TIP3   OH224892   0.148   5.843   6.112  0.0189  0.0170  0.4437
 1134TIP3    H124893   0.237   5.866   6.084 -0.0127  0.9652  1.0627
 1134TIP3    H224894   0.154   5.840   6.208 -0.5218 -0.3542  0.4685
 1135TIP3   OH224895   4.812   3.192   1.369  0.0520 -0.0729  0.4794
 1135TIP3    H124896   4.864   3.234   1.438 -0.2484  0.6829  0.2615
 1135TIP3    H224897   4.721   3.201   1.399  0.0341 -1.7711  1.0697
 1136TIP3   OH224898   6.831   5.320   4.351 -0.2305  0.0079 -0.0936
 1136TIP3    H124899   6.914   5.313   4.397 -0.2276 -2.0906 -0.3129
 1136TIP3    H224900   6.854   5.350   4.263  0.2366  0.0313  0.0359
 1137TIP3   OH224901   0.170   5.239  15.147  0.2885 -0.4770 -0.1192
 1137TIP3    H124902   0.099   5.288  15.106 -0.3385 -1.3161 -0.0475
 1137TIP3    H224903   0.190   5.169  15.085  0.1973 -0.9917  0.4226
 1138TIP3   OH224904   0.689   5.485   4.629 -0.1098  0.4750 -0.6000
 1138TIP3    H124905   0.704   5.395   4.659  0.0149  0.7451  0.1699
 1138TIP3    H224906   0.671   5.476   4.536 -4.0519 -0.7798  0.1100
 1139TIP3   OH224907   1.816   3.262  13.918 -0.0824  0.5702 -0.1868
 1139TIP3    H124908   1.901   3.223  13.941  0.2517  0.6394 -1.2173
 1139TIP3    H224909   1.753   3.191  13.929  0.1726  0.3969  0.1739
 1140TIP3   OH224910   2.009   2.151  12.426 -1.2090  0.2423 -0.8866
 1140TIP3    H124911   1.992   2.089  12.355 -1.6840  1.4616 -1.8911
 1140TIP3    H224912   1.948   2.223  12.409 -1.8732  0.2353  1.2093
 1141TIP3   OH224913   4.557   4.077  15.159 -0.0496  0.2501  0.6053
 1141TIP3    H124914   4.520   4.003  15.111  1.7128 -0.8368  0.8080
 1141TIP3    H224915   4.522   4.068  15.248 -1.3824  0.8308  0.1564
 1142TIP3   OH224916   4.616   0.173  12.342  0.9001  0.3233 -0.0732
 1142TIP3    H124917   4.638   0.081  12.355 -0.6277  0.0370  0.7222
 1142TIP3    H224918   4.664   0.219  12.411  0.3858 -0.0893  0.5713
 1143TIP3   OH224919   4.570   5.122  14.460  1.0835  0.3958  0.6785
 1143TIP3    H124920   4.491   5.167  14.490 -1.3230 -1.1535 -2.6622
 1143TIP3    H224921   4.625   5.191  14.424  1.1524  1.4706  2.7319
 1144TIP3   OH224922   4.636   6.174   1.505 -0.0298 -0.3186  0.3600
 1144TIP3    H124923   4.574   6.115   1.464 -0.4111  0.9075 -0.8911
 1144TIP3    H224924   4.594   6.202   1.586 -1.0878  0.4053 -0.4164
 1145TIP3   OH224925   3.769   6.789   6.671  0.5042  0.1868 -0.2451
 1145TIP3    H124926   3.681   6.811   6.704  1.5735  1.4450  2.0026
 1145TIP3    H224927   3.816   6.872   6.671  2.2523 -0.7552  0.4809
 1146TIP3   OH224928   5.053   2.101  15.333 -0.4286 -0.7255 -0.2529
 1146TIP3    H124929   5.081   2.183  15.293 -0.6049 -1.1039 -1.1950
 1146TIP3    H224930   5.077   2.034  15.269 -3.1596 -1.1163 -1.0347
 1147TIP3   OH224931   1.382   1.887   4.378  0.0474  0.0130  0.3710
 1147TIP3    H124932   1.417   1.945   4.446  0.5598 -0.6726  0.6966
 1147TIP3    H224933   1.442   1.813   4.376 -0.6075 -0.5146 -0.0405
 1148TIP3   OH224934   4.871   6.759   3.937 -0.1854  0.6439  0.3418
 1148TIP3    H124935   4.821   6.693   3.888  1.6106 -0.7201  0.2498
 1148TIP3    H224936   4.938   6.789   3.876  0.2190  1.1552  1.0166
 1149TIP3   OH224937   3.445   2.896  16.168  0.2424  0.0262  0.0371
 1149TIP3    H124938   3.449   2.829  16.236  2.3453  0.0036 -0.0282
 1149TIP3    H224939   3.457   2.848  16.086  0.5436  0.3424 -0.1069
 1150TIP3   OH224940   2.071   1.891  13.395  0.2446 -0.0417  0.4171
 1150TIP3    H124941   2.040   1.808  13.359 -0.1396 -0.1160  0.8972
 1150TIP3    H224942   2.153   1.909  13.350  0.1379 -0.4942  0.0427
 1151TIP3   OH224943   3.132   5.003  15.150  0.1654  0.1500 -0.4437
 1151TIP3    H124944   3.101   4.969  15.234  1.8011  0.9814  0.5454
 1151TIP3    H224945   3.063   5.062  15.121 -0.3865 -0.0843  0.3537
 1152TIP3   OH224946   3.109   2.891  11.516  0.0495 -0.0257 -0.4681
 1152TIP3    H124947   3.084   2.865  11.604  0.9171 -1.3018 -0.5731
 1152TIP3    H224948   3.078   2.819  11.460  0.6787  0.1379 -1.0382
 1153TIP3   OH224949   2.711   3.857   1.414 -0.5737 -0.4307 -0.9976
 1153TIP3    H124950   2.632   3.910   1.425 -1.7541 -2.0571 -1.3157
 1153TIP3    H224951   2.739   3.837   1.503 -0.9936 -0.5422 -0.8894
 1154TIP3   OH224952   5.591   4.489  11.160 -0.3400 -0.4648  0.0453
 1154TIP3    H124953   5.667   4.511  11.106 -0.7181 -0.2288 -0.3938
 1154TIP3    H224954   5.573   4.397  11.140 -0.6105 -0.3173 -0.3913
 1155TIP3   OH224955   5.721   3.798  11.835 -0.2355  0.0737  0.1366
 1155TIP3    H124956   5.704   3.816  11.743 -0.6692 -2.3475 -0.3275
 1155TIP3    H224957   5.795   3.854  11.858  0.0851  0.4760 -1.7750
 1156TIP3   OH224958   4.217   5.130  13.202  0.3343 -0.4529 -0.6416
 1156TIP3    H124959   4.186   5.103  13.289  1.0725 -0.0656 -0.2542
 1156TIP3    H224960   4.174   5.069  13.142  0.3560 -1.1699  0.0493
 1157TIP3   OH224961   3.157   3.910   1.481  0.0747  0.3220 -0.1953
 1157TIP3    H124962   3.118   3.968   1.547 -0.0772  1.3584 -1.1552
 1157TIP3    H224963   3.082   3.873   1.435  0.0977 -1.9509  1.4109
 1158TIP3   OH224964   1.820   2.447   0.030  0.1138  0.2052  0.0947
 1158TIP3    H124965   1.738   2.406   0.058  0.3695  0.0583  0.6411
 1158TIP3    H224966   1.887   2.380   0.048  0.4503  0.6146  0.3651
 1159TIP3   OH224967   5.409   6.005  16.505  0.4101  0.1390 -0.2364
 1159TIP3    H124968   5.415   5.998  16.601 -2.5159  1.2062  0.1332
 1159TIP3    H224969   5.498   6.027  16.477  2.2144 -3.6563  1.7672
 1160TIP3   OH224970   1.809   5.648   4.150  0.7589  0.4187 -0.2795
 1160TIP3    H124971   1.718   5.670   4.130  1.0457  0.1855 -2.0042
 1160TIP3    H224972   1.807   5.556   4.174  0.3703  0.7658  1.1300
 1161TIP3   OH224973   3.056   0.269  16.115 -0.3931  0.4285  0.1911
 1161TIP3    H124974   3.095   0.333  16.055 -0.4898  1.1460  0.8764
 1161TIP3    H224975   3.131   0.234  16.164 -0.4745  1.0050  0.7443
 1162TIP3   OH224976   5.858   4.316   1.277 -0.0668  0.3883  0.3337
 1162TIP3    H124977   5.950   4.289   1.270  0.1805  0.9047  1.3461
 1162TIP3    H224978   5.862   4.403   1.315 -0.9409  1.0123 -0.9593
 1163TIP3   OH224979   2.879   5.637  14.745  0.1403 -0.4002  0.7635
 1163TIP3    H124980   2.801   5.691  14.758  0.7601  0.4329  1.0166
 1163TIP3    H224981   2.851   5.572  14.680 -0.7505 -0.0814  0.8074
 1164TIP3   OH224982   5.666   1.427   0.279  0.1531  0.4620 -0.1678
 1164TIP3    H124983   5.651   1.367   0.352  2.6173  0.3097  0.2707
 1164TIP3    H224984   5.634   1.378   0.202 -2.8580  0.7964  0.7463
 1165TIP3   OH224985   0.578   0.107  13.656  0.1190 -0.1072 -0.6738
 1165TIP3    H124986   0.645   0.138  13.596  1.4196  0.1316  0.8397
 1165TIP3    H224987   0.625   0.085  13.736 -1.5763 -0.1897  0.3628
 1166TIP3   OH224988   5.804   1.736   3.080  0.2178 -0.4985  0.2138
 1166TIP3    H124989   5.781   1.807   3.141  1.1124  0.0729 -0.0898
 1166TIP3    H224990   5.816   1.660   3.136  2.3076  0.3072  0.9800
 1167TIP3   OH224991   1.169   3.606  14.438  0.3460 -0.8776  0.3638
 1167TIP3    H124992   1.082   3.615  14.477  0.2295 -1.1376  0.1635
 1167TIP3    H224993   1.226   3.657  14.495  0.3255 -1.9568  1.3680
 1168TIP3   OH224994   4.885   2.161  16.209 -0.0762  0.3909 -0.1723
 1168TIP3    H124995   4.959   2.109  16.177 -0.3648 -0.4525  0.4901
 1168TIP3    H224996   4.858   2.214  16.134  1.7431  1.3784 -0.1797
 1169TIP3   OH224997   6.800   5.718   0.195  0.6893 -0.1953 -0.0011
 1169TIP3    H124998   6.709   5.720   0.223  0.5618  1.1267 -0.4694
 1169TIP3    H224999   6.813   5.628   0.163  0.1837 -1.0332  2.0074
 1170TIP3   OH225000   5.791   3.368  13.076 -0.2443  0.2373  0.2602
 1170TIP3    H125001   5.861   3.303  13.078 -1.0487 -0.7394 -1.3007
 1170TIP3    H225002   5.818   3.430  13.009 -0.3838  0.4227  0.3770
 1171TIP3   OH225003   4.725   6.150  14.519 -0.2175  0.0521 -0.0134
 1171TIP3    H125004   4.631   6.166  14.530 -0.3013 -0.8643  0.6624
 1171TIP3    H225005   4.740   6.065  14.559  0.7613 -0.1919 -0.8582
 1172TIP3   OH225006   0.069   3.944  11.767 -0.3290  0.3814 -0.9275
 1172TIP3    H125007  -0.018   3.984  11.766 -0.6964 -0.4035 -1.4064
 1172TIP3    H225008   0.116   3.990  11.837 -1.6025 -0.1615  0.3317
 1173TIP3   OH225009   3.003   0.244   6.259 -0.1366  0.3345  0.2749
 1173TIP3    H125010   3.075   0.228   6.319  0.1356  0.0500 -0.1206
 1173TIP3    H225011   2.929   0.196   6.296  0.4000 -1.0479 -0.3577
 1174TIP3   OH225012   4.330   1.352  16.419 -0.0498  0.5036 -0.3617
 1174TIP3    H125013   4.313   1.433  16.467 -2.4012 -0.5305  0.6581
 1174TIP3    H225014   4.331   1.379  16.327 -0.1949  1.7804 -0.0087
 1175TIP3   OH225015   6.799   6.275   1.779  0.1754  0.3562  0.4244
 1175TIP3    H125016   6.740   6.263   1.705 -0.2835 -2.1351  1.1011
 1175TIP3    H225017   6.871   6.329   1.744  1.3069 -2.7833 -2.6641
 1176TIP3   OH225018   5.727   4.036  13.038 -0.1369 -0.3158  0.2102
 1176TIP3    H125019   5.724   4.036  13.133 -0.2199 -1.6092  0.2187
 1176TIP3    H225020   5.779   3.959  13.015 -1.5949 -1.0558 -0.8002
 1177TIP3   OH225021   3.342   0.619  16.036  0.4181 -0.0063  0.1269
 1177TIP3    H125022   3.364   0.682  16.105  2.2846 -0.1554 -0.2762
 1177TIP3    H225023   3.401   0.545  16.052 -0.2283 -0.7105 -0.6986
 1178TIP3   OH225024   3.741   2.825  15.104  0.5636 -1.0386 -0.0578
 1178TIP3    H125025   3.795   2.871  15.040  0.9299 -1.7310 -0.2592
 1178TIP3    H225026   3.779   2.737  15.109 -1.1287 -1.8804 -0.9477
 1179TIP3   OH225027   3.367   6.470  14.775  0.2807  0.2664  0.1067
 1179TIP3    H125028   3.455   6.498  14.753  0.1053  0.1903 -0.7159
 1179TIP3    H225029   3.369   6.375  14.770 -0.0859  0.2990 -0.8884
 1180TIP3   OH225030   4.680   5.668   5.711 -0.2328  0.1125  1.2072
 1180TIP3    H125031   4.623   5.595   5.736  0.3765 -0.5445  0.7427
 1180TIP3    H225032   4.747   5.628   5.655  0.0880  1.0442  0.9021
 1181TIP3   OH225033   3.298   6.592  16.654 -0.1935 -0.1619 -0.3903
 1181TIP3    H125034   3.389   6.612  16.678 -0.5722  0.5282  0.5612
 1181TIP3    H225035   3.247   6.656  16.703 -1.0891  0.9302 -2.6253
 1182TIP3   OH225036   0.206   3.190  13.965  0.2181  0.3056  0.2670
 1182TIP3    H125037   0.159   3.107  13.975 -0.0046  0.2893 -0.8544
 1182TIP3    H225038   0.284   3.167  13.915  0.5327  0.6544  0.5893
 1183TIP3   OH225039   4.978   3.157   2.880 -0.0416  0.3107 -0.1916
 1183TIP3    H125040   4.933   3.186   2.959  1.1517  2.3380 -0.1697
 1183TIP3    H225041   4.954   3.222   2.814 -1.4754 -1.6492 -1.7402
 1184TIP3   OH225042   1.543   3.363  12.367  0.6761  1.1193  0.0192
 1184TIP3    H125043   1.622   3.331  12.325 -0.0966 -2.8922  1.2350
 1184TIP3    H225044   1.514   3.436  12.312  2.7333 -0.1709 -3.0366
 1185TIP3   OH225045   5.994   3.556   4.435 -0.3307 -0.3709 -0.0885
 1185TIP3    H125046   6.024   3.592   4.518 -0.2688  0.0957 -0.3126
 1185TIP3    H225047   6.063   3.580   4.372  0.6037 -2.3870  0.0908
 1186TIP3   OH225048   3.712   0.271   4.142 -0.2327 -0.1394 -0.6248
 1186TIP3    H125049   3.745   0.185   4.166 -1.1565 -0.2752  0.2150
 1186TIP3    H225050   3.742   0.329   4.212  1.3648  0.4755 -1.7618
 1187TIP3   OH225051   1.215   5.772  14.791 -0.7294  0.3153 -0.0058
 1187TIP3    H125052   1.261   5.759  14.874 -2.3569  1.6782  1.1849
 1187TIP3    H225053   1.268   5.835  14.743 -0.3514  0.3684  0.4783
 1188TIP3   OH225054   2.323   5.780  11.003  0.1716  0.3151 -0.3777
 1188TIP3    H125055   2.355   5.856  10.955 -2.1316  1.2043 -0.6701
 1188TIP3    H225056   2.281   5.817  11.081 -0.6427 -0.6718 -0.3215
 1189TIP3   OH225057   0.164   5.448   0.662 -0.3072 -0.8791  0.5682
 1189TIP3    H125058   0.208   5.473   0.743  1.2364 -1.0900 -0.1576
 1189TIP3    H225059   0.177   5.353   0.656  0.1558 -0.7750 -0.2258
 1190TIP3   OH225060   6.034   3.054   4.890 -0.1339  0.4216  0.3219
 1190TIP3    H125061   6.060   3.015   4.973  1.5845 -0.1162 -0.4350
 1190TIP3    H225062   6.101   3.120   4.871 -0.5023  0.5428 -0.6294
 1191TIP3   OH225063   0.893   4.583   0.104  0.3246  0.1352 -0.3263
 1191TIP3    H125064   0.933   4.506   0.145  0.0332 -0.0315 -0.3503
 1191TIP3    H225065   0.799   4.564   0.105  0.0950  1.2187  1.1537
 1192TIP3   OH225066   2.831   3.144   6.302  0.2198 -0.1689 -0.3569
 1192TIP3    H125067   2.816   3.127   6.395  0.7228 -0.4105 -0.3203
 1192TIP3    H225068   2.891   3.218   6.300  2.0191 -1.5621 -0.4393
 1193TIP3   OH225069   3.031   4.739   3.013  0.4655  0.4841  0.1841
 1193TIP3    H125070   2.963   4.790   2.969  0.1197  0.2648  0.4617
 1193TIP3    H225071   3.077   4.802   3.068 -0.5184  0.3413  1.1994
 1194TIP3   OH225072   1.507   4.262  15.685 -0.3887  0.0858 -0.1008
 1194TIP3    H125073   1.525   4.289  15.595 -2.0865 -0.0058 -0.5112
 1194TIP3    H225074   1.583   4.291  15.735  0.4402  0.4310 -1.5016
 1195TIP3   OH225075   3.840   4.508  16.341 -0.0547 -0.6335 -0.2803
 1195TIP3    H125076   3.755   4.539  16.372 -0.2870  0.5251 -1.9565
 1195TIP3    H225077   3.903   4.563  16.387 -0.3883  0.9120 -1.5413
 1196TIP3   OH225078   0.439   4.462  11.663 -0.3162 -0.0605  0.1079
 1196TIP3    H125079   0.399   4.416  11.590  0.6609  0.0889 -0.5307
 1196TIP3    H225080   0.371   4.522  11.693 -0.0734  1.3708 -2.0107
 1197TIP3   OH225081   2.228   3.434   2.827  0.6141  0.0307  0.3764
 1197TIP3    H125082   2.219   3.346   2.865 -0.7088  0.0440  0.1627
 1197TIP3    H225083   2.250   3.419   2.735  1.1421 -0.0538  0.5132
 1198TIP3   OH225084   6.368   0.701   4.385 -0.7852  0.1754 -0.2476
 1198TIP3    H125085   6.276   0.730   4.385 -0.7956  0.1375 -0.4761
 1198TIP3    H225086   6.409   0.755   4.454 -0.9115  0.4035 -0.3484
 1199TIP3   OH225087   5.924   1.534  12.795 -0.1922  0.0409  0.2454
 1199TIP3    H125088   5.868   1.554  12.720 -0.8020 -0.9186  0.4350
 1199TIP3    H225089   6.010   1.517  12.757 -0.1212  1.0490 -0.0881
 1200TIP3   OH225090   0.806   2.593   4.277  0.4376 -0.1538 -0.2162
 1200TIP3    H125091   0.726   2.641   4.296  0.0050 -1.1004  0.4382
 1200TIP3    H225092   0.861   2.604   4.354 -0.0439 -1.4300  0.3434
 1201TIP3   OH225093   6.808   6.648  14.550  0.0510  0.4124  0.3986
 1201TIP3    H125094   6.780   6.680  14.636  0.3866  2.1588 -0.1000
 1201TIP3    H225095   6.739   6.586  14.525  0.1364 -0.4082  2.0602
 1202TIP3   OH225096   5.136   4.224  12.093  0.5663  0.4612 -0.0908
 1202TIP3    H125097   5.112   4.239  12.184  1.5748 -1.3404  0.5305
 1202TIP3    H225098   5.232   4.225  12.093  0.5998 -0.7769 -0.8823
 1203TIP3   OH225099   0.150   6.326  13.943  0.3675  0.1733  0.3216
 1203TIP3    H125100   0.074   6.273  13.917 -0.1299  0.4751  1.1127
 1203TIP3    H225101   0.225   6.283  13.901 -0.4252  0.9201 -2.0155
 1204TIP3   OH225102   3.958   3.358  16.391  0.0312  0.0920  0.4489
 1204TIP3    H125103   3.865   3.364  16.371 -0.0754 -0.7379  0.6861
 1204TIP3    H225104   3.986   3.276  16.351  1.1787  1.4031 -1.6532
 1205TIP3   OH225105   5.096   0.665   5.625  0.2042 -0.1454  0.5362
 1205TIP3    H125106   5.180   0.627   5.599  0.4413  0.3555  0.5646
 1205TIP3    H225107   5.118   0.751   5.661 -0.3907  0.3082 -0.1533
 1206TIP3   OH225108   6.840   2.286  14.494  0.3375 -0.2096  0.2167
 1206TIP3    H125109   6.756   2.312  14.458  0.9487 -0.2902 -1.3635
 1206TIP3    H225110   6.905   2.331  14.439  1.3469  0.3150  1.7410
 1207TIP3   OH225111   2.705   1.420   1.226 -0.0403 -0.3999  0.3995
 1207TIP3    H125112   2.700   1.509   1.190  0.7857 -0.1156  0.9636
 1207TIP3    H225113   2.637   1.372   1.179 -0.4032  0.4923 -0.0193
 1208TIP3   OH225114   4.079   4.616   1.286  0.1358 -0.1652  0.2154
 1208TIP3    H125115   4.125   4.573   1.214  0.4072  0.8986 -0.2722
 1208TIP3    H225116   4.042   4.544   1.337  0.3831 -0.9611 -0.6866
 1209TIP3   OH225117   1.994   1.586  15.898  0.0388 -0.3845 -0.2718
 1209TIP3    H125118   2.079   1.631  15.897 -0.2426  0.1998  1.0433
 1209TIP3    H225119   1.933   1.648  15.858 -0.2576  0.2512  1.1208
 1210TIP3   OH225120   0.141   4.108  11.142 -0.2610  0.3032 -0.3544
 1210TIP3    H125121   0.061   4.057  11.138 -0.7769  0.9632  0.8199
 1210TIP3    H225122   0.195   4.063  11.207 -0.0751  0.3896 -0.4473
 1211TIP3   OH225123   3.081   5.799   5.150 -0.3082  0.0438 -0.0004
 1211TIP3    H125124   3.077   5.811   5.245  0.8892 -1.7301  0.3388
 1211TIP3    H225125   3.030   5.720   5.134  2.1850 -1.6037 -0.3276
 1212TIP3   OH225126   3.103   5.730  13.823  0.0881 -0.1262  0.7035
 1212TIP3    H125127   3.007   5.724  13.827  0.0457 -0.0902 -0.0768
 1212TIP3    H225128   3.121   5.824  13.817  0.0879 -0.1832 -0.5776
 1213TIP3   OH225129   4.559   0.006   1.011  0.3877  0.1711  0.3463
 1213TIP3    H125130   4.498   0.063   0.964  0.1682  0.6610  1.2089
 1213TIP3    H225131   4.503  -0.058   1.054  0.6472 -0.9157 -0.8526
 1214TIP3   OH225132   0.191   5.622  15.382  0.1156 -0.1307 -0.1049
 1214TIP3    H125133   0.248   5.547  15.365  0.2744  0.1170 -0.6871
 1214TIP3    H225134   0.153   5.604  15.468 -0.3390 -1.1937 -0.5079
 1215TIP3   OH225135   6.750   6.316  15.482  0.9936  0.2201 -0.9743
 1215TIP3    H125136   6.718   6.330  15.571  0.2923 -1.8403 -0.8352
 1215TIP3    H225137   6.800   6.395  15.461 -0.2630  1.4961  0.5840
 1216TIP3   OH225138   0.434   3.860  13.297  0.6249  0.1594  0.0405
 1216TIP3    H125139   0.475   3.914  13.229 -0.1725  0.8376  0.0702
 1216TIP3    H225140   0.479   3.776  13.292 -1.2071 -0.8244 -3.2496
 1217TIP3   OH225141   5.079   4.269   2.735  0.2177  0.4816 -0.4508
 1217TIP3    H125142   5.080   4.325   2.658 -0.2999  1.1938  0.0435
 1217TIP3    H225143   5.159   4.293   2.782  0.4522  0.1614 -0.6870
 1218TIP3   OH225144   0.015   1.380   4.227 -0.1097  0.1993  0.3402
 1218TIP3    H125145   0.060   1.351   4.306 -1.4469 -1.1921  0.6416
 1218TIP3    H225146   0.017   1.305   4.168  1.4742  1.4295 -1.2926
 1219TIP3   OH225147   5.439   0.695   3.178 -0.1804 -0.5108  0.1695
 1219TIP3    H125148   5.501   0.638   3.134 -1.1727 -1.7609  0.3510
 1219TIP3    H225149   5.479   0.782   3.172  1.4672 -1.2342  0.0905
 1220TIP3   OH225150   4.914   6.514   1.563 -0.1103  0.4706  0.1500
 1220TIP3    H125151   4.908   6.421   1.539 -0.1526 -0.1362  2.2809
 1220TIP3    H225152   4.845   6.557   1.514  0.0563 -0.5867 -1.0490
 1221TIP3   OH225153   2.841   5.434  14.095  0.0881 -0.5008 -0.1592
 1221TIP3    H125154   2.772   5.438  14.029 -0.4106 -0.0338  0.3744
 1221TIP3    H225155   2.917   5.399  14.049 -0.4225 -0.7432 -0.8282
 1222TIP3   OH225156   6.288   2.749   4.593 -0.2989 -0.1836 -0.5954
 1222TIP3    H125157   6.287   2.760   4.498  1.2441  0.4083 -0.5725
 1222TIP3    H225158   6.209   2.795   4.623  0.1714  1.2253 -1.4444
 1223TIP3   OH225159   5.761   2.389   5.028  0.6969  0.2944  0.0831
 1223TIP3    H125160   5.757   2.357   5.118  0.9864  0.1259  0.0372
 1223TIP3    H225161   5.674   2.371   4.992  0.5091  0.5660  0.3967
 1224TIP3   OH225162   3.673   5.004   6.055  0.4326  0.2567 -0.4003
 1224TIP3    H125163   3.686   5.012   5.960 -1.2367  0.5662 -0.6271
 1224TIP3    H225164   3.762   4.995   6.090  1.1901  1.5222 -1.8570
 1225TIP3   OH225165   3.325   3.476  15.196 -0.2423 -0.5854  0.0850
 1225TIP3    H125166   3.378   3.511  15.125 -0.1169 -1.8157 -0.4462
 1225TIP3    H225167   3.387   3.463  15.268 -0.3889  0.7557  0.4743
 1226TIP3   OH225168   3.026   4.507   3.187  0.6854 -0.2241  0.5006
 1226TIP3    H125169   2.978   4.541   3.262 -3.1179 -1.7145 -0.9677
 1226TIP3    H225170   3.032   4.581   3.127  0.2958  0.0456  0.7862
 1227TIP3   OH225171   1.104   2.887   0.449 -0.0335 -0.1528 -0.7144
 1227TIP3    H125172   1.019   2.915   0.415 -0.4782 -0.5366  0.0522
 1227TIP3    H225173   1.098   2.791   0.452 -0.6425 -0.1062  1.9425
 1228TIP3   OH225174   4.682   5.857  17.035  0.4816 -0.3389 -0.1275
 1228TIP3    H125175   4.679   5.898  17.122  0.4430  1.0997 -0.7738
 1228TIP3    H225176   4.759   5.800  17.038  0.8440  0.1680  0.6584
 1229TIP3   OH225177   4.499   2.108   2.979  0.2493 -0.6319  0.4498
 1229TIP3    H125178   4.541   2.144   3.057  0.5186  1.5330 -0.6285
 1229TIP3    H225179   4.528   2.165   2.907 -0.5876 -2.0944 -1.1277
 1230TIP3   OH225180   2.111   4.086   5.015  0.1995 -0.4808  0.2979
 1230TIP3    H125181   2.017   4.071   5.013  0.0921  0.2356 -1.0450
 1230TIP3    H225182   2.122   4.167   5.065  0.1334 -0.7392  0.7321
 1231TIP3   OH225183   4.212   5.224   6.626  0.2431  0.2911 -0.3354
 1231TIP3    H125184   4.207   5.319   6.621 -0.8945  0.1868 -1.7913
 1231TIP3    H225185   4.243   5.197   6.539 -1.3658 -0.7593 -0.6151
 1232TIP3   OH225186   4.251   5.406   6.020  0.0288  0.0586 -0.0027
 1232TIP3    H125187   4.217   5.441   6.102 -1.6498  0.8540 -0.9826
 1232TIP3    H225188   4.209   5.320   6.011  0.8777 -0.4098  0.3556
 1233TIP3   OH225189   3.267   5.053   0.260 -0.6221 -0.1669 -0.3469
 1233TIP3    H125190   3.223   5.084   0.181 -0.7053  0.3350 -0.1068
 1233TIP3    H225191   3.267   5.129   0.319 -1.8107 -0.9148  0.6693
 1234TIP3   OH225192   0.825   6.169  14.575  0.1463  0.0817  0.0122
 1234TIP3    H125193   0.817   6.099  14.640 -2.5744  0.0731 -0.2353
 1234TIP3    H225194   0.917   6.166  14.549  0.7470 -1.5471  2.0345
 1235TIP3   OH225195   1.374   3.118  12.439 -0.0120  0.1165  0.4533
 1235TIP3    H125196   1.444   3.183  12.449  1.1954 -0.9866 -0.3793
 1235TIP3    H225197   1.334   3.139  12.354 -0.4908  0.5508  0.7821
 1236TIP3   OH225198   5.116   2.357   0.189 -0.4132 -0.1221  0.1795
 1236TIP3    H125199   5.066   2.414   0.247  0.7250  2.4807 -1.2385
 1236TIP3    H225200   5.049   2.314   0.135 -1.2606  1.6663 -0.2637
 1237TIP3   OH225201   1.083   1.298  14.289  0.1134  0.2932 -0.2136
 1237TIP3    H125202   1.030   1.233  14.336  0.1369  0.3412 -0.1216
 1237TIP3    H225203   1.027   1.325  14.216  0.1015  0.1724 -0.2505
 1238TIP3   OH225204   0.975   1.221  16.892  0.0557 -0.2620  0.5745
 1238TIP3    H125205   0.916   1.200  16.964  1.1932 -2.4321  0.9615
 1238TIP3    H225206   0.928   1.193  16.814 -0.7008  1.0183  0.5405
 1239TIP3   OH225207   3.701   3.280   3.702 -0.3223  0.1671  0.4890
 1239TIP3    H125208   3.667   3.253   3.616  0.5267 -0.7015  0.4154
 1239TIP3    H225209   3.640   3.348   3.731 -0.1141  1.1477 -1.2243
 1240TIP3   OH225210   4.666   2.868   3.072  0.2752 -0.2986 -0.4192
 1240TIP3    H125211   4.640   2.893   2.983  0.2998 -0.7984 -0.5700
 1240TIP3    H225212   4.585   2.840   3.114  0.4548 -1.2849 -0.6987
 1241TIP3   OH225213   4.162   6.754   1.016  0.5487 -0.8458  0.3649
 1241TIP3    H125214   4.121   6.705   1.087  0.3841  0.5411  1.2796
 1241TIP3    H225215   4.120   6.840   1.020  0.4511 -0.7654 -1.5102
 1242TIP3   OH225216   2.509   2.322  14.143 -0.2172 -0.2238 -0.3418
 1242TIP3    H125217   2.426   2.274  14.146 -0.7830  0.6750  3.0344
 1242TIP3    H225218   2.487   2.408  14.179  1.8989  0.5453 -0.7953
 1243TIP3   OH225219   2.046   0.427  15.719  0.2185 -0.0925  0.6731
 1243TIP3    H125220   1.991   0.453  15.645 -1.3668 -0.0738  1.8072
 1243TIP3    H225221   2.038   0.500  15.781  3.0219  0.7568  0.1533
 1244TIP3   OH225222   3.017   5.619   0.559 -0.1074 -0.7463 -0.5356
 1244TIP3    H125223   3.073   5.637   0.634  1.9892 -1.0072 -1.9330
 1244TIP3    H225224   2.971   5.539   0.581 -1.8571  0.7242  1.6282
 1245TIP3   OH225225   4.589   6.780  12.836 -0.2035  0.3445 -0.0708
 1245TIP3    H125226   4.516   6.749  12.890  0.2427  0.2867  0.4975
 1245TIP3    H225227   4.649   6.706  12.830  0.2385  0.6751  0.2114
 1246TIP3   OH225228   0.359   5.619   6.086 -0.1751  0.3552  0.0244
 1246TIP3    H125229   0.327   5.589   6.171 -0.8053  0.8047 -0.0490
 1246TIP3    H225230   0.356   5.714   6.091  0.3887  0.3963 -0.2827
 1247TIP3   OH225231   4.321   1.434   4.943 -0.1179  0.1254  0.1462
 1247TIP3    H125232   4.314   1.497   4.871  1.6433  0.0804 -0.1181
 1247TIP3    H225233   4.312   1.348   4.902  0.8411  0.1016 -0.0319
 1248TIP3   OH225234   5.010   3.403   1.093  0.6261  0.1325 -0.0138
 1248TIP3    H125235   5.018   3.400   0.997  2.3453  2.0142  0.0175
 1248TIP3    H225236   5.034   3.315   1.121 -3.2378 -1.6162 -1.3815
 1249TIP3   OH225237   5.082   5.412   5.399 -0.1195 -0.5378 -0.0687
 1249TIP3    H125238   5.057   5.466   5.324 -0.5523 -1.9076 -0.9480
 1249TIP3    H225239   5.002   5.405   5.450  0.7347  2.4495  1.9571
 1250TIP3   OH225240   3.243   0.103  15.671 -0.2911  0.3726  0.2846
 1250TIP3    H125241   3.280   0.191  15.659 -2.3814  1.1194 -1.2045
 1250TIP3    H225242   3.300   0.046  15.619  0.2392  1.0710  0.0745
 1251TIP3   OH225243   2.978   6.675   4.867  0.7705  0.1293 -0.2955
 1251TIP3    H125244   3.022   6.651   4.949  0.2482 -0.6534 -0.2293
 1251TIP3    H225245   3.023   6.622   4.800 -0.2077 -0.8877 -0.1901
 1252TIP3   OH225246   4.326   5.793  12.262  0.1207  0.1630  0.8689
 1252TIP3    H125247   4.310   5.701  12.242  0.8057  0.2667 -0.2975
 1252TIP3    H225248   4.410   5.793  12.308  0.5141  0.2437  0.1789
 1253TIP3   OH225249   1.264   1.558   1.217 -0.1020 -0.4479  0.9033
 1253TIP3    H125250   1.274   1.479   1.163 -1.2380 -0.1633  0.2331
 1253TIP3    H225251   1.305   1.628   1.166 -0.1975 -0.3825  0.9147
 1254TIP3   OH225252   0.580   1.267   1.881  0.1635 -0.1761  0.1428
 1254TIP3    H125253   0.493   1.273   1.922  0.3578 -0.4605  0.6037
 1254TIP3    H225254   0.562   1.259   1.788 -0.3594 -1.5638  0.3378
 1255TIP3   OH225255   6.690   1.293   1.698  0.0646  0.0172  0.2761
 1255TIP3    H125256   6.719   1.283   1.788 -2.9253 -0.4531  1.3008
 1255TIP3    H225257   6.702   1.206   1.659 -0.9494 -0.4839  1.0255
 1256TIP3   OH225258   0.758   4.561   1.199 -0.1426 -0.2153  0.4950
 1256TIP3    H125259   0.849   4.560   1.229 -0.0411  0.3182  0.2171
 1256TIP3    H225260   0.763   4.590   1.108 -0.6293  0.2507  0.6115
 1257TIP3   OH225261   2.731   4.253   0.746 -0.3016  0.7287  0.1516
 1257TIP3    H125262   2.677   4.332   0.737 -0.5005  0.6753  0.8504
 1257TIP3    H225263   2.819   4.283   0.726 -0.4071  1.0814  0.2021
 1258TIP3   OH225264   6.028   1.054   0.087 -0.6786 -0.9982 -0.0651
 1258TIP3    H125265   6.059   1.138   0.053  1.2493 -1.1960  1.0923
 1258TIP3    H225266   6.037   0.994   0.013  1.1485 -0.9021  0.0444
 1259TIP3   OH225267   6.170   0.987  15.640 -0.0738  0.3338  0.0187
 1259TIP3    H125268   6.138   0.897  15.638  0.5018  0.1452 -1.1160
 1259TIP3    H225269   6.209   1.002  15.554  3.1757  0.4428  1.3620
 1260TIP3   OH225270   3.806   4.300   4.422  0.1525  0.2222 -0.8409
 1260TIP3    H125271   3.892   4.268   4.449 -0.3978 -1.3061 -0.7940
 1260TIP3    H225272   3.824   4.355   4.345  1.1700 -0.0015 -0.7772
 1261TIP3   OH225273   2.059   6.123   0.625 -0.6597  0.3964 -0.6359
 1261TIP3    H125274   2.107   6.042   0.643 -3.4673 -1.6604 -1.5932
 1261TIP3    H225275   2.088   6.149   0.538  0.0211  0.2141 -0.4642
 1262TIP3   OH225276   2.300   2.925  12.079 -0.1243  0.9022 -0.6604
 1262TIP3    H125277   2.376   2.886  12.124  0.8190  0.9132 -2.1691
 1262TIP3    H225278   2.254   2.851  12.040  1.7111  1.1210 -3.5938
 1263TIP3   OH225279   5.060   3.265  12.455  0.6582 -0.1676  0.6650
 1263TIP3    H125280   5.070   3.226  12.542  1.1621  0.9642  1.1401
 1263TIP3    H225281   4.970   3.246  12.430  1.0205 -2.0439  0.6421
 1264TIP3   OH225282   4.997   4.304   0.593 -0.4486  0.2568 -0.2741
 1264TIP3    H125283   5.076   4.354   0.612 -2.5019  3.9671 -0.5342
 1264TIP3    H225284   5.000   4.289   0.498  0.0600  0.1076 -0.2377
 1265TIP3   OH225285   4.346   2.541  14.783  0.2198 -0.0893  0.2819
 1265TIP3    H125286   4.414   2.480  14.754  1.6315  2.0251 -1.1576
 1265TIP3    H225287   4.299   2.565  14.703 -0.2812  0.7420  0.8099
 1266TIP3   OH225288   6.258   2.579  11.268 -0.5017  0.1117  0.0784
 1266TIP3    H125289   6.237   2.672  11.271 -0.9242  0.0905 -1.2902
 1266TIP3    H225290   6.329   2.567  11.331 -0.3123  1.3932  0.1222
 1267TIP3   OH225291   5.433   1.826  14.902  0.2016  0.6107  0.1407
 1267TIP3    H125292   5.503   1.822  14.836 -0.7603  0.0596 -0.8815
 1267TIP3    H225293   5.360   1.779  14.862 -1.1587  2.1390  0.7078
 1268TIP3   OH225294   1.013   5.524  16.050 -0.0166  0.3024 -0.0058
 1268TIP3    H125295   0.992   5.465  16.122  0.0423 -0.3861 -0.5344
 1268TIP3    H225296   1.089   5.574  16.081 -0.5855  0.7003  0.7684
 1269TIP3   OH225297   3.487   1.223  15.037 -0.5638 -0.3695 -0.9217
 1269TIP3    H125298   3.420   1.168  14.996 -2.5996  1.3647 -0.1147
 1269TIP3    H225299   3.531   1.265  14.963  0.2181 -2.1060 -1.4921
 1270TIP3   OH225300   0.956   4.087   3.603  0.0111  0.1431  0.2650
 1270TIP3    H125301   0.929   4.063   3.691  0.3023 -1.2091  0.0106
 1270TIP3    H225302   1.046   4.054   3.595 -0.3456 -0.6240 -0.8507
 1271TIP3   OH225303   2.207   6.622  12.333  0.1980 -0.1874 -0.3020
 1271TIP3    H125304   2.163   6.551  12.380 -0.4565  1.5569  1.8103
 1271TIP3    H225305   2.185   6.606  12.241 -0.4640 -2.3174  0.1637
 1272TIP3   OH225306   4.735   3.711  11.522 -0.0899 -0.2807 -0.0739
 1272TIP3    H125307   4.671   3.780  11.540 -0.3654  0.1358 -2.4277
 1272TIP3    H225308   4.773   3.692  11.608 -1.7895  1.0075  1.0338
 1273TIP3   OH225309   1.264   1.290   1.862  0.4045 -0.0514 -0.4724
 1273TIP3    H125310   1.190   1.230   1.871 -0.4770  1.0359 -0.2326
 1273TIP3    H225311   1.293   1.306   1.952 -0.9223  1.7190 -0.2930
 1274TIP3   OH225312   4.505   0.987  15.207  0.2899 -0.3168 -0.6231
 1274TIP3    H125313   4.458   0.918  15.253 -0.8914 -0.1636 -1.5488
 1274TIP3    H225314   4.596   0.956  15.203 -0.3710 -2.2551 -1.8166
 1275TIP3   OH225315   4.895   3.231  13.945 -0.5826 -0.0496  0.0582
 1275TIP3    H125316   4.812   3.221  13.992  1.7367 -1.4156  4.3254
 1275TIP3    H225317   4.913   3.325  13.949 -0.7066 -0.0638  1.5015
 1276TIP3   OH225318   2.918   5.898   0.588  0.0882  0.0520 -0.4227
 1276TIP3    H125319   2.947   5.808   0.577 -1.5067 -0.3273 -1.8001
 1276TIP3    H225320   2.954   5.944   0.512  1.3021  0.7380  0.5154
 1277TIP3   OH225321   5.808   6.637  11.040 -0.2221 -0.2750 -0.6381
 1277TIP3    H125322   5.773   6.709  10.989 -0.2878 -0.3036 -0.6340
 1277TIP3    H225323   5.731   6.594  11.077 -0.0975  1.1158  1.3933
 1278TIP3   OH225324   1.551   2.616  11.579 -0.4479  0.1415 -0.0006
 1278TIP3    H125325   1.640   2.582  11.592 -0.6414  0.3922  2.2676
 1278TIP3    H225326   1.564   2.696  11.528  0.4687 -0.6022 -0.9965
 1279TIP3   OH225327   2.695   0.484   0.303 -0.0712  0.8459  0.4934
 1279TIP3    H125328   2.753   0.559   0.318 -0.1237  0.7570  1.1823
 1279TIP3    H225329   2.682   0.483   0.208 -0.3512  1.9165  0.5012
 1280TIP3   OH225330   4.169   5.013  15.575 -0.3882  0.1586 -0.0796
 1280TIP3    H125331   4.173   4.918  15.583 -0.0051  0.2856  1.6164
 1280TIP3    H225332   4.130   5.028  15.489 -1.2419 -1.5372 -0.0349
 1281TIP3   OH225333   2.325   6.418   2.897 -0.4059 -0.2228  0.9237
 1281TIP3    H125334   2.365   6.434   2.982  0.9257  1.7640 -0.0258
 1281TIP3    H225335   2.265   6.492   2.883 -1.0135 -0.7982  0.3495
 1282TIP3   OH225336   0.326   5.974   3.914  0.1792  0.2701 -0.1961
 1282TIP3    H125337   0.261   5.913   3.950  0.6140  0.2327  0.5311
 1282TIP3    H225338   0.399   5.918   3.889 -1.0549 -0.0797 -3.5523
 1283TIP3   OH225339   6.657   4.809   2.884 -0.0215 -0.1387 -0.2391
 1283TIP3    H125340   6.562   4.805   2.872 -0.0079  0.7285 -0.7001
 1283TIP3    H225341   6.669   4.802   2.979 -0.6855  1.7180  0.0151
 1284TIP3   OH225342   4.052   5.810   3.877 -0.3786  0.4081 -0.3909
 1284TIP3    H125343   4.104   5.889   3.888  0.6071 -0.5316  2.7027
 1284TIP3    H225344   4.113   5.745   3.842 -0.5143  0.3436 -0.5113
 1285TIP3   OH225345   5.320   5.188  12.805 -0.2265 -0.1447 -0.6515
 1285TIP3    H125346   5.315   5.159  12.713  0.3795 -0.7362 -0.5105
 1285TIP3    H225347   5.249   5.141  12.849 -0.3172 -0.1086 -0.7602
 1286TIP3   OH225348   3.510   4.337  16.685 -0.3740  0.0747  0.1479
 1286TIP3    H125349   3.510   4.370  16.775 -1.9186 -0.1926  0.2848
 1286TIP3    H225350   3.501   4.242  16.694  0.9375 -0.1057 -0.2840
 1287TIP3   OH225351   2.038   0.930  16.027  0.0733  0.1339  0.5078
 1287TIP3    H125352   2.015   1.017  15.994  0.7909  0.0358 -0.2566
 1287TIP3    H225353   2.019   0.935  16.121  1.7574  1.6913  0.8262
 1288TIP3   OH225354   5.416   3.985   2.746 -0.1258  0.3456 -0.3067
 1288TIP3    H125355   5.439   4.073   2.776 -0.0202  1.2643 -2.8891
 1288TIP3    H225356   5.321   3.981   2.758 -0.4524  1.6564 -2.1129
 1289TIP3   OH225357   1.995   1.901  11.188 -0.0972 -0.0661  0.1736
 1289TIP3    H125358   2.091   1.898  11.182  0.1481  0.8980  2.5272
 1289TIP3    H225359   1.968   1.957  11.116  1.1374 -0.0830 -0.3252
 1290TIP3   OH225360   3.394   4.738   3.481 -0.1122 -0.1416  1.2856
 1290TIP3    H125361   3.373   4.788   3.402  0.7755 -1.4032  0.2047
 1290TIP3    H225362   3.481   4.702   3.465 -0.7063 -2.0664  1.9752
 1291TIP3   OH225363   6.659   6.387   3.389  0.9401 -0.3548 -0.5494
 1291TIP3    H125364   6.732   6.438   3.424  0.5457  0.2439 -0.5744
 1291TIP3    H225365   6.604   6.368   3.465  0.6734 -0.0400 -0.6584
 1292TIP3   OH225366   1.412   6.163  11.150 -0.1377 -0.5870 -0.4220
 1292TIP3    H125367   1.364   6.233  11.195  0.5572 -1.3487  1.6216
 1292TIP3    H225368   1.343   6.102  11.122 -0.5537 -0.4494  0.2754
 1293TIP3   OH225369   4.144   2.437  12.734 -0.0200  0.1460 -0.4981
 1293TIP3    H125370   4.199   2.458  12.659  0.0516 -0.9756 -0.7776
 1293TIP3    H225371   4.063   2.485  12.720  0.2173  0.3990 -0.9952
 1294TIP3   OH225372   3.009   4.855   1.035 -0.1443  0.3961  0.3867
 1294TIP3    H125373   3.076   4.921   1.018  1.0612 -0.9170 -0.2444
 1294TIP3    H225374   2.964   4.845   0.951  1.3824 -1.3384 -0.3070
 1295TIP3   OH225375   2.101   0.806  14.914 -0.0446 -0.3217  0.2891
 1295TIP3    H125376   2.134   0.717  14.914 -0.4840 -0.4874 -0.1275
 1295TIP3    H225377   2.023   0.803  14.859 -1.6081 -0.2721  2.3779
 1296TIP3   OH225378   5.082   2.369   1.601  0.0383 -0.2050 -0.0320
 1296TIP3    H125379   5.126   2.343   1.521  0.2327  0.8327 -0.2719
 1296TIP3    H225380   5.050   2.457   1.584  1.2545  0.5706  1.4794
 1297TIP3   OH225381   1.038   0.454   0.038  0.1074 -0.1609 -0.4875
 1297TIP3    H125382   1.109   0.389   0.039  0.2736  0.0189 -0.4292
 1297TIP3    H225383   1.001   0.450   0.127 -0.0191 -0.3250 -0.5487
 1298TIP3   OH225384   3.385   0.052   2.621 -0.2151 -0.0830  1.0377
 1298TIP3    H125385   3.292   0.075   2.619  0.5179  4.0360 -3.0500
 1298TIP3    H225386   3.394  -0.019   2.557 -0.5115  0.1490  0.7331
 1299TIP3   OH225387   0.031   5.456   3.213 -0.7616  0.4515  0.2699
 1299TIP3    H125388   0.074   5.520   3.270  1.5611 -1.7419  1.1471
 1299TIP3    H225389  -0.030   5.410   3.271  2.8893 -3.0304  1.8091
 1300TIP3   OH225390   1.550   6.838   6.390  0.1798  0.2356  0.6549
 1300TIP3    H125391   1.598   6.818   6.310  0.0616  0.3047  0.5671
 1300TIP3    H225392   1.512   6.755   6.417  0.5119  0.1384  0.8326
 1301TIP3   OH225393   4.386   0.776  12.951  0.0827  0.4305 -0.3566
 1301TIP3    H125394   4.471   0.732  12.951 -0.2540 -0.5431  3.0478
 1301TIP3    H225395   4.376   0.807  13.041 -3.4184 -0.0236 -0.4480
 1302TIP3   OH225396   2.019   6.550  16.532 -0.2291 -0.5580 -0.0176
 1302TIP3    H125397   1.962   6.598  16.592 -0.0701  0.2942 -0.5315
 1302TIP3    H225398   2.058   6.617  16.477  3.0029 -0.7941  1.7075
 1303TIP3   OH225399   1.274   0.786  11.008  0.0495 -0.0311  0.0651
 1303TIP3    H125400   1.205   0.836  11.053  0.7227 -0.7692  2.0439
 1303TIP3    H225401   1.249   0.788  10.916 -2.2718  0.2742  0.6379
 1304TIP3   OH225402   1.673   0.763  10.176  0.1367  0.6412  0.5300
 1304TIP3    H125403   1.627   0.716  10.246 -1.4288 -0.5835 -1.1913
 1304TIP3    H225404   1.741   0.702  10.147 -0.6081  0.2128 -0.3853
 1305TIP3   OH225405   2.316   5.358  15.375 -0.5200 -0.3535 -0.0911
 1305TIP3    H125406   2.256   5.374  15.448 -0.4311 -1.8318  0.3430
 1305TIP3    H225407   2.402   5.347  15.416 -0.5689 -1.7963 -0.3227
 1306TIP3   OH225408   1.748   0.135  15.727 -0.3393  0.5301  1.0893
 1306TIP3    H125409   1.837   0.172  15.722  0.0777 -0.1949  2.4265
 1306TIP3    H225410   1.754   0.071  15.798 -1.8670  0.2469  0.9811
 1307TIP3   OH225411   4.160   5.823   5.380 -0.7399 -0.3051 -0.0236
 1307TIP3    H125412   4.210   5.758   5.429 -2.4513 -0.2861  1.8478
 1307TIP3    H225413   4.103   5.772   5.322  0.8557 -0.3299 -1.6969
 1308TIP3   OH225414   0.661   4.240  12.861 -0.0504 -0.3140  0.0526
 1308TIP3    H125415   0.680   4.334  12.867  2.9272 -0.7987  0.0366
 1308TIP3    H225416   0.698   4.215  12.776 -0.1972 -1.6045  0.3613
 1309TIP3   OH225417   3.516   1.508  13.325  0.4075 -0.3291  0.4283
 1309TIP3    H125418   3.507   1.432  13.267 -0.5039  0.2082 -0.1661
 1309TIP3    H225419   3.486   1.582  13.272  0.3776  0.3058  1.3104
 1310TIP3   OH225420   3.910   3.971  15.716  0.4063  0.9212  0.0513
 1310TIP3    H125421   3.926   3.970  15.622 -0.2255 -0.5433 -0.0610
 1310TIP3    H225422   3.973   3.909  15.752  0.7446  1.5838  0.6261
 1311TIP3   OH225423   4.076   1.871  10.702  0.2034  0.2538 -0.3565
 1311TIP3    H125424   4.115   1.958  10.693  1.3163 -0.4261 -3.1675
 1311TIP3    H225425   4.125   1.830  10.773  1.9451  0.8024 -1.1965
 1312TIP3   OH225426   6.590   0.530  10.998 -0.4056 -0.1631  0.2531
 1312TIP3    H125427   6.502   0.563  10.976 -1.3572 -1.9237  1.2330
 1312TIP3    H225428   6.592   0.442  10.962  1.4192  0.2404 -0.7412
 1313TIP3   OH225429   3.625   3.163  16.751 -0.6045 -0.2456 -0.4634
 1313TIP3    H125430   3.720   3.177  16.753 -0.5226 -0.5744 -1.4900
 1313TIP3    H225431   3.593   3.203  16.832  0.3289  0.4861 -0.4425
 1314TIP3   OH225432   5.241   3.013  10.944  0.7310  0.4370  0.3449
 1314TIP3    H125433   5.224   3.089  11.000  0.9905  0.5936  0.2183
 1314TIP3    H225434   5.267   3.051  10.859  1.7009  0.2287  0.5303
 1315TIP3   OH225435   1.637   2.247   0.807 -0.1326 -0.1138  0.0723
 1315TIP3    H125436   1.638   2.212   0.896  1.4011 -2.2735 -0.7027
 1315TIP3    H225437   1.686   2.182   0.756  1.1167  2.2279 -1.9011
 1316TIP3   OH225438   0.178   3.998   4.517 -0.2174  0.1443  0.2128
 1316TIP3    H125439   0.226   4.079   4.495  0.1923  0.0280  0.6382
 1316TIP3    H225440   0.089   4.027   4.534  0.1821  0.6998  1.5000
 1317TIP3   OH225441   5.656   3.087  15.316  0.1455  0.4226  0.2854
 1317TIP3    H125442   5.644   3.175  15.352  0.7737  0.5305  0.2359
 1317TIP3    H225443   5.569   3.047  15.322  0.3774  0.1685  2.6187
 1318TIP3   OH225444   2.469   3.518  16.876  0.2003  0.7519 -0.2387
 1318TIP3    H125445   2.475   3.466  16.956  0.4165  2.9418  1.2715
 1318TIP3    H225446   2.376   3.517  16.853  0.1948 -0.2151 -0.2056
 1319TIP3   OH225447   4.258   1.106  16.932  0.3739 -0.2546 -0.3570
 1319TIP3    H125448   4.244   1.015  16.956  1.1397 -0.2175  0.2753
 1319TIP3    H225449   4.173   1.135  16.898  0.2315 -1.3025 -0.9264
 1320TIP3   OH225450   5.091   6.447  13.608 -0.0257  0.3327  0.3021
 1320TIP3    H125451   5.116   6.384  13.676  0.5568  1.2432  0.9541
 1320TIP3    H225452   5.137   6.417  13.529  2.4350  1.3972  1.2422
 1321TIP3   OH225453   6.143   0.203   2.510 -0.4892 -0.4010 -0.1741
 1321TIP3    H125454   6.206   0.133   2.493 -0.9157 -0.3058 -2.3965
 1321TIP3    H225455   6.197   0.275   2.544  0.4777 -0.6677 -1.0656
 1322TIP3   OH225456   1.688   4.304   3.674  0.5264 -0.1894 -0.5464
 1322TIP3    H125457   1.753   4.244   3.710  0.0373 -0.5216 -0.1925
 1322TIP3    H225458   1.710   4.389   3.710  1.1694 -0.1726 -0.9713
 1323TIP3   OH225459   0.413   0.749   1.049 -0.3836 -0.0796 -0.5207
 1323TIP3    H125460   0.379   0.783   0.966  0.1862 -0.3319 -0.8671
 1323TIP3    H225461   0.335   0.730   1.101 -0.7432  0.2403 -0.9386
 1324TIP3   OH225462   5.663   2.897  11.839  0.1307 -0.0017  0.0578
 1324TIP3    H125463   5.647   2.949  11.761  1.2951  0.0570 -0.1602
 1324TIP3    H225464   5.616   2.944  11.909 -0.9402 -0.0750 -0.5926
 1325TIP3   OH225465   6.341   5.907   1.478 -0.4374  0.4834 -0.7650
 1325TIP3    H125466   6.432   5.885   1.459 -0.5906  0.0847 -1.0594
 1325TIP3    H225467   6.299   5.822   1.496 -0.7038  0.6836 -0.4263
 1326TIP3   OH225468   6.105   6.706  14.813  0.0735  0.6058  0.1193
 1326TIP3    H125469   6.155   6.697  14.894  0.7204  1.7057 -0.1340
 1326TIP3    H225470   6.045   6.632  14.814 -0.0977  0.7245  1.7124
 1327TIP3   OH225471   3.147   0.006  16.501  0.0346  0.2884  0.3800
 1327TIP3    H125472   3.174   0.004  16.593 -0.4164  0.0077  0.5138
 1327TIP3    H225473   3.097  -0.074  16.490  1.6622 -0.6404 -0.6199
 1328TIP3   OH225474   0.580   0.813   5.105 -0.2256 -0.4380  0.1935
 1328TIP3    H125475   0.605   0.891   5.055 -0.2341  1.2833  2.6822
 1328TIP3    H225476   0.602   0.740   5.047 -0.1961  1.3588 -2.2586
 1329TIP3   OH225477   6.275   4.930  11.491 -0.6484  0.3350 -0.2315
 1329TIP3    H125478   6.257   4.852  11.543 -1.4289  0.6240 -0.0497
 1329TIP3    H225479   6.328   4.986  11.548  0.2711 -0.2264 -0.5123
 1330TIP3   OH225480   6.129   3.655   3.368  0.5213 -0.0378  0.0676
 1330TIP3    H125481   6.101   3.622   3.282 -2.8685  0.8134  0.7025
 1330TIP3    H225482   6.170   3.580   3.410 -2.2027 -2.0169 -0.5238
 1331TIP3   OH225483   3.811   0.655  12.566  0.3219  0.4189  0.0151
 1331TIP3    H125484   3.816   0.560  12.568  2.6516  0.2343 -3.8934
 1331TIP3    H225485   3.773   0.675  12.480  0.7938  3.0082  0.3305
 1332TIP3   OH225486   2.918   2.552   0.244  0.2256 -0.2053  0.0003
 1332TIP3    H125487   2.923   2.627   0.185  1.3444 -1.1272 -1.1384
 1332TIP3    H225488   2.826   2.526   0.242  0.0551  0.4102 -0.5356
 1333TIP3   OH225489   3.578   0.536  17.083  0.0970 -0.0245 -0.2324
 1333TIP3    H125490   3.596   0.615  17.134 -3.0781  0.4441  0.3658
 1333TIP3    H225491   3.555   0.470  17.147  1.9657 -1.3003 -0.7860
 1334TIP3   OH225492   5.746   5.946  16.013  0.0030  0.6224  0.0168
 1334TIP3    H125493   5.775   6.002  16.085 -0.6387 -1.5119  2.0421
 1334TIP3    H225494   5.658   5.919  16.037  0.1456 -0.9230 -1.0726
 1335TIP3   OH225495   4.740   6.040   5.053 -0.4180 -0.7254  0.5589
 1335TIP3    H125496   4.743   5.963   4.997 -2.2411  0.3038 -1.0683
 1335TIP3    H225497   4.754   6.114   4.994 -0.2849  0.2871  1.8109
 1336TIP3   OH225498   2.494   1.404   3.300 -0.5730 -0.2856 -0.2107
 1336TIP3    H125499   2.427   1.432   3.362 -1.2377  1.8412 -1.7538
 1336TIP3    H225500   2.451   1.408   3.214  1.4574  1.1407 -1.2538
 1337TIP3   OH225501   5.622   3.267  11.923  0.2023  0.2796  0.3382
 1337TIP3    H125502   5.673   3.344  11.898  1.1648  0.4230  2.5347
 1337TIP3    H225503   5.576   3.242  11.843  2.7885  0.8547 -1.4612
 1338TIP3   OH225504   4.490   4.208   2.219  0.5130  0.5426  0.0462
 1338TIP3    H125505   4.440   4.275   2.174  2.1680  1.0321 -1.1783
 1338TIP3    H225506   4.563   4.255   2.259  0.7885 -0.3140  0.5867
 1339TIP3   OH225507   6.492   2.283  13.369  0.3460  0.0071 -0.0150
 1339TIP3    H125508   6.487   2.348  13.299 -0.0268 -0.6468 -0.6161
 1339TIP3    H225509   6.536   2.208  13.328  4.1543  1.0779  1.6294
 1340TIP3   OH225510   6.568   1.902  13.219  0.6008 -0.2703 -0.4293
 1340TIP3    H125511   6.526   1.882  13.136 -2.5834 -1.3967  1.2871
 1340TIP3    H225512   6.604   1.818  13.249 -1.2438 -0.6633  0.8060
 1341TIP3   OH225513   3.352   1.422  16.093  0.5381 -0.7458 -0.1276
 1341TIP3    H125514   3.391   1.457  16.013  0.2601 -0.5884 -0.1933
 1341TIP3    H225515   3.320   1.498  16.140 -0.9638 -0.9721 -0.7360
 1342TIP3   OH225516   3.796   3.083  15.241  0.8196  0.3777  0.2211
 1342TIP3    H125517   3.861   3.058  15.307  1.1266  1.3278  0.2912
 1342TIP3    H225518   3.772   3.000  15.199  1.7325 -0.0439  0.5032
 1343TIP3   OH225519   5.224   1.381  11.334 -0.3240 -0.1264  0.0997
 1343TIP3    H125520   5.145   1.392  11.386 -0.2337 -2.7106  0.8926
 1343TIP3    H225521   5.295   1.375  11.397  0.7633  3.1189 -0.6239
 1344TIP3   OH225522   1.274   3.169   4.659  0.0965 -0.2273  0.3639
 1344TIP3    H125523   1.258   3.240   4.721  0.9650 -0.4498  0.8586
 1344TIP3    H225524   1.256   3.089   4.708 -2.3894 -0.3673 -0.6327
 1345TIP3   OH225525   5.286   3.779  12.854  0.3681 -0.4975 -0.0304
 1345TIP3    H125526   5.308   3.820  12.938  0.4352  0.4643 -0.5095
 1345TIP3    H225527   5.218   3.715  12.876  1.0377 -0.9166  0.8938
 1346TIP3   OH225528   1.440   4.588  14.008 -0.5814  0.1934 -0.2410
 1346TIP3    H125529   1.448   4.683  14.014 -1.2849  0.2189  0.4146
 1346TIP3    H225530   1.364   4.573  13.953 -0.9231  0.0211  0.2677
 1347TIP3   OH225531   2.771   6.241   0.185  0.0140 -0.1431 -0.5270
 1347TIP3    H125532   2.679   6.238   0.158 -0.2298 -1.5831  0.3388
 1347TIP3    H225533   2.786   6.332   0.211 -0.4482  0.6950 -2.9726
 1348TIP3   OH225534   6.086   1.715  12.960  0.1340 -0.4698 -0.1785
 1348TIP3    H125535   6.023   1.674  12.901 -0.6620 -1.6350  1.4003
 1348TIP3    H225536   6.033   1.747  13.033  1.3851 -2.5555  1.7980
 1349TIP3   OH225537   3.404   6.482  15.357 -0.1011 -0.0238 -0.4358
 1349TIP3    H125538   3.405   6.573  15.387 -1.0275  0.5221 -1.9352
 1349TIP3    H225539   3.383   6.431  15.435 -1.5974  1.2518  0.0489
 1350TIP3   OH225540   3.619   3.667  13.596  0.0500 -0.0294 -0.5643
 1350TIP3    H125541   3.564   3.613  13.538 -1.0173 -0.0003  0.3831
 1350TIP3    H225542   3.693   3.693  13.542 -0.9573  0.0621 -1.9472
 1351TIP3   OH225543   0.197   6.146   3.077 -0.4328  0.3008  0.6757
 1351TIP3    H125544   0.241   6.211   3.021 -1.7287 -1.4560 -2.6495
 1351TIP3    H225545   0.119   6.191   3.108  0.0284  1.1545  0.6457
 1352TIP3   OH225546   6.531   4.670  11.493  0.3309 -0.2490  0.1108
 1352TIP3    H125547   6.444   4.683  11.454  0.1102  0.5433  0.8409
 1352TIP3    H225548   6.533   4.577  11.515 -0.4245 -0.2345  0.2851
 1353TIP3   OH225549   1.499   2.212  12.570 -0.7708 -0.1838 -0.1924
 1353TIP3    H125550   1.500   2.265  12.490 -0.7083 -1.1032 -0.8204
 1353TIP3    H225551   1.548   2.133  12.546 -1.8288 -1.0306  0.3606
 1354TIP3   OH225552   6.363   1.923   6.278 -0.4727 -0.6167 -0.1094
 1354TIP3    H125553   6.415   1.869   6.217  1.9490  0.8716  0.4915
 1354TIP3    H225554   6.272   1.906   6.253  0.3469 -1.2187 -3.1519
 1355TIP3   OH225555   0.026   0.694  13.692  0.0525  0.9911 -0.2123
 1355TIP3    H125556   0.032   0.662  13.602  1.0353  1.6071 -0.3750
 1355TIP3    H225557   0.017   0.789  13.683  0.2304  1.0635  0.3400
 1356TIP3   OH225558   5.738   2.170  15.824  0.0416 -0.3937 -0.0219
 1356TIP3    H125559   5.711   2.127  15.906 -0.9135 -1.7776 -1.0203
 1356TIP3    H225560   5.785   2.101  15.776 -2.1265 -0.6118 -1.9778
 1357TIP3   OH225561   0.628   2.138   4.333 -0.4642 -0.2889  0.7577
 1357TIP3    H125562   0.559   2.108   4.274  1.3044 -0.3445 -1.4147
 1357TIP3    H225563   0.649   2.227   4.303  1.9395 -1.0963 -0.2436
 1358TIP3   OH225564   6.075   4.066  14.544 -0.6107 -0.0951  0.5118
 1358TIP3    H125565   6.047   4.156  14.530 -1.0624 -0.3372 -0.2001
 1358TIP3    H225566   6.145   4.052  14.481  0.2677  0.1066  1.4177
 1359TIP3   OH225567   5.439   3.318   5.505  0.1823 -0.6981  0.3889
 1359TIP3    H125568   5.496   3.390   5.479 -0.2415 -0.1834  0.8533
 1359TIP3    H225569   5.363   3.326   5.446 -0.8324  0.5389  1.7755
 1360TIP3   OH225570   3.672   6.457  15.605  0.3027 -0.1513 -0.2644
 1360TIP3    H125571   3.670   6.405  15.525 -0.2774 -0.3534 -0.1250
 1360TIP3    H225572   3.698   6.544  15.577 -1.0369  0.0779 -0.8549
 1361TIP3   OH225573   0.228   0.722   4.487 -0.4317  0.6588  0.0376
 1361TIP3    H125574   0.309   0.691   4.447 -0.0460  1.1353  0.4495
 1361TIP3    H225575   0.240   0.707   4.581 -1.2762 -0.3233  0.0066
 1362TIP3   OH225576   1.350   4.598  12.643  0.1689 -0.3222  0.2541
 1362TIP3    H125577   1.314   4.660  12.707 -1.1849 -1.3443  0.5494
 1362TIP3    H225578   1.438   4.630  12.625 -0.7539  2.1725 -0.2767
 1363TIP3   OH225579   6.743   6.172  12.842 -0.5876 -0.4478 -0.4860
 1363TIP3    H125580   6.828   6.127  12.847 -0.4627 -0.1135  0.5276
 1363TIP3    H225581   6.766   6.264  12.831 -0.8178 -0.3253  0.0676
 1364TIP3   OH225582   0.591   4.032  15.757  0.3093  0.3425  0.2203
 1364TIP3    H125583   0.549   4.022  15.842  0.3331  3.5201  0.7156
 1364TIP3    H225584   0.548   3.967  15.701 -1.3449 -0.2262  2.0488
 1365TIP3   OH225585   0.626   2.314   1.534 -0.1083  0.3817  0.0616
 1365TIP3    H125586   0.699   2.282   1.587 -1.5453 -0.4572  1.6165
 1365TIP3    H225587   0.650   2.404   1.512  0.2366  1.0219  2.7468
 1366TIP3   OH225588   4.347   1.594  12.144 -0.3042  0.0314 -0.2331
 1366TIP3    H125589   4.422   1.625  12.195 -0.9413  0.5380  0.4349
 1366TIP3    H225590   4.274   1.646  12.178 -0.9605 -0.5007 -0.8276
 1367TIP3   OH225591   2.187   1.972  15.622 -0.6168  0.2038  0.4017
 1367TIP3    H125592   2.109   2.023  15.601 -0.6324 -0.1177 -0.3415
 1367TIP3    H225593   2.164   1.882  15.600  0.0794  0.1544 -0.1757
 1368TIP3   OH225594   5.813   4.012  13.591 -0.7903  0.2495 -0.2639
 1368TIP3    H125595   5.730   4.028  13.546 -1.1435  0.5576  0.4799
 1368TIP3    H225596   5.839   4.098  13.624 -1.4192 -0.2283  1.6036
 1369TIP3   OH225597   6.628   2.865  16.203 -0.1504 -0.1050 -0.3192
 1369TIP3    H125598   6.585   2.940  16.243  2.0044  0.5556  0.8657
 1369TIP3    H225599   6.711   2.898  16.171 -0.1271 -1.5079 -1.8662
 1370TIP3   OH225600   2.282   5.412   2.326 -0.2208 -0.7818 -0.0713
 1370TIP3    H125601   2.208   5.386   2.380 -0.8765 -0.8603 -0.9771
 1370TIP3    H225602   2.356   5.417   2.386  0.1863 -5.3753  0.2065
 1371TIP3   OH225603   6.681   1.925  14.845  0.2925 -0.3478 -0.1603
 1371TIP3    H125604   6.766   1.884  14.858  1.3739  1.6235 -0.7057
 1371TIP3    H225605   6.642   1.877  14.772  1.8166  0.0164 -1.2534
 1372TIP3   OH225606   2.257   5.418  16.297 -0.2659 -0.6357  0.4051
 1372TIP3    H125607   2.224   5.396  16.210  1.5894 -1.0026 -0.2524
 1372TIP3    H225608   2.197   5.486  16.329 -0.5334  0.0721 -1.4758
 1373TIP3   OH225609   4.704   4.606   2.509  0.5240  0.1884  0.2395
 1373TIP3    H125610   4.621   4.646   2.485  0.5351  0.6071  0.8776
 1373TIP3    H225611   4.735   4.658   2.583  0.5260 -0.9903  1.1039
 1374TIP3   OH225612   1.637   2.727  12.432 -0.3017  0.3889  0.4223
 1374TIP3    H125613   1.707   2.752  12.493  0.9001  0.2408 -0.8508
 1374TIP3    H225614   1.556   2.744  12.480  0.6074 -0.1500  2.2196
 1375TIP3   OH225615   2.190   5.930   4.312  0.1208  0.3200  0.1243
 1375TIP3    H125616   2.276   5.888   4.318 -0.1164 -0.2070 -0.1022
 1375TIP3    H225617   2.153   5.921   4.400  0.7010  1.4512  0.5050
 1376TIP3   OH225618   6.482   4.267   4.045  0.5123  0.4189 -0.0302
 1376TIP3    H125619   6.548   4.201   4.022 -0.5273 -0.8380  0.4384
 1376TIP3    H225620   6.452   4.301   3.961  0.7799 -0.0147 -0.3055
 1377TIP3   OH225621   3.458   6.622  13.458  0.0800  0.1116  0.0420
 1377TIP3    H125622   3.524   6.572  13.411 -1.1661  0.0396 -1.7379
 1377TIP3    H225623   3.397   6.557  13.492 -1.3255  0.2864 -1.9402
 1378TIP3   OH225624   0.342   2.334   4.869  0.5453 -0.1860 -0.2882
 1378TIP3    H125625   0.388   2.273   4.928  0.9591  1.0305  0.7018
 1378TIP3    H225626   0.412   2.385   4.828  0.1564  0.9602  0.4162
 1379TIP3   OH225627   5.494   2.640   1.530 -0.3270  0.3263  0.4698
 1379TIP3    H125628   5.561   2.707   1.518 -0.9309  1.1501  1.6122
 1379TIP3    H225629   5.540   2.567   1.571 -0.0308  0.6913  0.7827
 1380TIP3   OH225630   2.674   6.338  16.429  0.2997 -0.3307  0.1882
 1380TIP3    H125631   2.680   6.246  16.405 -2.3707 -0.8776  1.2339
 1380TIP3    H225632   2.631   6.380  16.354 -1.9334 -0.7483  1.1500
 1381TIP3   OH225633   3.927   0.594  13.721 -0.6988 -0.2550 -0.2708
 1381TIP3    H125634   3.840   0.609  13.684 -1.3900 -0.4863  1.1924
 1381TIP3    H225635   3.973   0.677  13.710 -0.2054 -0.8163 -3.2572
 1382TIP3   OH225636   3.456   2.683   5.702 -0.6674  0.3614 -0.0645
 1382TIP3    H125637   3.516   2.657   5.772  0.0101 -0.5286 -0.9434
 1382TIP3    H225638   3.369   2.673   5.740 -0.3396 -0.9178  0.4123
 1383TIP3   OH225639   4.220   4.235   3.118 -0.1022 -0.3782 -0.2097
 1383TIP3    H125640   4.167   4.200   3.047 -3.6445  2.6042  0.6507
 1383TIP3    H225641   4.193   4.185   3.195 -1.5636  0.8916  0.1584
 1384TIP3   OH225642   1.975   1.228   4.974 -0.3012 -0.5237 -0.2036
 1384TIP3    H125643   1.963   1.138   5.003 -0.1676  0.1697  2.2092
 1384TIP3    H225644   2.069   1.244   4.983 -0.3678 -0.0394 -0.2970
 1385TIP3   OH225645   2.926   3.059   1.007  0.2134  0.0021  0.3964
 1385TIP3    H125646   2.870   3.115   1.062 -1.3559 -0.1489 -0.9816
 1385TIP3    H225647   2.958   3.117   0.939  1.2302 -0.0711  0.7994
 1386TIP3   OH225648   1.633   5.204  11.237 -0.3363  0.2822  0.2996
 1386TIP3    H125649   1.672   5.120  11.260 -2.8226 -0.6905  1.3640
 1386TIP3    H225650   1.677   5.230  11.156  2.6852 -0.4588  1.5646
 1387TIP3   OH225651   2.237   5.388  14.887  0.4268  0.1217 -0.1313
 1387TIP3    H125652   2.164   5.337  14.923  0.8828  0.4068  1.2348
 1387TIP3    H225653   2.207   5.479  14.891 -0.1118  0.0736 -1.9307
 1388TIP3   OH225654   2.337   0.960  13.912  0.0268 -0.1599  0.1462
 1388TIP3    H125655   2.297   1.045  13.932 -1.9466 -0.9558 -0.2007
 1388TIP3    H225656   2.356   0.922  13.998 -1.4442 -0.3909  0.4070
 1389TIP3   OH225657   1.789   0.311   1.304  0.5161  0.0574  0.9190
 1389TIP3    H125658   1.748   0.390   1.339 -1.4343 -0.1675 -0.6702
 1389TIP3    H225659   1.839   0.342   1.228 -0.1152 -0.1605  0.3956
 1390TIP3   OH225660   4.585   5.786  13.564  0.3073 -0.0812 -0.7941
 1390TIP3    H125661   4.506   5.838  13.547  0.3277 -0.2073 -1.2941
 1390TIP3    H225662   4.558   5.721  13.629  0.8564  1.9680  1.6423
 1391TIP3   OH225663   2.990   4.112   6.217  0.0435  0.0797  0.3211
 1391TIP3    H125664   2.977   4.198   6.257 -0.2739 -0.0707  0.5354
 1391TIP3    H225665   2.916   4.059   6.247 -0.3049  0.0218 -0.6044
 1392TIP3   OH225666   2.232   4.407  13.372  0.3252 -0.5038 -0.1855
 1392TIP3    H125667   2.185   4.356  13.306  0.4438 -1.0907  0.1727
 1392TIP3    H225668   2.257   4.488  13.327 -2.2018  0.4556 -0.0104
 1393TIP3   OH225669   0.452   3.502  16.467 -0.0979  0.1291  0.1836
 1393TIP3    H125670   0.535   3.547  16.480 -1.2041  2.4864 -0.3002
 1393TIP3    H225671   0.415   3.543  16.389 -1.8720 -0.5852  0.6014
 1394TIP3   OH225672   0.324   3.881  13.570 -0.5065 -0.2290 -0.1786
 1394TIP3    H125673   0.356   3.893  13.480  1.3074  1.3131  0.6137
 1394TIP3    H225674   0.335   3.966  13.611 -3.0394 -0.3999  1.0503
 1395TIP3   OH225675   5.382   6.308   2.455 -0.5839 -0.2799  0.8303
 1395TIP3    H125676   5.459   6.345   2.412 -0.3477 -3.1791 -1.5505
 1395TIP3    H225677   5.343   6.382   2.501 -0.4307  3.0960 -3.7521
 1396TIP3   OH225678   0.340   2.194   5.531  0.7051 -0.0995 -0.4911
 1396TIP3    H125679   0.411   2.244   5.570  0.2797  0.2339 -0.1420
 1396TIP3    H225680   0.265   2.253   5.532 -0.0608 -1.0323  0.7798
 1397TIP3   OH225681   4.517   4.695  10.853 -0.6561 -0.0181  0.0736
 1397TIP3    H125682   4.435   4.741  10.836 -1.9326 -1.6361  1.5049
 1397TIP3    H225683   4.559   4.688  10.767 -0.6900  3.1098 -0.3138
 1398TIP3   OH225684   4.746   5.312  13.911  0.3320  0.0080 -0.3079
 1398TIP3    H125685   4.752   5.221  13.940  1.3878  0.1766  0.0726
 1398TIP3    H225686   4.689   5.309  13.834 -0.9108 -0.7320  0.6136
 1399TIP3   OH225687   0.119   3.054  11.611  0.2413 -0.1773  0.0575
 1399TIP3    H125688   0.093   2.966  11.584 -2.8422  0.3898  0.7264
 1399TIP3    H225689   0.140   3.099  11.529 -0.3343 -0.9184 -0.5148
 1400TIP3   OH225690   1.714   6.832  14.912 -0.1857 -0.2929 -0.2184
 1400TIP3    H125691   1.787   6.777  14.940 -1.0145 -0.6898  1.2585
 1400TIP3    H225692   1.733   6.918  14.950 -0.0799 -0.1847 -0.5166
 1401TIP3   OH225693   0.249   4.823   1.536  0.1460  0.4949  0.1257
 1401TIP3    H125694   0.227   4.884   1.607 -0.3714  1.2119 -0.6296
 1401TIP3    H225695   0.168   4.774   1.521  0.8793 -1.2813  1.5363
 1402TIP3   OH225696   2.975   5.530  11.750 -0.8772 -0.6253  0.7521
 1402TIP3    H125697   2.981   5.468  11.823 -0.3522  0.2201  1.4582
 1402TIP3    H225698   2.886   5.519  11.717 -0.6581 -2.0432  0.5789
 1403TIP3   OH225699   4.462   4.952  14.070 -0.6974 -0.3622  0.3209
 1403TIP3    H125700   4.504   4.879  14.024  1.2385  0.8916 -0.0262
 1403TIP3    H225701   4.485   4.940  14.162 -0.4181 -0.2100  0.2707
 1404TIP3   OH225702   0.976   0.438   4.257  0.7018 -0.2906  0.1967
 1404TIP3    H125703   1.064   0.462   4.229  0.4995  0.8466  0.5000
 1404TIP3    H225704   0.955   0.500   4.327 -1.3829  1.2819 -1.6768
 1405TIP3   OH225705   3.751   2.683  11.328  0.6346 -0.4754  0.0450
 1405TIP3    H125706   3.830   2.687  11.274  0.2744  1.1908 -0.4100
 1405TIP3    H225707   3.710   2.769  11.317 -1.8168 -1.6416 -0.5643
 1406TIP3   OH225708   3.527   4.244   1.022  0.5343 -0.0605 -0.2697
 1406TIP3    H125709   3.509   4.181   1.091  0.0105  0.1791 -0.1787
 1406TIP3    H225710   3.610   4.216   0.984  0.1750 -0.9644 -0.4059
 1407TIP3   OH225711   5.134   1.223   1.693 -0.1667  0.8496 -0.7175
 1407TIP3    H125712   5.165   1.136   1.717  0.1881  0.9365 -0.8572
 1407TIP3    H225713   5.040   1.221   1.711  0.0236  0.7909  0.3399
 1408TIP3   OH225714   4.249   2.208  15.809  0.2778 -0.2707 -0.5192
 1408TIP3    H125715   4.293   2.147  15.868 -1.4618 -0.7071  0.3963
 1408TIP3    H225716   4.304   2.211  15.731  1.4715 -1.4030  0.2480
 1409TIP3   OH225717   4.608   2.037  11.737  0.2152  0.7005  0.3640
 1409TIP3    H125718   4.520   2.036  11.699  0.6240  0.0064 -0.6283
 1409TIP3    H225719   4.594   2.030  11.831 -0.8306  2.0245  0.3392
 1410TIP3   OH225720   4.238   4.121  15.670  0.0716  0.1626 -0.7012
 1410TIP3    H125721   4.311   4.117  15.608  0.3397  1.6301 -0.4990
 1410TIP3    H225722   4.235   4.033  15.709 -0.4137 -0.9574 -3.0976
 1411TIP3   OH225723   0.905   0.319   1.880  0.6956 -0.4548  0.2276
 1411TIP3    H125724   0.833   0.338   1.820  1.3292 -1.0147 -0.7337
 1411TIP3    H225725   0.925   0.403   1.921 -0.9476 -0.4146  1.0273
 1412TIP3   OH225726   5.080   4.395  15.872 -0.0369  0.5900  0.1403
 1412TIP3    H125727   5.033   4.465  15.826 -0.4004 -1.1588 -2.3804
 1412TIP3    H225728   5.168   4.429  15.886 -0.7796  2.2910  0.9040
 1413TIP3   OH225729   6.363   4.835   2.863 -0.1933 -0.2821 -0.0341
 1413TIP3    H125730   6.310   4.880   2.929  0.6620  1.5516 -0.5435
 1413TIP3    H225731   6.348   4.884   2.783  1.3169 -0.4779 -0.4529
 1414TIP3   OH225732   3.948   4.329   0.999 -0.2380 -0.1243  0.3354
 1414TIP3    H125733   3.923   4.275   1.073 -3.3056  0.8891  0.1730
 1414TIP3    H225734   3.944   4.270   0.923  0.0814 -0.4915  0.5991
 1415TIP3   OH225735   2.499   2.310   6.080 -0.7376 -0.2227 -0.6274
 1415TIP3    H125736   2.447   2.235   6.110  0.3287 -1.0993 -0.9368
 1415TIP3    H225737   2.498   2.370   6.155 -0.3298 -1.2164  0.1999
 1416TIP3   OH225738   1.053   5.036   3.573 -0.1688  0.0247  0.1307
 1416TIP3    H125739   1.088   5.101   3.512 -2.8364  1.3524 -0.1679
 1416TIP3    H225740   0.967   5.013   3.536 -0.4918 -1.5750  1.7340
 1417TIP3   OH225741   3.141   2.492   0.391 -0.6343  0.9758 -0.2698
 1417TIP3    H125742   3.060   2.495   0.340 -0.3704 -1.1148 -0.9094
 1417TIP3    H225743   3.112   2.478   0.481 -1.0513 -1.9861 -0.7533
 1418TIP3   OH225744   4.363   6.777  15.737  0.3163  0.3057 -0.0536
 1418TIP3    H125745   4.447   6.735  15.714 -0.6102 -1.2826 -0.6835
 1418TIP3    H225746   4.333   6.730  15.814 -1.3392 -1.1545 -1.4906
 1419TIP3   OH225747   4.117   5.833   2.894  0.3184 -0.1308  0.2969
 1419TIP3    H125748   4.177   5.758   2.893 -1.1604 -1.3636 -0.2935
 1419TIP3    H225749   4.154   5.894   2.830  1.6488 -0.2400  0.9198
 1420TIP3   OH225750   3.479   4.277   3.871 -0.2479  0.4880 -0.6123
 1420TIP3    H125751   3.424   4.267   3.948 -1.0163  3.0476 -0.7602
 1420TIP3    H225752   3.465   4.196   3.821 -3.2142  0.6698 -0.2269
 1421TIP3   OH225753   6.633   4.075   3.935  0.2260 -0.2492 -0.1562
 1421TIP3    H125754   6.646   4.091   3.842 -0.2321 -0.3814 -0.2470
 1421TIP3    H225755   6.645   3.981   3.945 -0.3860 -0.3410 -0.2050
 1422TIP3   OH225756   5.144   5.419  12.237  0.1805 -0.2350  0.1557
 1422TIP3    H125757   5.182   5.374  12.312 -2.4922 -1.6661  0.7604
 1422TIP3    H225758   5.198   5.390  12.163  0.9639 -1.2838  1.0902
 1423TIP3   OH225759   6.760   3.417  12.137  0.5179 -0.3223 -0.1159
 1423TIP3    H125760   6.711   3.454  12.211 -0.5173 -2.4022  0.3334
 1423TIP3    H225761   6.851   3.441  12.153  0.3425 -0.8844  1.9699
 1424TIP3   OH225762   5.965   3.497   0.751  0.3032  0.0440 -0.0090
 1424TIP3    H125763   5.952   3.472   0.842 -0.4978  1.3348  0.2578
 1424TIP3    H225764   5.876   3.507   0.716  0.6019  0.4531 -0.6779
 1425TIP3   OH225765   3.229   3.606  15.841 -0.2038 -0.6647  0.4300
 1425TIP3    H125766   3.206   3.620  15.749  0.5157 -1.2458  0.1526
 1425TIP3    H225767   3.145   3.590  15.884 -0.8572  2.0756  0.3692
 1426TIP3   OH225768   4.744   3.522   4.312 -0.0753 -0.3464  0.4723
 1426TIP3    H125769   4.762   3.615   4.298  0.3731 -0.4149  0.5907
 1426TIP3    H225770   4.737   3.512   4.407 -0.1169 -0.4325  0.4606
 1427TIP3   OH225771   4.813   1.003   1.957 -0.4041  0.0382  0.1254
 1427TIP3    H125772   4.758   0.926   1.965  2.5703 -2.3154 -0.3710
 1427TIP3    H225773   4.838   1.005   1.864  2.5367 -0.7630  0.7888
 1428TIP3   OH225774   3.206   3.663   2.442 -0.7043  0.0045 -0.1364
 1428TIP3    H125775   3.153   3.703   2.510 -2.7802 -0.0871 -1.6038
 1428TIP3    H225776   3.198   3.722   2.367  2.7839  0.9417  0.0291
 1429TIP3   OH225777   3.054   5.233  15.395  0.1858 -0.4303 -0.0726
 1429TIP3    H125778   3.119   5.188  15.448  1.0807 -0.8448 -1.4793
 1429TIP3    H225779   2.970   5.212  15.437  0.8026 -1.2336  0.8043
 1430TIP3   OH225780   4.932   3.937  12.374 -0.0228  0.4742 -0.7274
 1430TIP3    H125781   4.850   3.908  12.334 -1.0155  0.3646  1.2411
 1430TIP3    H225782   4.932   4.032  12.365 -0.2255  0.4479 -0.9959
 1431TIP3   OH225783   2.176   1.566   0.386  0.5113 -0.1097 -0.3375
 1431TIP3    H125784   2.227   1.572   0.466  0.7980 -0.9055 -0.4472
 1431TIP3    H225785   2.241   1.575   0.316  0.3426  0.0127 -0.4782
 1432TIP3   OH225786   6.211   1.127   1.694 -0.1331  0.2469 -0.2356
 1432TIP3    H125787   6.148   1.139   1.764 -0.8488 -0.9614 -0.6491
 1432TIP3    H225788   6.290   1.095   1.738  0.1353  1.5371  0.2520
 1433TIP3   OH225789   2.455   0.407   0.509  0.3426  0.5700  0.7115
 1433TIP3    H125790   2.538   0.420   0.554  1.0028  0.8012 -0.5248
 1433TIP3    H225791   2.473   0.429   0.418 -0.6288 -1.0215  0.0832
 1434TIP3   OH225792   4.575   4.290  13.029  0.8023  0.5292  0.5563
 1434TIP3    H125793   4.623   4.275  12.948  0.9741  0.7778  0.6123
 1434TIP3    H225794   4.598   4.379  13.055 -0.2521  0.9162  0.2066
 1435TIP3   OH225795   4.300   3.435  15.010  0.0604  0.2976 -0.1319
 1435TIP3    H125796   4.337   3.437  14.921 -0.2189  1.3753 -0.2471
 1435TIP3    H225797   4.205   3.434  14.996  0.0169 -0.4925  0.1636
 1436TIP3   OH225798   2.475   5.220  10.429 -0.3815 -0.3139 -0.0327
 1436TIP3    H125799   2.556   5.186  10.467 -0.0090  1.3338  0.7554
 1436TIP3    H225800   2.501   5.249  10.341 -0.2447 -0.3477 -0.0048
 1437TIP3   OH225801   5.546   6.104  16.756  0.8757  0.0637 -0.2998
 1437TIP3    H125802   5.534   6.065  16.842 -0.2504  0.2179 -0.3681
 1437TIP3    H225803   5.630   6.150  16.762  1.8033 -1.5676  0.0623
 1438TIP3   OH225804   4.369   3.439   4.049  0.0834 -0.1875 -0.1184
 1438TIP3    H125805   4.441   3.419   3.990 -2.3430 -2.5672 -2.6337
 1438TIP3    H225806   4.345   3.529   4.029  0.4412 -0.3822 -1.5338
 1439TIP3   OH225807   1.985   3.987   5.388  0.4154 -0.0256  0.3895
 1439TIP3    H125808   1.920   4.049   5.420 -0.0043 -0.0172 -0.4428
 1439TIP3    H225809   1.956   3.902   5.421 -0.6192 -0.1732 -0.8129
 1440TIP3   OH225810   5.856   3.559  16.403  0.6295  0.1228  0.0887
 1440TIP3    H125811   5.894   3.525  16.322 -0.9866 -0.2282 -0.5592
 1440TIP3    H225812   5.830   3.481  16.452 -2.0087  0.2724 -0.8768
 1441TIP3   OH225813   2.439   0.319   6.425 -0.0117 -0.0153  0.3272
 1441TIP3    H125814   2.351   0.354   6.414  0.4518  0.6706 -1.4916
 1441TIP3    H225815   2.489   0.390   6.465  0.6163  1.1078 -2.2158
 1442TIP3   OH225816   3.026   6.792   1.501 -1.0388 -0.0711  0.3071
 1442TIP3    H125817   3.033   6.788   1.406  0.2005  1.8238  0.2726
 1442TIP3    H225818   2.972   6.869   1.518 -0.2944  0.2741  1.1632
 1443TIP3   OH225819   1.541   3.028  10.605  0.0989  0.1394 -0.0989
 1443TIP3    H125820   1.566   2.949  10.651  0.5165 -1.4171 -2.7755
 1443TIP3    H225821   1.491   3.079  10.669  1.6589 -1.2467  2.3484
 1444TIP3   OH225822   3.600   5.648   5.329  0.4550  0.9668 -0.1039
 1444TIP3    H125823   3.608   5.566   5.280 -2.7927 -0.3944  1.2894
 1444TIP3    H225824   3.658   5.637   5.405 -0.1287 -0.2040  0.1976
 1445TIP3   OH225825   2.661   4.263   5.589  0.6073 -0.0440 -0.2426
 1445TIP3    H125826   2.681   4.212   5.511  0.8101 -1.0888  0.4736
 1445TIP3    H225827   2.689   4.352   5.568 -0.7746  0.0496 -1.9400
 1446TIP3   OH225828   1.346   0.931   4.724 -0.1886  0.1083  0.3356
 1446TIP3    H125829   1.349   1.015   4.768  0.2210  0.6704 -0.7314
 1446TIP3    H225830   1.273   0.939   4.662 -0.7245 -0.6468  0.8485
 1447TIP3   OH225831   0.031   2.160  14.751  0.0246 -0.0961  0.1061
 1447TIP3    H125832   0.023   2.198  14.664 -1.3449 -0.0116  0.2543
 1447TIP3    H225833  -0.031   2.087  14.751 -0.0204 -0.0640  1.0288
 1448TIP3   OH225834   6.297   2.506   0.419  0.1777 -0.0329 -0.2781
 1448TIP3    H125835   6.351   2.450   0.475 -3.3149 -3.7480 -0.2377
 1448TIP3    H225836   6.323   2.484   0.330 -0.7609 -1.3810 -0.2449
 1449TIP3   OH225837   2.653   2.746  11.464  0.2300  0.0828  0.2054
 1449TIP3    H125838   2.692   2.679  11.520 -1.0231 -1.5776 -0.8242
 1449TIP3    H225839   2.564   2.756  11.496  0.0312  0.3642 -0.4053
 1450TIP3   OH225840   0.834   0.416   5.647 -0.1998  0.2642 -0.2587
 1450TIP3    H125841   0.828   0.409   5.743  2.1453 -0.0504 -0.0577
 1450TIP3    H225842   0.789   0.497   5.626  1.5964  1.8497  1.5029
 1451TIP3   OH225843   4.051   0.502  10.669  0.3323  0.3875 -0.1808
 1451TIP3    H125844   4.072   0.591  10.641  2.9889 -0.4779 -1.3039
 1451TIP3    H225845   3.985   0.472  10.608  0.6013  1.0626 -0.8221
 1452TIP3   OH225846   1.780   6.123   3.209  0.4411 -0.0770 -0.2539
 1452TIP3    H125847   1.792   6.029   3.224 -1.3116 -0.1417  1.1457
 1452TIP3    H225848   1.829   6.166   3.279 -0.3106 -0.0332  0.2538
 1453TIP3   OH225849   5.199   2.333  12.456  0.6954  0.0474  0.3618
 1453TIP3    H125850   5.294   2.319  12.448  0.8209  1.7409 -1.6598
 1453TIP3    H225851   5.164   2.306  12.372 -0.4683  0.7486  0.6134
 1454TIP3   OH225852   2.188   0.736  13.972 -0.0730  0.2790  0.1701
 1454TIP3    H125853   2.228   0.804  13.919 -1.9962 -0.0948 -1.8805
 1454TIP3    H225854   2.208   0.654  13.926 -1.1585 -0.1384  0.4117
 1455TIP3   OH225855   1.267   6.724  16.035  0.4801  0.9852  0.7427
 1455TIP3    H125856   1.186   6.677  16.017 -0.6874  2.6607  1.4025
 1455TIP3    H225857   1.279   6.717  16.130  1.4017  0.3523  0.6035
 1456TIP3   OH225858   0.603   4.565   4.978 -0.3801 -0.5824  0.2754
 1456TIP3    H125859   0.633   4.476   5.000  0.3316 -0.2288  0.7787
 1456TIP3    H225860   0.518   4.573   5.020  0.4901 -0.2965  2.0488
 1457TIP3   OH225861   0.895   3.286  13.364 -0.3548 -0.1051  0.7778
 1457TIP3    H125862   0.990   3.296  13.359 -0.2834  0.2688  2.4039
 1457TIP3    H225863   0.881   3.192  13.354  0.3678 -0.4183  2.3158
 1458TIP3   OH225864   1.482   1.987  11.042 -0.5104 -0.1166 -0.0846
 1458TIP3    H125865   1.420   1.919  11.066 -0.0861 -0.2441  0.6873
 1458TIP3    H225866   1.461   2.009  10.951 -0.7409 -1.1680 -0.2893
 1459TIP3   OH225867   1.405   0.432  14.349  0.0064  0.6645  0.1764
 1459TIP3    H125868   1.474   0.493  14.375 -0.5537  0.8796  1.2421
 1459TIP3    H225869   1.324   0.476  14.374 -0.4093 -0.6139  1.2122
 1460TIP3   OH225870   6.316   4.144   3.551 -0.6073  0.3418 -0.0072
 1460TIP3    H125871   6.245   4.081   3.560 -0.9205  0.6400 -0.3863
 1460TIP3    H225872   6.341   4.140   3.459  0.0829  0.0136  0.1812
 1461TIP3   OH225873   0.844   0.303  15.714  0.0324 -0.2704  0.3011
 1461TIP3    H125874   0.752   0.276  15.707 -0.9134  1.8645  2.9471
 1461TIP3    H225875   0.840   0.398  15.725  2.5501 -0.1708  0.8702
 1462TIP3   OH225876   4.492   0.499  12.071  0.8549 -0.6640  0.0698
 1462TIP3    H125877   4.507   0.536  11.984 -0.1611  2.2258  1.0149
 1462TIP3    H225878   4.562   0.536  12.125  1.3617 -2.2793  0.5687
 1463TIP3   OH225879   0.729   3.310  14.919 -0.1305 -0.2336  0.5107
 1463TIP3    H125880   0.660   3.261  14.875  1.2677  0.5762 -2.8351
 1463TIP3    H225881   0.686   3.348  14.996 -3.6989  0.9253 -1.8227
 1464TIP3   OH225882   1.843   1.578   0.109  0.5273 -0.4906 -0.0822
 1464TIP3    H125883   1.927   1.593   0.066  0.3543  2.3110  0.4045
 1464TIP3    H225884   1.819   1.662   0.148 -1.6069 -1.6849  1.4531
 1465TIP3   OH225885   2.960   5.464   3.849  0.0312 -0.2974 -0.2304
 1465TIP3    H125886   2.991   5.462   3.759 -1.8568  0.0049 -0.9516
 1465TIP3    H225887   2.962   5.557   3.873  0.1321 -0.3296 -0.1130
 1466TIP3   OH225888   5.565   1.831   5.119 -0.2870  0.1560  0.5544
 1466TIP3    H125889   5.626   1.902   5.139  0.7767 -0.7723  0.7482
 1466TIP3    H225890   5.478   1.870   5.125  0.2458  1.2474  1.4278
 1467TIP3   OH225891   2.346   3.394  12.060 -0.6425 -0.6231 -0.4521
 1467TIP3    H125892   2.398   3.447  12.000 -0.5551 -1.3705 -1.0577
 1467TIP3    H225893   2.256   3.419  12.043 -0.5129  0.4984  0.4263
 1468TIP3   OH225894   6.188   2.836  15.953 -0.1456  0.2304  0.5535
 1468TIP3    H125895   6.265   2.785  15.979 -0.6742 -1.2806 -0.6645
 1468TIP3    H225896   6.217   2.885  15.877 -0.5813 -1.0257 -0.4601
 1469TIP3   OH225897   5.317   0.074  13.549  0.2995 -0.4603  0.4598
 1469TIP3    H125898   5.373   0.006  13.512  0.5694 -0.7202  1.3306
 1469TIP3    H225899   5.271   0.111  13.473  1.3994 -0.4631 -0.2239
 1470TIP3   OH225900   4.379   2.785   2.211 -0.0224  0.3847 -0.2921
 1470TIP3    H125901   4.313   2.825   2.155 -0.7630 -1.2325 -0.6489
 1470TIP3    H225902   4.423   2.722   2.153  0.3853 -0.0545  0.4903
 1471TIP3   OH225903   2.454   6.109  12.323 -0.1111  0.6945  0.1746
 1471TIP3    H125904   2.408   6.192  12.307  1.6783  1.5440 -0.7920
 1471TIP3    H225905   2.515   6.129  12.393 -1.0424 -0.3971  1.3585
 1472TIP3   OH225906   5.007   6.232  13.223  0.0621 -0.7284  0.0984
 1472TIP3    H125907   4.979   6.238  13.314  0.2277 -1.1568  0.1815
 1472TIP3    H225908   5.087   6.286  13.219 -0.2528 -0.2617  0.0755
 1473TIP3   OH225909   3.924   2.706   1.219 -0.1653  0.1505 -0.1159
 1473TIP3    H125910   3.981   2.782   1.231 -0.3395 -0.0932  3.2604
 1473TIP3    H225911   3.937   2.680   1.128  1.9683  2.5441 -0.6086
 1474TIP3   OH225912   5.520   1.104   1.215  0.3699  0.9703  0.4021
 1474TIP3    H125913   5.613   1.080   1.213  0.0340 -0.5616 -2.2045
 1474TIP3    H225914   5.519   1.198   1.198  1.4582  0.7490 -1.1438
 1475TIP3   OH225915   6.108   0.890  13.876  0.0804  0.5438 -0.8273
 1475TIP3    H125916   6.175   0.823  13.894  0.3138  0.7576 -0.8953
 1475TIP3    H225917   6.126   0.959  13.940 -0.5117  0.2943 -0.3831
 1476TIP3   OH225918   3.314   4.274  12.199 -0.4105 -0.0469 -0.5050
 1476TIP3    H125919   3.334   4.308  12.111  0.2831  1.4838  0.2017
 1476TIP3    H225920   3.219   4.279  12.206 -0.6503 -1.7356 -1.7283
 1477TIP3   OH225921   5.219   3.401   5.365  0.3899 -0.1856 -0.1431
 1477TIP3    H125922   5.263   3.437   5.288 -0.6601  1.5773  0.0351
 1477TIP3    H225923   5.129   3.386   5.337  0.3716 -1.0177  0.3163
 1478TIP3   OH225924   3.103   2.401  16.100  0.0760  0.2245  0.5424
 1478TIP3    H125925   3.134   2.486  16.130 -0.1988  0.1535  1.0578
 1478TIP3    H225926   3.019   2.390  16.145 -0.9814  0.6635 -1.2247
 1479TIP3   OH225927   3.082   4.140   5.169 -0.4829 -0.5616 -0.3997
 1479TIP3    H125928   3.156   4.088   5.138  0.7629 -0.7934  2.6231
 1479TIP3    H225929   3.122   4.220   5.203 -1.5675 -0.7054  1.3231
 1480TIP3   OH225930   4.560   4.196  13.757 -0.0765  0.0426 -0.0458
 1480TIP3    H125931   4.632   4.133  13.753  0.8659  1.0890 -0.3394
 1480TIP3    H225932   4.497   4.164  13.693  0.8212 -0.1080 -0.8844
 1481TIP3   OH225933   3.372   0.255   4.440  0.4717  0.1518 -0.0285
 1481TIP3    H125934   3.283   0.273   4.410  1.0043 -0.6225 -2.3194
 1481TIP3    H225935   3.425   0.324   4.401  0.8852  0.6119  1.3310
 1482TIP3   OH225936   3.699   6.705   0.361  0.0557  0.3406  0.1305
 1482TIP3    H125937   3.726   6.719   0.270 -0.9809  3.9285  0.2215
 1482TIP3    H225938   3.707   6.791   0.401 -2.0970 -0.5531  2.7286
 1483TIP3   OH225939   3.703   3.704  12.934  0.5737 -0.1232 -0.0417
 1483TIP3    H125940   3.747   3.759  12.999  0.9467  1.6390 -1.6978
 1483TIP3    H225941   3.611   3.730  12.937  0.4801 -0.4627  0.1621
 1484TIP3   OH225942   2.273   4.793   3.670 -0.1996  0.0002 -1.0496
 1484TIP3    H125943   2.345   4.731   3.658 -0.8668 -0.5387 -2.4996
 1484TIP3    H225944   2.195   4.745   3.642 -1.5564 -0.2402  2.5351
 1485TIP3   OH225945   5.189   4.125  13.346 -0.5267 -0.1564  0.2377
 1485TIP3    H125946   5.185   4.208  13.394 -0.0616 -0.0865  0.1612
 1485TIP3    H225947   5.201   4.152  13.255  1.0659 -0.3144  0.3682
 1486TIP3   OH225948   1.197   0.289  14.871  0.2415  0.4657  0.2514
 1486TIP3    H125949   1.242   0.327  14.946  0.6062 -0.4051  0.4837
 1486TIP3    H225950   1.189   0.196  14.892  0.1083  0.2551 -0.6721
 1487TIP3   OH225951   3.040   4.663   1.488 -0.1293 -0.8826  0.4971
 1487TIP3    H125952   2.979   4.717   1.437 -1.7306 -0.3346  2.8610
 1487TIP3    H225953   3.080   4.605   1.423 -1.5068  0.2689 -1.4796
 1488TIP3   OH225954   1.244   4.167   1.915 -0.0256  0.1129  0.0722
 1488TIP3    H125955   1.222   4.111   1.841  2.2506 -0.9998  0.1845
 1488TIP3    H225956   1.307   4.230   1.881  1.6933 -0.9301  1.2028
 1489TIP3   OH225957   4.402   2.013  15.126  0.0562  0.2178 -0.3114
 1489TIP3    H125958   4.380   1.932  15.080  1.0696 -0.4110  0.2621
 1489TIP3    H225959   4.392   1.992  15.219 -1.2351  1.2492 -0.1845
 1490TIP3   OH225960   5.374   6.503   0.467  0.6345 -0.0337 -0.1353
 1490TIP3    H125961   5.317   6.526   0.541 -0.7448  2.3670 -1.8229
 1490TIP3    H225962   5.435   6.576   0.461  0.5376 -0.0545 -1.5416
 1491TIP3   OH225963   1.166   1.088  13.564  0.2656  0.2568 -0.4850
 1491TIP3    H125964   1.108   1.093  13.641  0.5448  0.3850 -0.2840
 1491TIP3    H225965   1.180   1.178  13.538 -0.9468  0.1756 -1.5384
 1492TIP3   OH225966   4.741   0.592   6.076 -0.2258  0.7502  0.1638
 1492TIP3    H125967   4.664   0.575   6.021 -0.1235  0.5526  0.0812
 1492TIP3    H225968   4.715   0.562   6.163 -0.3380  0.9332  0.1938
 1493TIP3   OH225969   3.699   4.220   3.083  0.8340 -0.3862  0.2204
 1493TIP3    H125970   3.624   4.255   3.034  0.9947 -0.3926 -0.0322
 1493TIP3    H225971   3.669   4.135   3.115  0.7469 -0.4073  0.0856
 1494TIP3   OH225972   4.911   5.022  14.603  0.4340  1.1680 -0.0593
 1494TIP3    H125973   4.948   5.085  14.665  0.0103  0.8047  0.5729
 1494TIP3    H225974   4.957   5.039  14.521 -0.9674  3.5801 -0.4233
 1495TIP3   OH225975   2.122   1.598   6.142 -0.3417 -0.5624 -0.1761
 1495TIP3    H125976   2.037   1.556   6.151 -0.2365 -0.5427  1.1096
 1495TIP3    H225977   2.140   1.635   6.228  0.0061  1.2990 -0.9801
 1496TIP3   OH225978   3.959   0.335  13.825  0.1249  0.6194  0.1903
 1496TIP3    H125979   3.937   0.427  13.809 -0.1804  0.5618  0.2678
 1496TIP3    H225980   4.030   0.338  13.888  0.4437  0.8146 -0.1740
 1497TIP3   OH225981   6.150   2.316   5.774 -0.4005  0.4383 -0.3386
 1497TIP3    H125982   6.159   2.277   5.861  3.9597  1.8139  0.0633
 1497TIP3    H225983   6.196   2.257   5.716 -1.2383  0.7256 -1.3217
 1498TIP3   OH225984   1.759   3.477   5.845  0.1814 -0.2215 -0.1858
 1498TIP3    H125985   1.799   3.429   5.772 -1.9089 -0.8515 -0.9888
 1498TIP3    H225986   1.707   3.545   5.803 -0.0431  0.2220  0.7882
 1499TIP3   OH225987   4.148   3.851  13.039 -0.9069  0.4118 -0.0609
 1499TIP3    H125988   4.236   3.852  13.002 -1.3931 -0.2455 -1.2705
 1499TIP3    H225989   4.142   3.766  13.084 -0.6640  0.7926  0.7181
 1500TIP3   OH225990   5.156   2.543  15.086  0.5318 -0.2534  0.0468
 1500TIP3    H125991   5.206   2.622  15.105  1.5330 -0.7351 -0.4905
 1500TIP3    H225992   5.129   2.553  14.994 -3.1898  1.4753  1.1044
 1501TIP3   OH225993   5.163   3.792  16.552 -0.0680  0.3332 -0.3500
 1501TIP3    H125994   5.148   3.706  16.512  0.1812 -0.1161  0.5104
 1501TIP3    H225995   5.200   3.773  16.638  0.9956  1.3239 -0.5665
 1502TIP3   OH225996   3.454   0.029   0.872  0.1699  0.1366 -0.3875
 1502TIP3    H125997   3.392   0.010   0.802 -0.0841  2.6378 -0.9234
 1502TIP3    H225998   3.507   0.101   0.839  1.5904 -0.1456  1.1162
 1503TIP3   OH225999   5.986   6.219  13.241 -0.2570  0.0493  0.7199
 1503TIP3    H126000   5.920   6.153  13.221 -1.0242  0.6186  1.3277
 1503TIP3    H226001   5.940   6.303  13.230  0.5297  0.4724  0.5763
 1504TIP3   OH226002   2.141   3.633  12.473 -0.1643  0.0376  0.0143
 1504TIP3    H126003   2.080   3.669  12.408 -1.5353 -2.9353 -0.4936
 1504TIP3    H226004   2.221   3.616  12.424  0.0513  1.0871 -0.0270
 1505TIP3   OH226005   2.458   2.097   3.680 -0.1306 -0.2227  0.2932
 1505TIP3    H126006   2.407   2.103   3.599 -1.4789 -0.1786  1.1236
 1505TIP3    H226007   2.411   2.151   3.743 -0.5739 -2.2818  1.8513
 1506TIP3   OH226008   5.212   5.706   4.208  0.3530  0.0708  0.3377
 1506TIP3    H126009   5.144   5.747   4.263  0.6534  1.0638 -0.0141
 1506TIP3    H226010   5.292   5.716   4.259  0.5635  0.6437 -0.0942
 1507TIP3   OH226011   1.760   5.883  16.453 -0.2533 -0.0796 -0.0639
 1507TIP3    H126012   1.716   5.959  16.490 -1.1842 -0.5811 -0.0989
 1507TIP3    H226013   1.700   5.810  16.470  0.3140 -0.6916 -0.6110
 1508TIP3   OH226014   1.200   3.157  12.656  0.2071 -0.5911  0.1512
 1508TIP3    H126015   1.120   3.117  12.623  1.3069 -4.0568  1.2700
 1508TIP3    H226016   1.268   3.134  12.592  0.5454  1.6357 -0.3890
 1509TIP3   OH226017   1.301   6.038  15.957 -0.5560  0.3954  0.1411
 1509TIP3    H126018   1.332   5.986  16.031 -0.6578  0.7282  0.4210
 1509TIP3    H226019   1.379   6.051  15.903 -0.7898 -1.1625 -0.6272
 1510TIP3   OH226020   6.173   5.371   4.204 -0.1932  0.1488  0.0181
 1510TIP3    H126021   6.182   5.290   4.255 -0.4235 -2.0098 -3.0782
 1510TIP3    H226022   6.258   5.415   4.213 -1.1559  1.6280  4.6417
 1511TIP3   OH226023   0.050   6.052  15.882  0.2597 -0.1256  0.6666
 1511TIP3    H126024  -0.028   6.104  15.900  1.1974  1.7113 -0.2823
 1511TIP3    H226025   0.104   6.062  15.960 -0.2580 -1.1099  1.1778
 1512TIP3   OH226026   3.217   3.956  13.756  0.0728  0.0892 -0.1123
 1512TIP3    H126027   3.269   4.035  13.743 -1.0760  0.6536 -1.6265
 1512TIP3    H226028   3.281   3.884  13.754  1.1773  0.9572  1.6479
 1513TIP3   OH226029   4.482   2.349   4.180  0.1316 -0.0552 -0.3044
 1513TIP3    H126030   4.529   2.381   4.103  1.4992  0.8515  0.8477
 1513TIP3    H226031   4.521   2.264   4.198  2.9934  1.5228  1.8368
 1514TIP3   OH226032   5.236   0.673   1.397 -0.7481  0.0612 -0.3057
 1514TIP3    H126033   5.244   0.752   1.451 -1.2427 -0.6032  0.7704
 1514TIP3    H226034   5.324   0.635   1.396 -0.6309  0.3328 -0.3747
 1515TIP3   OH226035   4.041   3.900  17.142  0.4520  0.5959 -0.7172
 1515TIP3    H126036   3.994   3.971  17.185  0.8746  0.3058  0.2574
 1515TIP3    H226037   3.996   3.888  17.058 -2.3459 -0.8129  0.8552
 1516TIP3   OH226038   3.125   5.780   1.892 -0.2206 -0.4252 -0.4735
 1516TIP3    H126039   3.214   5.763   1.925 -0.1842 -0.8365 -0.7666
 1516TIP3    H226040   3.074   5.801   1.970  0.2561  0.3673 -0.3615
 1517TIP3   OH226041   6.650   4.913   0.175  0.1007  0.4319 -0.6341
 1517TIP3    H126042   6.555   4.912   0.170 -0.0133 -1.2842  0.7573
 1517TIP3    H226043   6.670   4.965   0.253  0.1149 -1.4728  0.6999
 1518TIP3   OH226044   4.421   5.866   0.642 -0.2378  0.6783 -0.1511
 1518TIP3    H126045   4.493   5.819   0.599 -0.0397  1.2618 -0.4804
 1518TIP3    H226046   4.353   5.800   0.655  0.9126 -0.2411  1.5308
 1519TIP3   OH226047   6.641   6.273  13.386 -0.0600  0.6314 -0.1325
 1519TIP3    H126048   6.584   6.261  13.309 -0.0921 -0.0394 -0.0062
 1519TIP3    H226049   6.700   6.344  13.360  1.1143 -0.7409 -1.4959
 1520TIP3   OH226050   3.437   5.205   1.807  0.0394  0.8354 -0.0181
 1520TIP3    H126051   3.497   5.242   1.871 -1.1160  1.6058  0.6493
 1520TIP3    H226052   3.475   5.119   1.786  0.8826  0.9205  1.0495
 1521TIP3   OH226053   5.579   3.746  13.713 -0.1138  0.0124 -0.5256
 1521TIP3    H126054   5.484   3.746  13.716 -0.1811  2.2887 -0.4396
 1521TIP3    H226055   5.601   3.778  13.625  0.4651  1.8467  0.2244
 1522TIP3   OH226056   0.454   2.836   2.528 -0.1654 -0.3227  0.5875
 1522TIP3    H126057   0.459   2.782   2.449  1.0829 -0.2133  0.5800
 1522TIP3    H226058   0.531   2.893   2.523 -1.7476  1.9081  0.2837
 1523TIP3   OH226059   5.648   3.909  15.465  0.6575  0.1355  0.0355
 1523TIP3    H126060   5.581   3.975  15.447  0.8919  0.3785  0.0471
 1523TIP3    H226061   5.677   3.880  15.378 -0.6134 -1.1639  0.0065
 1524TIP3   OH226062   1.411   2.086  10.800 -0.0968  0.0575 -0.2248
 1524TIP3    H126063   1.388   1.999  10.768 -1.1641 -1.0058  3.0247
 1524TIP3    H226064   1.345   2.144  10.762 -0.6950 -0.9136 -0.7052
 1525TIP3   OH226065   4.370   1.681   1.910  0.2126  0.2448  0.1524
 1525TIP3    H126066   4.341   1.590   1.908 -0.5195  0.4738 -0.0458
 1525TIP3    H226067   4.438   1.687   1.842  1.1699 -0.4397  1.0314
 1526TIP3   OH226068   2.839   1.293   5.770 -0.2916  0.0265  0.4019
 1526TIP3    H126069   2.829   1.364   5.833  2.5905  0.6467  0.2953
 1526TIP3    H226070   2.781   1.316   5.698  0.2676  2.0634  0.5636
 1527TIP3   OH226071   3.589   5.768   5.939 -0.5722 -0.0237 -0.4654
 1527TIP3    H126072   3.558   5.706   6.005 -1.6449 -0.2103 -1.1288
 1527TIP3    H226073   3.614   5.846   5.989  0.2666 -0.7760  0.3202
 1528TIP3   OH226074   0.548   6.831   1.136 -0.4949 -0.3338 -0.1710
 1528TIP3    H126075   0.476   6.894   1.136 -1.3289 -1.2682  0.0837
 1528TIP3    H226076   0.584   6.836   1.047 -0.4778  0.5825 -0.1167
 1529TIP3   OH226077   3.749   0.135  11.419 -0.1578 -0.7447  0.1404
 1529TIP3    H126078   3.683   0.081  11.462 -0.0629 -0.7591  0.2665
 1529TIP3    H226079   3.703   0.171  11.342 -0.9396  0.8936  1.3157
 1530TIP3   OH226080   3.389   5.250  11.979  0.3977  0.6785  0.3881
 1530TIP3    H126081   3.390   5.157  12.002 -0.6008  0.5335 -0.1147
 1530TIP3    H226082   3.340   5.254  11.897 -1.5754  1.8684  1.5509
 1531TIP3   OH226083   0.153   6.702  13.402 -0.6422 -0.9108  0.2947
 1531TIP3    H126084   0.199   6.717  13.484  0.6793  0.3047 -0.6178
 1531TIP3    H226085   0.087   6.771  13.399 -0.6836 -0.9489  0.3360
 1532TIP3   OH226086   5.459   6.206   2.026 -0.2218  0.4798 -0.2665
 1532TIP3    H126087   5.519   6.266   1.981 -1.6825  1.4325 -1.0339
 1532TIP3    H226088   5.477   6.219   2.119  0.6319  0.8816 -0.4809
 1533TIP3   OH226089   5.431   2.801   5.739 -0.3281  0.0572 -0.0285
 1533TIP3    H126090   5.412   2.832   5.650  2.1093  0.7486 -0.3897
 1533TIP3    H226091   5.437   2.881   5.792  0.4876 -0.1634  0.2365
 1534TIP3   OH226092   1.102   2.373  17.143 -0.3588  0.9549 -0.2393
 1534TIP3    H126093   1.061   2.403  17.224 -0.8858 -0.0194 -0.1290
 1534TIP3    H226094   1.093   2.447  17.083 -0.3708  1.5195  0.4448
 1535TIP3   OH226095   5.822   4.643   2.587  0.3325 -0.0424 -0.1197
 1535TIP3    H126096   5.885   4.638   2.515 -1.0973  0.1563 -1.4488
 1535TIP3    H226097   5.765   4.715   2.563 -1.2169 -1.0679  0.3575
 1536TIP3   OH226098   1.124   0.977  16.642 -0.8558  0.3180 -0.6684
 1536TIP3    H126099   1.131   0.901  16.584  1.1968 -0.8149  0.9740
 1536TIP3    H226100   1.029   0.991  16.650 -1.2430 -0.7015 -2.6858
 1537TIP3   OH226101   3.359   2.850  12.413  0.2602 -0.4222  0.0572
 1537TIP3    H126102   3.323   2.842  12.501 -1.9602 -1.7787 -0.8962
 1537TIP3    H226103   3.359   2.761  12.378 -1.2544  0.3167 -2.1147
 1538TIP3   OH226104   4.088   3.954  16.238  0.2123  0.5707 -1.0293
 1538TIP3    H126105   4.125   4.019  16.178 -0.7989  2.4131  0.2367
 1538TIP3    H226106   3.993   3.966  16.231  0.0108 -0.6538 -0.6183
 1539TIP3   OH226107   5.672   3.212   3.233 -0.0756  0.3202  0.0827
 1539TIP3    H126108   5.678   3.234   3.140  0.5900 -0.5593 -0.0930
 1539TIP3    H226109   5.711   3.288   3.277 -0.9559  1.0142 -0.3093
 1540TIP3   OH226110   6.253   1.730  11.491 -0.8775 -0.3216  0.4836
 1540TIP3    H126111   6.343   1.749  11.519 -0.6567 -1.5133  0.6482
 1540TIP3    H226112   6.249   1.762  11.401 -0.7254  1.0022  0.9293
 1541TIP3   OH226113   6.787   5.783  14.176 -0.5128  0.0221 -0.6614
 1541TIP3    H126114   6.849   5.729  14.126 -1.4006 -0.7739 -0.9412
 1541TIP3    H226115   6.842   5.832  14.237  0.3250 -1.2637 -0.3387
 1542TIP3   OH226116   2.639   5.739  14.471 -0.2652 -0.0753 -0.5698
 1542TIP3    H126117   2.628   5.733  14.566  3.6546 -0.9868  0.0098
 1542TIP3    H226118   2.675   5.654  14.445  1.5986  1.1469 -2.2958
 1543TIP3   OH226119   6.371   0.813   0.799 -0.5729  0.0511 -0.3667
 1543TIP3    H126120   6.437   0.795   0.866  0.8011  1.7040 -1.1717
 1543TIP3    H226121   6.308   0.871   0.843 -0.6876 -0.3315 -0.0161
 1544TIP3   OH226122   4.137   4.922  12.215 -0.4908  0.2810 -0.3877
 1544TIP3    H126123   4.183   4.960  12.290  0.0801  0.2409 -0.7097
 1544TIP3    H226124   4.058   4.883  12.252  0.3308 -0.7310  0.3836
 1545TIP3   OH226125   5.257   0.650  15.248  0.0724 -0.4010  0.5418
 1545TIP3    H126126   5.286   0.600  15.172  0.7320  2.4193 -1.2321
 1545TIP3    H226127   5.334   0.654  15.305  0.4972 -0.1644 -0.0391
 1546TIP3   OH226128   6.084   2.144   2.056  0.5600 -0.2665 -0.2112
 1546TIP3    H126129   6.108   2.085   2.127 -0.4113  0.8187  1.0610
 1546TIP3    H226130   6.158   2.205   2.049  0.7807 -0.5478 -0.3307
 1547TIP3   OH226131   6.329   3.177  16.922 -0.0132  0.4839 -0.1626
 1547TIP3    H126132   6.419   3.207  16.913 -0.3553  1.4110 -0.5612
 1547TIP3    H226133   6.337   3.085  16.949  1.0467  0.4621 -0.5135
 1548TIP3   OH226134   4.394   4.227  12.005  0.2091 -0.6183 -0.0462
 1548TIP3    H126135   4.363   4.219  11.915 -0.4066 -0.0217  0.1049
 1548TIP3    H226136   4.459   4.157  12.014  1.1721  0.0537 -1.3147
 1549TIP3   OH226137   3.516   2.794   2.117  0.4875 -0.5525  0.4864
 1549TIP3    H126138   3.505   2.880   2.075 -0.5173 -0.8534  0.0953
 1549TIP3    H226139   3.471   2.733   2.058  0.5064 -1.2326  1.1670
 1550TIP3   OH226140   1.287   6.502   1.917 -0.2998 -0.3466 -0.0910
 1550TIP3    H126141   1.262   6.413   1.895 -0.8760  0.1217 -1.4443
 1550TIP3    H226142   1.219   6.531   1.978 -0.2291 -0.7576  0.1868
 1551TIP3   OH226143   0.539   1.871  15.437  0.0973  0.4012  0.0196
 1551TIP3    H126144   0.501   1.855  15.524 -2.0383 -0.6089 -1.0238
 1551TIP3    H226145   0.593   1.794  15.420 -3.0998 -1.7394 -1.3138
 1552TIP3   OH226146   1.315   2.917   1.503 -0.6546 -0.8694 -0.0925
 1552TIP3    H126147   1.243   2.918   1.565 -1.5802 -0.7789 -1.1301
 1552TIP3    H226148   1.394   2.922   1.557 -1.4565  1.9514  0.9833
 1553TIP3   OH226149   1.096   4.775   4.675 -0.0681 -0.8322 -0.0670
 1553TIP3    H126150   1.069   4.859   4.638  0.5830 -0.7430 -0.3422
 1553TIP3    H226151   1.080   4.712   4.605  0.7873 -0.7217 -0.3695
 1554TIP3   OH226152   4.646   3.511   5.293 -0.1877 -0.2909 -0.0226
 1554TIP3    H126153   4.566   3.563   5.291  0.4010  0.6361 -0.0578
 1554TIP3    H226154   4.684   3.529   5.379  0.7858  0.5491 -0.6033
 1555TIP3   OH226155   1.336   2.384  10.766 -0.3309  0.0854  0.2034
 1555TIP3    H126156   1.407   2.446  10.778  0.3492 -0.4708 -0.7988
 1555TIP3    H226157   1.343   2.357  10.674 -0.6586 -1.3864  0.5844
 1556TIP3   OH226158   4.710   3.960   2.969 -0.1089  0.3485  0.4682
 1556TIP3    H126159   4.696   3.985   2.878  0.2645 -0.8278  0.0707
 1556TIP3    H226160   4.623   3.961   3.008 -0.5382 -0.9329 -0.3900
 1557TIP3   OH226161   1.774   4.279  14.631 -0.2107 -0.3692 -0.2574
 1557TIP3    H126162   1.764   4.231  14.549  0.7213 -1.1903  0.0965
 1557TIP3    H226163   1.784   4.371  14.604 -0.5477 -0.5464 -1.0145
 1558TIP3   OH226164   3.478   6.109   1.823  0.5544  0.4965 -0.2432
 1558TIP3    H126165   3.451   6.151   1.742  2.0801 -1.0347 -1.6517
 1558TIP3    H226166   3.398   6.101   1.874 -0.5144  1.2496 -1.7143
 1559TIP3   OH226167   0.038   4.613  10.965 -0.8660  0.1155 -0.1176
 1559TIP3    H126168   0.131   4.590  10.971 -0.3877  1.6273 -1.1653
 1559TIP3    H226169   0.005   4.560  10.893 -0.7239 -0.1193 -0.0116
 1560TIP3   OH226170   2.768   3.421   5.926  0.2332 -0.8410 -0.0391
 1560TIP3    H126171   2.802   3.446   5.839 -1.5639 -0.6690 -0.7299
 1560TIP3    H226172   2.784   3.327   5.931 -1.6051 -1.3073 -1.5517
 1561TIP3   OH226173   3.876   2.260  13.390  0.1858 -0.1191 -0.4847
 1561TIP3    H126174   3.819   2.197  13.347 -0.9422  0.7002 -0.2329
 1561TIP3    H226175   3.879   2.335  13.331 -1.0052  0.8254  0.5928
 1562TIP3   OH226176   0.243   0.888   2.657  0.6505  0.1772 -0.4258
 1562TIP3    H126177   0.229   0.913   2.748  1.4198  1.7113 -0.7122
 1562TIP3    H226178   0.327   0.926   2.633  1.2137 -1.5015 -1.3484
 1563TIP3   OH226179   3.538   0.843   0.772 -0.4386  0.2738 -0.5503
 1563TIP3    H126180   3.627   0.839   0.806 -0.8688  1.3373  0.8139
 1563TIP3    H226181   3.510   0.934   0.788 -1.5814  0.1104 -1.4428
 1564TIP3   OH226182   3.589   3.425   4.134 -0.3724 -0.2013 -0.3700
 1564TIP3    H126183   3.644   3.473   4.072  0.1332  0.0460  0.2650
 1564TIP3    H226184   3.622   3.336   4.132 -1.8954 -0.8146 -2.2449
 1565TIP3   OH226185   3.525   3.319   5.804  0.0079  0.2566  0.1226
 1565TIP3    H126186   3.446   3.372   5.792  0.5088  0.7630 -1.1133
 1565TIP3    H226187   3.530   3.267   5.724 -1.1569 -2.6538  1.7879
 1566TIP3   OH226188   5.691   0.505  15.130 -0.6847  0.2048  0.3338
 1566TIP3    H126189   5.718   0.445  15.199 -0.9717  0.3951  0.6150
 1566TIP3    H226190   5.718   0.591  15.162 -0.7827  0.2901  0.1878
 1567TIP3   OH226191   0.463   2.433   0.665 -0.2051 -0.4195  0.8762
 1567TIP3    H126192   0.375   2.421   0.630 -0.5412 -0.5979  1.7488
 1567TIP3    H226193   0.452   2.492   0.739  0.5808  0.4551  0.3155
 1568TIP3   OH226194   0.957   5.738  10.985  0.3768  0.1562 -0.2252
 1568TIP3    H126195   0.902   5.781  10.919 -1.7318  0.4245  1.5906
 1568TIP3    H226196   1.008   5.809  11.024 -0.7494  0.5636  0.5748
 1569TIP3   OH226197   3.914   4.824   1.184 -0.0927 -0.0447 -0.3576
 1569TIP3    H126198   3.975   4.756   1.211 -0.2622 -0.4318 -0.9195
 1569TIP3    H226199   3.938   4.900   1.236 -1.0586 -1.0171  1.6439
 1570TIP3   OH226200   5.309   5.259   0.159  0.0743 -0.4172 -0.5991
 1570TIP3    H126201   5.393   5.259   0.113  1.7693  1.1809  2.1934
 1570TIP3    H226202   5.316   5.186   0.221 -0.7250 -0.4354 -0.5279
 1571TIP3   OH226203   5.477   6.804  13.378 -0.1714 -0.0188  0.0468
 1571TIP3    H126204   5.553   6.815  13.320 -0.4067 -1.8226 -0.6601
 1571TIP3    H226205   5.470   6.710  13.391 -1.7115  0.1819  0.8952
 1572TIP3   OH226206   3.576   5.685  14.614 -0.5389 -0.0894 -0.3913
 1572TIP3    H126207   3.648   5.737  14.650 -0.1331  0.1838 -1.5587
 1572TIP3    H226208   3.557   5.620  14.681 -0.3329  0.8889  0.6362
 1573TIP3   OH226209   0.374   3.863  16.611 -0.1112  0.5753  0.4411
 1573TIP3    H126210   0.433   3.827  16.678  1.5476 -1.0599 -1.7408
 1573TIP3    H226211   0.389   3.957  16.614  0.0309  0.5261  2.2408
 1574TIP3   OH226212   6.191   1.199   3.444 -0.0189 -0.1301 -0.1436
 1574TIP3    H126213   6.272   1.186   3.394  0.6751 -2.7155  1.4508
 1574TIP3    H226214   6.123   1.160   3.389 -0.0828  1.2882 -1.1150
 1575TIP3   OH226215   3.311   3.856   3.573  0.4367  0.2365 -0.7905
 1575TIP3    H126216   3.230   3.806   3.585  0.7730  0.1938  2.1336
 1575TIP3    H226217   3.381   3.791   3.579  0.7683  0.6505  0.1041
 1576TIP3   OH226218   3.411   2.107  15.071 -0.1215 -0.0571 -0.1488
 1576TIP3    H126219   3.333   2.161  15.084  0.5247  0.8136  0.1867
 1576TIP3    H226220   3.403   2.076  14.980  0.4487  2.2171 -1.0516
 1577TIP3   OH226221   2.598   4.005   3.201  0.2810  0.2131  0.7924
 1577TIP3    H126222   2.546   4.001   3.281 -0.6718  0.0650  0.1828
 1577TIP3    H226223   2.573   3.927   3.152  0.2931  0.6822  0.0243
 1578TIP3   OH226224   1.945   1.722  14.456  0.4135 -0.1406  0.3251
 1578TIP3    H126225   1.991   1.653  14.408 -1.9725 -0.5893 -1.5207
 1578TIP3    H226226   1.860   1.684  14.478 -1.4451  2.4026 -1.7210
 1579TIP3   OH226227   3.998   2.425   3.788 -0.0659 -0.5039  0.6381
 1579TIP3    H126228   4.066   2.376   3.740 -1.2688 -0.9647 -0.6619
 1579TIP3    H226229   4.046   2.473   3.855  1.6697 -0.0897 -0.8299
 1580TIP3   OH226230   6.650   4.733  11.747 -0.2354  0.0908  0.6673
 1580TIP3    H126231   6.617   4.757  11.660 -1.1197  0.4387  1.0786
 1580TIP3    H226232   6.589   4.776  11.807  1.9387  2.1945  1.5260
 1581TIP3   OH226233   6.396   4.430  13.792 -0.3844 -0.0876  0.2631
 1581TIP3    H126234   6.410   4.371  13.718 -1.1592  1.6440 -1.3377
 1581TIP3    H226235   6.302   4.426  13.809 -0.0057 -1.8910  2.4825
 1582TIP3   OH226236   2.109   0.674  16.435  0.0993 -0.8112 -0.3392
 1582TIP3    H126237   2.040   0.610  16.449 -0.3198 -0.1789  0.5708
 1582TIP3    H226238   2.167   0.663  16.510 -1.2691  1.4935  1.1505
 1583TIP3   OH226239   5.230   1.675   3.016  0.0438  0.1112  0.3047
 1583TIP3    H126240   5.189   1.590   3.032 -1.4503  0.4665 -1.3366
 1583TIP3    H226241   5.165   1.724   2.966  1.1697  1.9666  0.5661
 1584TIP3   OH226242   1.654   1.562   0.565  0.2875  0.6119  0.3641
 1584TIP3    H126243   1.697   1.514   0.636  0.0995  1.0376  0.7713
 1584TIP3    H226244   1.725   1.589   0.507  0.3899 -0.2070  0.0970
 1585TIP3   OH226245   4.796   3.981  14.112 -0.4514  0.1873  0.1250
 1585TIP3    H126246   4.865   4.045  14.095 -0.2183 -0.1331 -0.1277
 1585TIP3    H226247   4.801   3.964  14.206  1.4835 -1.7295 -0.2403
 1586TIP3   OH226248   3.260   0.178  16.275 -0.0676 -0.8314 -0.2118
 1586TIP3    H126249   3.337   0.141  16.233 -1.5798 -1.7089 -2.3639
 1586TIP3    H226250   3.239   0.116  16.345  1.5659 -0.1582  0.9637
 1587TIP3   OH226251   1.928   4.827  17.058  0.7471  0.4041 -0.2777
 1587TIP3    H126252   1.864   4.807  17.127  0.5262  0.4965 -0.4535
 1587TIP3    H226253   2.011   4.837  17.105  0.6562  0.1608 -0.0592
 1588TIP3   OH226254   6.815   2.620   3.983  0.3583 -0.0264 -0.3330
 1588TIP3    H126255   6.824   2.635   4.077 -0.7226  0.1777 -0.2433
 1588TIP3    H226256   6.858   2.695   3.942  0.6058  0.0155  0.0016
 1589TIP3   OH226257   5.000   1.525  13.461 -0.3833  0.3129  0.8841
 1589TIP3    H126258   5.052   1.574  13.397 -0.5229  0.0906  0.5964
 1589TIP3    H226259   4.998   1.580  13.538 -2.2429  1.6988 -0.0794
 1590TIP3   OH226260   4.334   3.298   2.244 -0.0674  0.5563 -0.1242
 1590TIP3    H126261   4.355   3.313   2.152  2.2555  0.6116  0.3527
 1590TIP3    H226262   4.385   3.221   2.268  2.1531  2.5076  1.9317
 1591TIP3   OH226263   0.557   2.851  14.630 -0.6530  0.0296 -0.1848
 1591TIP3    H126264   0.570   2.808  14.545  0.9333 -1.0142  0.5181
 1591TIP3    H226265   0.627   2.916  14.634  0.5345 -1.2362  1.0505
 1592TIP3   OH226266   4.566   0.943   4.836 -0.1276  0.4608 -0.4502
 1592TIP3    H126267   4.574   0.949   4.931  0.9476  0.5216 -0.5300
 1592TIP3    H226268   4.578   0.850   4.816 -4.3698 -0.3145 -0.2418
 1593TIP3   OH226269   3.281   1.948   2.805 -0.5892 -0.5431  0.2336
 1593TIP3    H126270   3.243   1.998   2.877 -0.5014  0.5213 -0.4352
 1593TIP3    H226271   3.332   1.879   2.848 -1.1203 -0.3650  1.1721
 1594TIP3   OH226272   0.799   5.835  10.776  0.1075 -0.1085 -0.0890
 1594TIP3    H126273   0.707   5.844  10.801  0.2663 -0.3130  0.5935
 1594TIP3    H226274   0.827   5.924  10.753 -0.2856 -0.0644 -0.4022
 1595TIP3   OH226275   6.325   1.033  12.393 -0.1195  0.3510 -0.5718
 1595TIP3    H126276   6.381   0.998  12.324 -0.2007 -1.7453  0.3653
 1595TIP3    H226277   6.265   0.962  12.414 -0.7140  1.2666  0.9979
 1596TIP3   OH226278   4.343   4.849   5.160 -0.3921  0.4551 -0.2473
 1596TIP3    H126279   4.405   4.890   5.100 -0.3688  2.0952  0.8297
 1596TIP3    H226280   4.353   4.755   5.145  0.6947  0.7687 -1.6982
 1597TIP3   OH226281   6.174   2.672   4.361  0.0641  0.2606 -0.3092
 1597TIP3    H126282   6.139   2.689   4.273 -0.1471 -0.1507 -0.3097
 1597TIP3    H226283   6.182   2.577   4.365 -0.4244  0.2421  0.3081
 1598TIP3   OH226284   1.910   1.133  16.614  0.6054  0.1364 -0.5615
 1598TIP3    H126285   1.967   1.207  16.591 -0.3477  1.2296  0.4241
 1598TIP3    H226286   1.892   1.146  16.707 -1.0197 -0.3546 -0.7888
 1599TIP3   OH226287   0.800   2.016  14.945  0.0651 -0.0207 -0.4369
 1599TIP3    H126288   0.879   2.031  14.998 -0.7469 -0.1862  0.8552
 1599TIP3    H226289   0.740   2.086  14.972 -0.5115 -0.3585 -0.8462
 1600TIP3   OH226290   5.103   4.168   3.160 -0.2624 -0.6185 -0.0598
 1600TIP3    H126291   5.132   4.179   3.070  1.9937 -0.5434  0.6242
 1600TIP3    H226292   5.069   4.254   3.185 -1.2296 -0.7366 -0.9242
 1601TIP3   OH226293   1.096   2.271   2.349 -0.0671  0.4325 -0.0304
 1601TIP3    H126294   1.134   2.327   2.417  1.4062  0.7168 -1.0450
 1601TIP3    H226295   1.171   2.235   2.303 -1.0153  0.7332 -1.8969
 1602TIP3   OH226296   1.105   0.297  12.856  0.1258  0.2954  0.3414
 1602TIP3    H126297   1.025   0.249  12.833  0.9871 -0.9387 -0.1825
 1602TIP3    H226298   1.128   0.264  12.943  1.2059 -0.9507 -0.3844
 1603TIP3   OH226299   2.099   1.303  16.837 -0.2826 -0.2089 -0.0292
 1603TIP3    H126300   2.027   1.366  16.848 -0.3438  0.0997 -1.9275
 1603TIP3    H226301   2.120   1.306  16.744  0.2114 -2.4681 -0.0647
 1604TIP3   OH226302   2.403   6.773   2.260  0.2594 -0.0650 -0.0239
 1604TIP3    H126303   2.498   6.771   2.250  0.2035 -1.2114 -0.5028
 1604TIP3    H226304   2.388   6.836   2.330  1.4062 -0.2245  0.3929
 1605TIP3   OH226305   2.502   2.194   4.614 -0.1932  0.1885 -0.0283
 1605TIP3    H126306   2.520   2.151   4.697 -0.2320 -0.1499 -0.1922
 1605TIP3    H226307   2.589   2.215   4.578 -0.1896  0.9943  0.4313
 1606TIP3   OH226308   2.841   2.560  16.627 -0.4705  0.0751 -0.0075
 1606TIP3    H126309   2.843   2.583  16.719 -0.6585 -0.1469  0.0573
 1606TIP3    H226310   2.758   2.513  16.616  0.0467 -0.8596 -0.0519
 1607TIP3   OH226311   6.315   0.532  11.211 -0.1006  0.3831 -0.0384
 1607TIP3    H126312   6.269   0.486  11.282 -0.1180  1.0572  0.4045
 1607TIP3    H226313   6.308   0.474  11.136 -1.7756  0.4992 -0.0102
 1608TIP3   OH226314   6.718   4.160  11.526 -0.8350  0.2994 -0.6375
 1608TIP3    H126315   6.719   4.090  11.462  0.0949 -1.0745  0.7975
 1608TIP3    H226316   6.704   4.116  11.610  3.2666  1.3215  0.8020
 1609TIP3   OH226317   3.283   1.063   3.496 -0.1171  0.2237  0.6204
 1609TIP3    H126318   3.294   0.968   3.501  0.2352  0.0692 -1.7824
 1609TIP3    H226319   3.269   1.091   3.587 -0.6924 -2.1575  1.3292
 1610TIP3   OH226320   0.011   2.511   2.592  0.4073 -0.3046 -0.7140
 1610TIP3    H126321   0.102   2.488   2.573  0.5552 -0.0441 -0.3283
 1610TIP3    H226322   0.000   2.598   2.553 -0.5374 -1.4899 -3.3721
 1611TIP3   OH226323   0.217   5.336  12.056  0.4698 -0.0851 -0.0074
 1611TIP3    H126324   0.206   5.284  12.135 -1.2945  0.5981  0.2535
 1611TIP3    H226325   0.208   5.273  11.984 -1.3462 -0.2392  0.3046
 1612TIP3   OH226326   5.505   2.396  15.151 -0.2217  0.3513 -0.2170
 1612TIP3    H126327   5.590   2.373  15.111  0.1054  0.3811  0.4471
 1612TIP3    H226328   5.441   2.343  15.103  0.1722  0.3161 -0.7173
 1613TIP3   OH226329   1.616   3.969  13.202 -0.0698  0.0006  0.4954
 1613TIP3    H126330   1.707   3.944  13.190 -0.3069 -0.4880 -0.3510
 1613TIP3    H226331   1.573   3.891  13.237 -0.6044 -0.5173 -1.2139
 1614TIP3   OH226332   5.735   6.617  14.625 -0.4927 -0.3940  0.0468
 1614TIP3    H126333   5.663   6.632  14.686 -1.8439 -0.0442 -1.5647
 1614TIP3    H226334   5.700   6.557  14.560  0.6828 -0.2330 -0.7805
 1615TIP3   OH226335   6.454   2.290   1.857  0.0744 -0.2691  0.0068
 1615TIP3    H126336   6.382   2.327   1.908  0.0745 -0.7827  0.3887
 1615TIP3    H226337   6.434   2.197   1.852  1.0709 -0.5450  0.7335
 1616TIP3   OH226338   3.073   0.532   5.138  0.6526 -0.4754  0.0611
 1616TIP3    H126339   3.033   0.462   5.086 -1.6709 -0.8202  2.0895
 1616TIP3    H226340   3.023   0.610   5.114  0.9028 -0.2411  0.3008
 1617TIP3   OH226341   1.762   0.028  14.542  0.3116  0.0389 -0.0841
 1617TIP3    H126342   1.838  -0.022  14.512 -0.8709 -1.9901  0.1068
 1617TIP3    H226343   1.790   0.067  14.624  1.0419 -1.0362  0.2022
 1618TIP3   OH226344   6.586   5.688  11.367  0.3565 -0.3928  0.3210
 1618TIP3    H126345   6.589   5.774  11.325  0.6541 -0.9588 -0.8797
 1618TIP3    H226346   6.659   5.689  11.429 -0.0407  0.4387  0.7849
 1619TIP3   OH226347   0.409   1.795   0.782  0.0924 -0.5396  0.9484
 1619TIP3    H126348   0.378   1.884   0.795 -0.4495 -0.7494  1.1199
 1619TIP3    H226349   0.502   1.799   0.802  0.2567  0.1724  0.0934
 1620TIP3   OH226350   6.114   3.069  15.153 -0.2606 -0.1981  1.1189
 1620TIP3    H126351   6.064   3.139  15.113 -0.6568 -0.9082  0.3309
 1620TIP3    H226352   6.051   3.021  15.207 -0.6724 -1.5317 -0.4422
 1621TIP3   OH226353   4.713   0.327  10.634 -0.0575  0.2659  0.3926
 1621TIP3    H126354   4.723   0.238  10.601 -1.6122  0.0405  0.4477
 1621TIP3    H226355   4.758   0.327  10.718 -0.1075 -0.4796  0.4238
 1622TIP3   OH226356   3.773   1.316   1.432 -0.5480 -0.3495 -0.4926
 1622TIP3    H126357   3.855   1.354   1.462  0.7654 -2.4686 -1.1819
 1622TIP3    H226358   3.750   1.253   1.500 -0.9247 -0.6747 -0.9161
 1623TIP3   OH226359   2.024   2.080   3.274 -0.1733  0.3630  0.1718
 1623TIP3    H126360   1.968   2.003   3.262  1.3934 -0.7434 -0.4323
 1623TIP3    H226361   1.997   2.118   3.357 -0.3175 -1.4470  0.9933
 1624TIP3   OH226362   3.818   3.606   2.942 -0.0687 -0.1853  0.2449
 1624TIP3    H126363   3.893   3.647   2.899  0.2971 -0.2426  0.8033
 1624TIP3    H226364   3.742   3.652   2.909  0.0597 -1.1588 -1.5572
 1625TIP3   OH226365   2.202   5.431   2.737  0.5012  0.4061 -0.1719
 1625TIP3    H126366   2.167   5.370   2.802 -0.1395  1.3115  0.3502
 1625TIP3    H226367   2.274   5.476   2.782 -0.9158  2.1380  0.4957
 1626TIP3   OH226368   3.921   1.075  13.713 -0.2051 -0.3956  0.2313
 1626TIP3    H126369   3.965   1.160  13.716  0.9505 -0.9761  0.0875
 1626TIP3    H226370   3.896   1.064  13.621 -1.2211  0.1949  0.4146
 1627TIP3   OH226371   2.840   4.369  12.561  0.2236  0.3971  0.4805
 1627TIP3    H126372   2.763   4.343  12.510  0.2619  1.7668 -0.3098
 1627TIP3    H226373   2.812   4.360  12.652 -0.2962 -0.7617  0.2265
 1628TIP3   OH226374   0.630   1.542   3.306 -0.1312  0.2149 -0.3932
 1628TIP3    H126375   0.598   1.453   3.317  0.0124  0.1415 -0.5707
 1628TIP3    H226376   0.723   1.537   3.331 -0.2953  0.4584  0.2821
 1629TIP3   OH226377   1.458   2.781   0.563 -0.3983 -1.0450 -0.7256
 1629TIP3    H126378   1.459   2.686   0.567 -0.3720 -0.9910  1.4686
 1629TIP3    H226379   1.544   2.808   0.594 -1.0890 -0.2890  0.6274
 1630TIP3   OH226380   1.925   5.171  12.926  0.1085  0.4526  0.5720
 1630TIP3    H126381   1.931   5.235  12.855 -1.6152  1.8871  1.6002
 1630TIP3    H226382   1.861   5.107  12.896 -0.1679  0.7296  0.5502
 1631TIP3   OH226383   5.952   4.362   5.872  0.1892  0.0897  0.5128
 1631TIP3    H126384   5.959   4.419   5.796  1.3528  0.6764  1.0408
 1631TIP3    H226385   5.881   4.399   5.924  0.1299  0.3278  0.2631
 1632TIP3   OH226386   1.629   0.925  14.877  0.6931 -0.7285 -0.0041
 1632TIP3    H126387   1.616   1.020  14.887  1.0297 -0.6158 -0.5967
 1632TIP3    H226388   1.588   0.903  14.794  1.6022 -0.8898 -0.4274
 1633TIP3   OH226389   1.152   5.751  11.498 -0.2077  0.4608  0.4179
 1633TIP3    H126390   1.108   5.696  11.564 -2.5679 -2.2023 -2.9974
 1633TIP3    H226391   1.081   5.804  11.461 -0.0453 -1.2941 -2.7773
 1634TIP3   OH226392   2.852   4.662   3.336 -0.2339 -0.1292  0.1591
 1634TIP3    H126393   2.771   4.636   3.379 -0.5382  0.7719  0.1478
 1634TIP3    H226394   2.826   4.683   3.246  0.3088 -1.4787 -0.3405
 1635TIP3   OH226395   3.206   3.550   4.923  0.7800  0.6412  0.6592
 1635TIP3    H126396   3.263   3.525   4.996  2.4341 -0.1285 -0.8188
 1635TIP3    H226397   3.148   3.475   4.911  2.3987 -0.4950 -0.5592
 1636TIP3   OH226398   6.011   6.220   1.718 -0.7001  0.4594  0.1233
 1636TIP3    H126399   5.961   6.295   1.685 -0.2656  0.7676  0.1515
 1636TIP3    H226400   6.101   6.236   1.688 -0.6259 -0.1086  0.0377
 1637TIP3   OH226401   6.322   2.960   2.617  0.3736  0.4908  0.0697
 1637TIP3    H126402   6.295   3.048   2.643 -0.0179  0.0767  1.1303
 1637TIP3    H226403   6.283   2.947   2.530  0.1605  1.2353  0.0518
 1638TIP3   OH226404   6.446   6.729   4.764  0.2276  0.2504 -0.3831
 1638TIP3    H126405   6.532   6.770   4.775 -0.5494  1.6415  0.7841
 1638TIP3    H226406   6.415   6.715   4.853 -1.2639  0.8681 -0.7775
 1639TIP3   OH226407   4.267   2.798   1.021  0.2437 -0.7313  0.1062
 1639TIP3    H126408   4.313   2.802   0.937  1.6882  1.0616  0.9176
 1639TIP3    H226409   4.180   2.765   0.999 -1.1557  4.0583 -2.9400
 1640TIP3   OH226410   4.687   0.880   3.980 -0.1664 -0.2126 -0.4686
 1640TIP3    H126411   4.633   0.890   3.902 -0.3576 -0.4732 -0.3683
 1640TIP3    H226412   4.645   0.811   4.031  0.4590 -0.6608 -0.5550
 1641TIP3   OH226413   5.660   1.656   2.851  0.2665  0.3147 -0.6504
 1641TIP3    H126414   5.691   1.696   2.932 -0.5500  0.3874 -0.3621
 1641TIP3    H226415   5.730   1.672   2.788  0.1578  1.8346 -0.4257
 1642TIP3   OH226416   4.259   6.067  15.415 -0.3941 -0.7335  0.3249
 1642TIP3    H126417   4.198   6.099  15.348 -0.8431 -0.6070  0.7841
 1642TIP3    H226418   4.227   6.106  15.497  1.5771  1.0955  0.2957
 1643TIP3   OH226419   5.442   1.987  11.466  0.7636 -0.2281 -0.2133
 1643TIP3    H126420   5.492   2.018  11.390  0.2579 -0.4579 -0.6443
 1643TIP3    H226421   5.508   1.944  11.521  1.5531  1.8419  0.5671
 1644TIP3   OH226422   2.102   1.618  13.700  0.8842  0.1602 -0.0168
 1644TIP3    H126423   2.065   1.534  13.675 -0.8104  0.6400  0.7602
 1644TIP3    H226424   2.116   1.610  13.795  0.4671  0.8253  0.1053
 1645TIP3   OH226425   2.450   2.030  15.759  0.1671  0.3184 -0.3778
 1645TIP3    H126426   2.516   1.977  15.804  1.3876  2.8087  1.0347
 1645TIP3    H226427   2.386   1.967  15.728  0.8000 -1.8802  2.2956
 1646TIP3   OH226428   3.360   4.536   3.825  0.0953  0.3838 -1.0201
 1646TIP3    H126429   3.277   4.511   3.784 -1.0670  0.9900  0.8001
 1646TIP3    H226430   3.416   4.459   3.815 -1.3133 -0.7285 -0.7639
 1647TIP3   OH226431   3.663   1.055  11.888 -0.3121  0.4601 -0.0150
 1647TIP3    H126432   3.686   1.063  11.980  2.2363 -2.3906 -0.2399
 1647TIP3    H226433   3.600   0.982  11.885  0.3285 -0.0845 -0.5858
 1648TIP3   OH226434   6.438   3.984  10.966 -0.3108  0.4754 -0.2826
 1648TIP3    H126435   6.500   3.911  10.970  0.1710  0.8959 -0.0802
 1648TIP3    H226436   6.486   4.059  11.000 -0.9862  0.7686  0.0388
 1649TIP3   OH226437   1.012   0.125   5.597  0.1695  0.3808 -0.2704
 1649TIP3    H126438   1.007   0.199   5.536 -1.8718  1.5142  1.1324
 1649TIP3    H226439   0.981   0.050   5.546  0.7087  0.8181 -1.2659
 1650TIP3   OH226440   5.455   3.722  16.166  0.0638 -0.1154  0.0785
 1650TIP3    H126441   5.531   3.692  16.117 -0.6004 -1.1280 -0.3812
 1650TIP3    H226442   5.397   3.646  16.170 -2.1507  1.2929 -1.9789
 1651TIP3   OH226443   4.689   5.093  15.241  0.6145 -0.0297 -0.0570
 1651TIP3    H126444   4.684   5.038  15.319 -0.3748  1.0050  0.6453
 1651TIP3    H226445   4.676   5.033  15.168 -0.7866 -0.7108  0.7080
 1652TIP3   OH226446   3.534   3.416   2.577 -0.3227  0.5087  0.3535
 1652TIP3    H126447   3.605   3.406   2.513 -0.0400 -3.0259  1.0136
 1652TIP3    H226448   3.454   3.402   2.526 -0.3330  1.1101  0.1996
 1653TIP3   OH226449   5.533   4.424   6.467 -0.7629 -0.0377  0.4068
 1653TIP3    H126450   5.578   4.448   6.385  1.2988  0.4483  1.6129
 1653TIP3    H226451   5.525   4.507   6.514  0.1521 -0.6397  1.6592
 1654TIP3   OH226452   2.887   2.964   5.285  0.1363 -1.2549  0.2618
 1654TIP3    H126453   2.961   2.963   5.345 -0.3637 -2.8308  0.9156
 1654TIP3    H226454   2.841   3.046   5.305 -0.5811 -2.1729  2.8179
 1655TIP3   OH226455   0.004   2.530  13.740 -0.2102  0.2352  0.2983
 1655TIP3    H126456  -0.090   2.541  13.726 -0.3997 -1.5885 -0.1615
 1655TIP3    H226457   0.045   2.559  13.659 -0.4273  0.2941  0.2109
 1656TIP3   OH226458   3.294   5.156  15.500  0.3265 -0.1830 -0.3339
 1656TIP3    H126459   3.334   5.243  15.502  1.2224 -0.5989  0.9249
 1656TIP3    H226460   3.324   5.114  15.581  1.0019 -2.1519 -1.5615
 1657TIP3   OH226461   1.360   3.806  12.232  0.2454 -0.1604  0.4549
 1657TIP3    H126462   1.319   3.877  12.281 -0.3282  1.0553 -1.6806
 1657TIP3    H226463   1.431   3.847  12.183 -0.4252 -0.9015 -1.2349
 1658TIP3   OH226464   2.317   3.529   1.282  0.5525 -0.3094  0.1802
 1658TIP3    H126465   2.389   3.554   1.340 -0.0235 -0.2032  0.8638
 1658TIP3    H226466   2.255   3.484   1.339  0.7347 -1.7099 -0.6856
 1659TIP3   OH226467   4.304   3.971   0.356 -0.0501 -0.1655  0.0861
 1659TIP3    H126468   4.315   4.057   0.397 -0.4788  0.1064 -0.3602
 1659TIP3    H226469   4.393   3.935   0.354 -0.0693 -0.3375  1.5591
 1660TIP3   OH226470   0.304   1.065   4.866 -0.1884 -0.2036  0.4761
 1660TIP3    H126471   0.306   1.003   4.939 -0.8597 -2.7915 -1.5420
 1660TIP3    H226472   0.379   1.041   4.812 -1.4305 -0.4249 -1.2230
 1661TIP3   OH226473   3.614   6.206  16.336  0.2627  0.7823  0.1203
 1661TIP3    H126474   3.662   6.287  16.352 -2.2273  2.1475  1.2528
 1661TIP3    H226475   3.579   6.216  16.248  3.1759 -0.9158 -1.3558
 1662TIP3   OH226476   4.318   5.369  11.653 -1.0513  0.0673  0.0348
 1662TIP3    H126477   4.244   5.406  11.604  0.4014  0.8422 -1.7246
 1662TIP3    H226478   4.344   5.293  11.601 -2.4645 -2.0654  2.2978
 1663TIP3   OH226479   3.218   5.908   1.678  0.1742  0.0106 -0.2263
 1663TIP3    H126480   3.215   6.002   1.695  0.3752 -0.0240  0.0022
 1663TIP3    H226481   3.183   5.868   1.757  0.0964 -0.1073 -0.3202
 1664TIP3   OH226482   4.557   4.915  13.267  0.1733  0.0714 -0.1845
 1664TIP3    H126483   4.497   4.911  13.341  1.4664  0.6284  0.9458
 1664TIP3    H226484   4.629   4.857  13.291  1.0992  1.0414 -0.5291
 1665TIP3   OH226485   1.867   1.865   2.790 -0.4397 -0.1374 -0.0861
 1665TIP3    H126486   1.912   1.811   2.855  0.5389  1.0549  0.2588
 1665TIP3    H226487   1.790   1.898   2.837  1.0681  1.9991  1.0979
 1666TIP3   OH226488   4.725   1.055  11.494 -0.2942 -0.5289 -0.6900
 1666TIP3    H126489   4.679   1.004  11.427  0.0555 -0.8234 -0.7077
 1666TIP3    H226490   4.782   1.114  11.444 -0.0570 -0.7264 -0.6544
 1667TIP3   OH226491   1.172   0.748  12.381 -0.5769  0.0793 -0.3005
 1667TIP3    H126492   1.128   0.665  12.365 -0.9185 -0.1604  1.6014
 1667TIP3    H226493   1.102   0.814  12.376 -0.4977  0.1335 -0.7492
 1668TIP3   OH226494   3.802   4.615   1.703 -0.1596 -0.2110  0.0316
 1668TIP3    H126495   3.747   4.555   1.753 -1.1793  0.3092 -0.4291
 1668TIP3    H226496   3.819   4.688   1.763  0.1205 -0.4168  0.2062
 1669TIP3   OH226497   0.522   3.171   4.939 -0.6742 -0.0087  0.5659
 1669TIP3    H126498   0.525   3.266   4.926  0.0408 -0.1780 -0.7194
 1669TIP3    H226499   0.598   3.152   4.995  0.0944  0.0280 -0.4298
 1670TIP3   OH226500   6.431   6.425  12.074 -0.4183  0.1081 -0.1482
 1670TIP3    H126501   6.370   6.354  12.053  1.6932 -1.6084 -0.8414
 1670TIP3    H226502   6.513   6.380  12.095  0.4896  2.2973  1.2792
 1671TIP3   OH226503   2.637   0.027   6.118 -0.1245  0.0741  0.0472
 1671TIP3    H126504   2.601  -0.053   6.079 -1.1927 -0.1445  1.3883
 1671TIP3    H226505   2.562   0.087   6.123 -0.0622  0.0538  1.7937
 1672TIP3   OH226506   6.127   3.782   3.926 -0.3082 -0.1298 -0.7446
 1672TIP3    H126507   6.204   3.821   3.968  0.3538 -3.0986  1.0673
 1672TIP3    H226508   6.055   3.803   3.985 -0.7641  1.7340 -1.8938
 1673TIP3   OH226509   5.475   4.468   6.134 -0.2887  0.0807  0.2515
 1673TIP3    H126510   5.497   4.383   6.097 -0.3879 -0.1063  0.6218
 1673TIP3    H226511   5.558   4.506   6.161 -0.4338 -0.8706  2.1915
 1674TIP3   OH226512   1.873   6.768  10.966 -0.2683 -0.5120 -0.0894
 1674TIP3    H126513   1.881   6.841  11.027  0.3693 -0.4903 -0.1939
 1674TIP3    H226514   1.811   6.799  10.899 -1.5557 -0.8107  0.9227
 1675TIP3   OH226515   0.055   4.227   1.668 -0.2239 -0.2551 -0.0204
 1675TIP3    H126516   0.068   4.277   1.588 -0.1228  1.0669  0.8071
 1675TIP3    H226517  -0.033   4.191   1.660  0.6504 -2.2467 -1.8308
 1676TIP3   OH226518   4.583   3.660  14.385  0.2723 -0.5465  0.2262
 1676TIP3    H126519   4.600   3.575  14.346  1.4765 -0.2068 -0.0380
 1676TIP3    H226520   4.488   3.664  14.394  0.1978 -1.8979  0.2190
 1677TIP3   OH226521   1.957   6.390   2.982  0.2813 -0.6048 -0.3142
 1677TIP3    H126522   1.939   6.481   2.960  1.1568 -1.0726 -3.5852
 1677TIP3    H226523   1.871   6.348   2.982  0.0332 -0.1089 -0.6906
 1678TIP3   OH226524   3.260   1.463  12.251 -0.2748  0.1291 -0.0497
 1678TIP3    H126525   3.312   1.385  12.271 -1.0353 -0.1172  1.0476
 1678TIP3    H226526   3.303   1.501  12.175  0.7839 -0.7402  0.0848
 1679TIP3   OH226527   0.285   3.102  15.625 -0.3809  0.1180  0.1307
 1679TIP3    H126528   0.329   3.187  15.630  0.1356 -0.2069  1.3223
 1679TIP3    H226529   0.333   3.046  15.686 -0.7341 -1.0320 -0.6188
 1680TIP3   OH226530   6.414   3.655   0.057 -0.0126 -0.2069 -0.6705
 1680TIP3    H126531   6.443   3.625   0.144  0.3598  0.4884 -0.5452
 1680TIP3    H226532   6.403   3.575   0.006  0.6835 -0.5729 -0.2620
 1681TIP3   OH226533   2.695   2.739   4.372  0.1319  0.1828  0.1665
 1681TIP3    H126534   2.655   2.822   4.399 -0.9140 -0.2942  0.1234
 1681TIP3    H226535   2.767   2.765   4.315 -1.1619  1.0319 -1.1482
 1682TIP3   OH226536   2.693   3.594  13.907  0.1000 -0.3008  0.3422
 1682TIP3    H126537   2.767   3.633  13.860 -1.1883 -0.5205 -1.9840
 1682TIP3    H226538   2.621   3.656  13.895 -0.9579 -1.5920 -0.2226
 1683TIP3   OH226539   0.670   6.666  11.619  0.1932 -0.5695  0.3790
 1683TIP3    H126540   0.617   6.708  11.687  2.3547 -0.4106  2.1226
 1683TIP3    H226541   0.733   6.733  11.593 -0.2180 -0.8345 -1.3762
 1684TIP3   OH226542   4.557   0.476   2.546  0.4389 -0.4595 -0.1818
 1684TIP3    H126543   4.526   0.494   2.635  1.5830 -1.2713  0.4061
 1684TIP3    H226544   4.527   0.387   2.528 -0.0336 -0.1994 -0.7439
 1685TIP3   OH226545   6.239   5.941  15.061 -0.6226  0.1547  0.6787
 1685TIP3    H126546   6.159   5.990  15.042 -1.9381 -1.7465  1.0064
 1685TIP3    H226547   6.305   6.008  15.076 -1.9299  1.7895 -0.4860
 1686TIP3   OH226548   3.258   4.082  14.388  0.2812  0.4349  0.4834
 1686TIP3    H126549   3.332   4.139  14.365  0.5169  0.1452  0.5030
 1686TIP3    H226550   3.213   4.067  14.305  1.0942 -0.5582  0.1927
 1687TIP3   OH226551   0.127   1.085  11.435  0.2412  0.6791 -0.5840
 1687TIP3    H126552   0.161   1.174  11.427  2.9347 -0.0862  1.2206
 1687TIP3    H226553   0.125   1.052  11.345  3.8477  1.0368 -0.9322
 1688TIP3   OH226554   0.778   3.891   2.647 -0.2646  0.3626  0.1387
 1688TIP3    H126555   0.799   3.969   2.700 -0.0343  0.6115 -0.3161
 1688TIP3    H226556   0.700   3.854   2.690 -1.8856  2.2184 -1.0150
 1689TIP3   OH226557   4.062   3.941  11.305 -0.4971 -1.0026 -0.2957
 1689TIP3    H126558   4.104   3.866  11.263  2.1068  1.3647 -2.2144
 1689TIP3    H226559   3.997   3.971  11.241  0.8655  0.3714 -1.0773
 1690TIP3   OH226560   5.820   0.754  10.988 -0.3150  0.1186  0.5984
 1690TIP3    H126561   5.821   0.695  10.913 -0.8047  0.0679  0.6288
 1690TIP3    H226562   5.887   0.819  10.968 -0.3509  0.0294  0.1812
 1691TIP3   OH226563   5.146   1.050   4.732 -0.7372 -0.4392  0.4088
 1691TIP3    H126564   5.075   1.009   4.781  0.4819 -0.3156  2.3548
 1691TIP3    H226565   5.202   1.090   4.798  1.9447 -1.7459 -0.8946
 1692TIP3   OH226566   3.382   6.362   3.839  0.6929 -0.4432  0.2694
 1692TIP3    H126567   3.470   6.324   3.846  0.1696 -2.1293 -1.4131
 1692TIP3    H226568   3.341   6.314   3.768 -0.7578  2.0262 -0.6808
 1693TIP3   OH226569   2.808   3.546  11.332  0.1309  0.6203 -0.0596
 1693TIP3    H126570   2.870   3.547  11.404  0.5408 -1.7574 -0.2947
 1693TIP3    H226571   2.741   3.483  11.359 -0.4317  0.7196 -1.1700
 1694TIP3   OH226572   4.417   4.271  11.711 -0.4613 -0.0933 -0.2335
 1694TIP3    H126573   4.433   4.185  11.674 -0.7878  0.4124 -1.5990
 1694TIP3    H226574   4.385   4.324  11.638 -1.1425  0.9473  0.7694
 1695TIP3   OH226575   6.329   1.065   4.133 -0.6613 -0.4731  0.2245
 1695TIP3    H126576   6.418   1.032   4.129 -0.8740 -1.2976  1.5576
 1695TIP3    H226577   6.288   1.014   4.204 -1.6988  1.0323  0.7490
 1696TIP3   OH226578   1.966   0.286  13.825 -0.6718 -0.0965 -0.3118
 1696TIP3    H126579   1.911   0.270  13.902  0.6764 -0.2703  0.6457
 1696TIP3    H226580   2.054   0.263  13.854 -0.1598 -0.2879 -1.9635
 1697TIP3   OH226581   5.085   6.751   4.410  0.0912  0.2237  0.0841
 1697TIP3    H126582   5.032   6.672   4.426  0.2191  0.1394  0.0901
 1697TIP3    H226583   5.042   6.819   4.462 -0.5483  0.3704 -0.6239
 1698TIP3   OH226584   2.974   4.114  14.958  0.0721  0.7807 -0.1561
 1698TIP3    H126585   2.923   4.042  14.922 -0.2856  1.1394 -0.3737
 1698TIP3    H226586   3.065   4.087  14.946 -0.0337  0.9088 -1.3612
 1699TIP3   OH226587   4.823   0.269  13.571  0.0193 -0.3721  0.6233
 1699TIP3    H126588   4.754   0.239  13.630  0.1081 -1.6834  0.0929
 1699TIP3    H226589   4.800   0.232  13.486  1.9735 -1.8920  0.6691
 1700TIP3   OH226590   0.882   3.288   0.511  0.2748 -0.0144 -0.0927
 1700TIP3    H126591   0.953   3.255   0.566  1.2669  1.6161 -0.3101
 1700TIP3    H226592   0.840   3.356   0.565 -0.4148 -0.2081 -0.3767
 1701TIP3   OH226593   0.649   0.598   0.960  0.0833 -0.1026  0.2952
 1701TIP3    H126594   0.672   0.610   0.868  1.1221 -0.3718  0.5130
 1701TIP3    H226595   0.582   0.665   0.977 -0.7528 -0.6015 -0.8674
 1702TIP3   OH226596   0.012   3.218  14.270  0.4290 -0.3385 -0.3271
 1702TIP3    H126597  -0.053   3.281  14.240 -0.9654 -0.8213  1.4715
 1702TIP3    H226598   0.085   3.228  14.209  0.0887  2.6533 -0.4280
 1703TIP3   OH226599   5.835   1.041  11.399  0.0180  0.2039  0.2666
 1703TIP3    H126600   5.809   1.113  11.340 -1.4690  0.7747  1.5703
 1703TIP3    H226601   5.818   0.962  11.349  3.3354  0.6589 -1.9040
 1704TIP3   OH226602   1.016   3.411   5.353  0.0326 -0.0203 -0.2863
 1704TIP3    H126603   1.034   3.505   5.352 -0.6415  0.1396 -3.0575
 1704TIP3    H226604   0.922   3.405   5.367  0.1301 -0.3461  0.2934
 1705TIP3   OH226605   0.108   6.036  15.479 -0.1571 -0.1938 -0.4607
 1705TIP3    H126606   0.036   6.042  15.541  0.7986 -0.6698  0.7534
 1705TIP3    H226607   0.133   6.127  15.461  0.1090 -0.0586  0.5460
 1706TIP3   OH226608   5.970   3.025   6.059  0.3006  0.0374 -0.2147
 1706TIP3    H126609   5.958   3.118   6.082 -0.2366 -0.0032 -0.3138
 1706TIP3    H226610   6.015   2.987   6.134 -0.7977  0.0622  0.4820
 1707TIP3   OH226611   4.891   4.748  13.550 -0.0406 -0.0037 -1.0642
 1707TIP3    H126612   4.923   4.754  13.640 -0.1794 -2.5402 -0.7524
 1707TIP3    H226613   4.796   4.752  13.558 -0.1991 -2.4821 -0.7233
 1708TIP3   OH226614   3.914   3.972  15.440  0.0051  0.1733 -0.4924
 1708TIP3    H126615   3.866   4.053  15.453  0.6833  0.5437 -0.2336
 1708TIP3    H226616   3.850   3.911  15.404 -1.1524  0.0635  1.6265
 1709TIP3   OH226617   1.580   1.562   6.194 -0.2634 -0.1034  0.6552
 1709TIP3    H126618   1.496   1.532   6.231  0.2414 -2.4173  0.1341
 1709TIP3    H226619   1.566   1.561   6.100  0.0241  0.6317  0.5999
 1710TIP3   OH226620   1.332   2.412   1.334 -0.4113  0.0506 -0.0044
 1710TIP3    H126621   1.394   2.468   1.381  0.4833 -1.8836  1.2604
 1710TIP3    H226622   1.264   2.392   1.399  0.4119 -1.9950  0.3045
 1711TIP3   OH226623   2.545   6.235  13.722 -0.2478  0.1443  0.4292
 1711TIP3    H126624   2.516   6.146  13.744 -0.4648 -0.3271 -1.5254
 1711TIP3    H226625   2.499   6.255  13.641  0.4478  1.7223  0.3963
 1712TIP3   OH226626   1.846   6.823  11.420  0.4110 -0.5305  0.0103
 1712TIP3    H126627   1.807   6.751  11.372  2.5604 -1.3258 -0.6623
 1712TIP3    H226628   1.805   6.902  11.385 -0.1018 -1.2811 -1.1019
 1713TIP3   OH226629   0.468   1.212  15.801 -0.1095 -0.1411  0.0689
 1713TIP3    H126630   0.445   1.250  15.885 -0.1526 -2.5139  1.1969
 1713TIP3    H226631   0.558   1.241  15.786  0.6718 -1.3886  2.0096
 1714TIP3   OH226632   5.512   4.688  10.329 -0.2347 -0.2456 -0.5171
 1714TIP3    H126633   5.578   4.719  10.391  0.0156 -0.5196 -0.6437
 1714TIP3    H226634   5.562   4.642  10.262 -0.5846 -0.7731 -0.4222
 1715TIP3   OH226635   2.845   5.701  13.240 -0.4235  0.2975 -0.6903
 1715TIP3    H126636   2.923   5.756  13.233  0.1830 -0.7544 -3.3547
 1715TIP3    H226637   2.840   5.679  13.333  3.1149 -0.4672 -0.5377
 1716TIP3   OH226638   1.532   1.274  12.353  0.3785  0.3592 -0.3569
 1716TIP3    H126639   1.507   1.285  12.444  0.8366  1.5390 -0.3633
 1716TIP3    H226640   1.518   1.180  12.336  1.0405 -0.0486  1.1472
 1717TIP3   OH226641   3.265   4.391   0.759  0.4984  0.1354 -0.1324
 1717TIP3    H126642   3.323   4.441   0.816  0.0891  1.6007 -0.9444
 1717TIP3    H226643   3.324   4.343   0.701  0.9105 -1.1935  1.3351
 1718TIP3   OH226644   5.514   2.951   1.327 -0.2306  0.3665 -0.1025
 1718TIP3    H126645   5.605   2.921   1.322 -0.1286  0.9034 -3.1438
 1718TIP3    H226646   5.520   3.045   1.342 -0.2253  0.5545 -1.2137
 1719TIP3   OH226647   0.763   2.650  16.104 -0.1271 -0.6490  0.3279
 1719TIP3    H126648   0.769   2.734  16.058  2.5997 -1.4364 -0.9984
 1719TIP3    H226649   0.774   2.672  16.197  1.1038  0.4536 -0.0510
 1720TIP3   OH226650   1.495   6.620  11.535  0.7782 -0.1077  0.0286
 1720TIP3    H126651   1.520   6.537  11.494  1.4314  0.8715 -1.6423
 1720TIP3    H226652   1.556   6.629  11.609  1.0554 -0.8459 -0.0964
 1721TIP3   OH226653   4.090   6.666  13.932 -0.4346 -0.4841 -0.9530
 1721TIP3    H126654   4.099   6.594  13.995 -1.6575 -2.5101 -2.9385
 1721TIP3    H226655   4.014   6.715  13.963  0.2515 -0.1431  0.2738
 1722TIP3   OH226656   2.462   2.277  15.608  0.5966  0.0337  0.0944
 1722TIP3    H126657   2.438   2.197  15.654  0.9469 -0.8877 -1.2589
 1722TIP3    H226658   2.539   2.309  15.654 -0.4937  0.5257  1.6609
 1723TIP3   OH226659   5.993   1.302  10.707  0.2688 -0.4390 -0.6252
 1723TIP3    H126660   6.028   1.238  10.645  0.9286 -0.3616 -0.3381
 1723TIP3    H226661   6.011   1.387  10.666  3.8975 -0.1568  1.1658
 1724TIP3   OH226662   3.280   4.817  15.017 -0.1300 -0.1837  0.8623
 1724TIP3    H126663   3.227   4.881  15.064 -0.3319  0.5142 -0.2636
 1724TIP3    H226664   3.369   4.831  15.048 -0.1718  0.6733  0.6159
 1725TIP3   OH226665   4.328   0.285  14.028 -0.1679 -0.2765 -0.4904
 1725TIP3    H126666   4.252   0.240  14.064 -0.9747  2.2058  1.1749
 1725TIP3    H226667   4.291   0.363  13.986  1.3247 -0.0854 -1.5220
 1726TIP3   OH226668   2.015   3.023  15.876  0.2708  0.0230  0.2532
 1726TIP3    H126669   1.994   3.060  15.961 -0.7765 -0.4045  0.2071
 1726TIP3    H226670   1.940   2.966  15.856  0.1616  0.6603 -1.2664
 1727TIP3   OH226671   4.463   0.418   0.154 -0.0299  0.3018  0.3286
 1727TIP3    H126672   4.529   0.349   0.145 -0.3017  0.2642 -2.3508
 1727TIP3    H226673   4.511   0.500   0.141 -0.3202  0.3353 -0.6037
 1728TIP3   OH226674   6.841   1.589   2.244  0.3210  0.7106 -0.0613
 1728TIP3    H126675   6.747   1.597   2.264 -0.0486 -0.2250 -1.2766
 1728TIP3    H226676   6.849   1.503   2.201  1.8276  0.5414  0.4950
 1729TIP3   OH226677   1.825   1.199   1.985  0.8900 -0.0759 -0.0399
 1729TIP3    H126678   1.844   1.256   1.910 -0.7576 -2.2699 -2.2960
 1729TIP3    H226679   1.859   1.113   1.960  2.0707 -0.5076  2.6535
 1730TIP3   OH226680   1.887   2.750  14.484 -0.0141  0.1282  0.5904
 1730TIP3    H126681   1.800   2.781  14.507 -0.2711 -0.2832  0.2016
 1730TIP3    H226682   1.926   2.720  14.567 -0.2688  0.2528  0.7532
 1731TIP3   OH226683   5.937   0.934  16.727  0.2687 -0.3689  0.7830
 1731TIP3    H126684   5.960   0.877  16.654  0.2744 -0.1128  0.5821
 1731TIP3    H226685   5.990   1.013  16.712  0.1468 -0.2518  0.9730
 1732TIP3   OH226686   4.235   6.418  12.592 -0.4964 -0.0301 -0.0853
 1732TIP3    H126687   4.269   6.400  12.680 -1.4712 -0.4095  0.2275
 1732TIP3    H226688   4.276   6.501  12.567 -0.9800  0.5955  1.1438
 1733TIP3   OH226689   3.136   5.276  16.259 -0.3865  0.0621  0.2950
 1733TIP3    H126690   3.183   5.320  16.330 -0.0757  0.1017  0.0666
 1733TIP3    H226691   3.077   5.343  16.225  1.1096  0.7807 -1.0099
 1734TIP3   OH226692   3.787   6.566   4.346 -0.6508 -0.2788 -0.4721
 1734TIP3    H126693   3.827   6.489   4.305  1.2172  0.7612 -0.7018
 1734TIP3    H226694   3.778   6.541   4.438 -0.9373 -1.1040 -0.7136
 1735TIP3   OH226695   1.224   6.344   4.032  0.5278  0.0110 -0.1685
 1735TIP3    H126696   1.194   6.294   3.957  0.3893  1.5132 -1.1651
 1735TIP3    H226697   1.199   6.434   4.012  0.8982  0.5133  1.4777
 1736TIP3   OH226698   0.013   1.474   5.362 -0.3490 -0.1436  0.2958
 1736TIP3    H126699   0.064   1.508   5.288 -0.0086  0.0293  0.6045
 1736TIP3    H226700  -0.009   1.552   5.414  0.6567 -0.3971  1.1440
 1737TIP3   OH226701   6.355   5.588  14.459 -0.0287 -0.0483 -0.2605
 1737TIP3    H126702   6.267   5.612  14.431 -0.7852 -1.6214  0.6643
 1737TIP3    H226703   6.407   5.593  14.378 -1.3524 -0.8712 -1.2090
 1738TIP3   OH226704   5.875   2.243   4.263 -0.0940 -0.3696  0.4154
 1738TIP3    H126705   5.814   2.256   4.191 -0.5279 -0.4257  0.7662
 1738TIP3    H226706   5.819   2.222   4.338  0.1945  1.4755  1.2171
 1739TIP3   OH226707   1.971   1.071  15.712  0.0375 -0.4282 -0.2396
 1739TIP3    H126708   1.962   1.119  15.629 -2.0563 -0.7215 -0.2344
 1739TIP3    H226709   1.905   1.109  15.769 -0.9458 -2.5222  0.1181
 1740TIP3   OH226710   4.934   0.681   1.936  0.1366  0.2842  0.1419
 1740TIP3    H126711   4.865   0.728   1.888  0.7143 -0.1053 -1.1023
 1740TIP3    H226712   4.890   0.602   1.968  0.3292 -0.7451 -1.9795
 1741TIP3   OH226713   2.404   2.748  15.677 -0.4939  0.3501 -0.5350
 1741TIP3    H126714   2.346   2.800  15.732 -1.7131 -0.9361 -0.5500
 1741TIP3    H226715   2.452   2.693  15.738  0.2345  0.9311 -0.5731
 1742TIP3   OH226716   4.523   4.718  13.928  0.3069 -0.5501  0.4187
 1742TIP3    H126717   4.556   4.653  13.989  0.7403 -0.7028  0.0288
 1742TIP3    H226718   4.447   4.677  13.887  0.8169 -0.9841 -0.1213
 1743TIP3   OH226719   1.314   3.250  12.192  0.5198  0.0454 -0.1540
 1743TIP3    H126720   1.239   3.309  12.182  0.6334  0.3810  0.8618
 1743TIP3    H226721   1.390   3.308  12.195  0.6714 -0.1670  0.4026
 1744TIP3   OH226722   4.040   0.778  16.523 -0.3764 -0.1782 -0.4867
 1744TIP3    H126723   4.109   0.773  16.589 -1.8204  0.9595  1.2280
 1744TIP3    H226724   3.988   0.699  16.537 -1.4720  0.7132  0.7553
 1745TIP3   OH226725   2.312   6.564   5.526 -0.3210 -0.8150 -0.0626
 1745TIP3    H126726   2.282   6.508   5.455 -0.2700 -0.0432 -0.6972
 1745TIP3    H226727   2.247   6.634   5.533 -0.8434 -1.3923  1.2968
 1746TIP3   OH226728   3.589   3.143   1.005 -0.3877  0.3301 -0.0343
 1746TIP3    H126729   3.527   3.070   1.000 -0.1795  0.1550 -0.0579
 1746TIP3    H226730   3.675   3.102   1.011 -0.2635  0.5743 -0.1104
 1747TIP3   OH226731   3.004   5.119  16.596  0.0974  0.2450 -0.6021
 1747TIP3    H126732   3.098   5.106  16.610  0.2067  1.2293 -0.3861
 1747TIP3    H226733   2.967   5.120  16.684 -0.3765 -1.7694 -0.7098
 1748TIP3   OH226734   2.567   1.490  10.615 -0.1512  0.0182 -0.3069
 1748TIP3    H126735   2.484   1.537  10.605 -0.2825 -0.1814 -0.1699
 1748TIP3    H226736   2.621   1.548  10.668 -0.7322 -0.4930  0.8802
 1749TIP3   OH226737   0.521   6.679   3.183 -0.6303 -0.0155  0.4881
 1749TIP3    H126738   0.540   6.681   3.276 -0.7414 -0.4313  0.5221
 1749TIP3    H226739   0.599   6.641   3.143 -0.4385  0.4896  0.3684
 1750TIP3   OH226740   2.845   5.114   3.530  0.4351 -0.3712 -0.4574
 1750TIP3    H126741   2.871   5.023   3.536  0.0181 -0.5142 -0.7576
 1750TIP3    H226742   2.840   5.132   3.436 -1.4577 -0.6385 -0.4606
 1751TIP3   OH226743   0.064   1.772  10.258  0.5281 -0.1480 -0.2248
 1751TIP3    H126744  -0.019   1.735  10.289  0.6346 -0.0116  0.2275
 1751TIP3    H226745   0.085   1.720  10.181 -0.0839 -0.0457 -0.4652
 1752TIP3   OH226746   6.373   1.624  15.595  0.2423  0.2733  0.0666
 1752TIP3    H126747   6.296   1.669  15.560 -0.1055 -1.5646 -1.7005
 1752TIP3    H226748   6.441   1.692  15.599 -1.0471  1.6037  0.3419
 1753TIP3   OH226749   2.111   1.316  16.549  0.1448  0.3981  0.1671
 1753TIP3    H126750   2.116   1.389  16.488  0.3821  0.4578  0.2602
 1753TIP3    H226751   2.170   1.250  16.513 -1.2925 -0.3974 -0.8075
 1754TIP3   OH226752   6.202   4.245  16.309 -0.6870 -0.2263  0.5979
 1754TIP3    H126753   6.154   4.227  16.228  1.1821  1.0122 -0.8789
 1754TIP3    H226754   6.211   4.160  16.351 -2.1383 -0.8247 -0.2152
 1755TIP3   OH226755   3.129   2.963  17.010 -0.0210  0.7716  0.9459
 1755TIP3    H126756   3.090   3.039  17.051 -2.6205 -0.3421  0.7181
 1755TIP3    H226757   3.056   2.904  16.993  1.2031  0.0393 -2.9266
 1756TIP3   OH226758   0.261   1.183   0.704  0.0056  0.0604 -0.2427
 1756TIP3    H126759   0.202   1.237   0.756  0.1424 -0.8439  0.8996
 1756TIP3    H226760   0.343   1.232   0.701 -0.0644  0.2094  0.2479
 1757TIP3   OH226761   2.827   1.501  11.892  0.5314  0.3449 -0.0320
 1757TIP3    H126762   2.748   1.526  11.844 -0.1049  0.3568  0.9889
 1757TIP3    H226763   2.874   1.584  11.905  0.2262  0.4843  0.2013
 1758TIP3   OH226764   1.939   3.577  16.137  0.3286  0.6047  0.7636
 1758TIP3    H126765   1.852   3.584  16.096  0.4024  0.4482  0.5751
 1758TIP3    H226766   1.948   3.657  16.188  0.1352  0.6941  0.6607
 1759TIP3   OH226767   4.267   4.657  16.448 -0.1150 -0.1787 -0.1476
 1759TIP3    H126768   4.274   4.692  16.537 -1.7789 -0.7592  0.2501
 1759TIP3    H226769   4.217   4.576  16.458  1.3483 -1.2963 -1.3874
 1760TIP3   OH226770   0.483   1.684  16.673 -0.4671 -0.2362  0.1452
 1760TIP3    H126771   0.394   1.671  16.642  0.0365 -2.6601 -0.4244
 1760TIP3    H226772   0.524   1.739  16.606 -1.0589 -0.5040 -0.4479
 1761TIP3   OH226773   2.012   5.480   2.171  0.5125 -0.3218 -0.0640
 1761TIP3    H126774   2.036   5.567   2.138 -1.2943  0.1561 -0.2116
 1761TIP3    H226775   2.087   5.454   2.224  0.1820  2.3634  1.9588
 1762TIP3   OH226776   6.476   1.498   1.678 -0.4703  0.3437 -0.6637
 1762TIP3    H126777   6.405   1.444   1.643 -0.4341  1.4313 -2.4998
 1762TIP3    H226778   6.547   1.436   1.694 -1.0963 -0.4398 -0.8377
 1763TIP3   OH226779   2.475   5.281   5.114 -0.4019  0.2739 -0.3277
 1763TIP3    H126780   2.559   5.236   5.118 -0.4003  0.3262  2.0719
 1763TIP3    H226781   2.446   5.270   5.024  2.1096  0.1724 -1.2048
 1764TIP3   OH226782   2.911   6.467   4.243  0.2115  0.7118  0.4582
 1764TIP3    H126783   2.988   6.462   4.187  0.8219  1.7590  1.1708
 1764TIP3    H226784   2.893   6.376   4.267  2.4061  0.5602  1.8325
 1765TIP3   OH226785   3.704   4.492   2.556 -0.3215  0.1825 -0.4425
 1765TIP3    H126786   3.657   4.467   2.477 -0.8321  1.4656 -0.5743
 1765TIP3    H226787   3.705   4.413   2.610 -1.3940 -0.2557 -1.0339
 1766TIP3   OH226788   2.480   1.228   1.621  0.5578 -0.3193  0.1895
 1766TIP3    H126789   2.573   1.226   1.642  0.7037  1.8601 -0.0282
 1766TIP3    H226790   2.436   1.208   1.704  1.1981 -1.3636  0.2922
 1767TIP3   OH226791   0.449   2.923  15.757  0.2850 -0.7195 -0.1462
 1767TIP3    H126792   0.541   2.951  15.761 -0.3503  1.7665 -0.9103
 1767TIP3    H226793   0.450   2.848  15.697  1.6266  0.4736 -1.7437
 1768TIP3   OH226794   0.946   0.648   4.421 -0.8143  0.4504  0.1139
 1768TIP3    H126795   0.932   0.730   4.374  0.3983  0.3849 -0.4013
 1768TIP3    H226796   1.032   0.658   4.461  0.0721 -1.1450 -1.2591
 1769TIP3   OH226797   6.166   1.896  14.819 -0.0311  0.3386 -0.0548
 1769TIP3    H126798   6.144   1.971  14.875  0.5854  0.0429  0.6049
 1769TIP3    H226799   6.236   1.851  14.867 -0.3344 -0.6136 -0.4876
 1770TIP3   OH226800   6.459   2.232   2.318  0.1754 -0.2138  0.0717
 1770TIP3    H126801   6.513   2.309   2.333  1.4175 -1.2697  1.2621
 1770TIP3    H226802   6.511   2.175   2.262  0.7139 -1.5917  1.8806
 1771TIP3   OH226803   2.715   6.024   0.393 -0.1566  0.2947  0.1966
 1771TIP3    H126804   2.781   6.057   0.331 -0.6270  0.7296 -0.0801
 1771TIP3    H226805   2.694   6.100   0.447 -2.2244  0.8661 -1.2914
 1772TIP3   OH226806   4.271   0.612  12.253  0.0399 -0.1898 -0.3364
 1772TIP3    H126807   4.268   0.628  12.158 -1.2426  1.9899  0.0086
 1772TIP3    H226808   4.351   0.654  12.282 -0.8831  1.5436 -0.1386
 1773TIP3   OH226809   5.631   6.558   4.262  0.0609 -0.1314 -0.2823
 1773TIP3    H126810   5.538   6.578   4.258  0.1699  0.2510 -1.1042
 1773TIP3    H226811   5.654   6.567   4.355 -1.2983 -2.9159  0.4361
 1774TIP3   OH226812   3.516   1.625   2.666  0.3718 -0.7281  1.2016
 1774TIP3    H126813   3.503   1.535   2.695 -0.2794 -1.1000 -0.1845
 1774TIP3    H226814   3.601   1.624   2.622  0.9475 -0.3606  2.2567
 1775TIP3   OH226815   6.299   0.278  11.826  0.4755  0.6433  0.3619
 1775TIP3    H126816   6.282   0.293  11.919 -0.2305  1.0291  0.1784
 1775TIP3    H226817   6.313   0.183  11.820  0.0071  0.5376  0.7910
 1776TIP3   OH226818   6.203   6.114  12.430  0.7524 -0.2382 -0.8308
 1776TIP3    H126819   6.159   6.071  12.357  0.0277  0.2342 -0.6761
 1776TIP3    H226820   6.292   6.130  12.398  0.9060 -1.4558 -1.0381
 1777TIP3   OH226821   5.053   2.869  13.233  0.5250 -0.0610 -0.0514
 1777TIP3    H126822   5.141   2.900  13.214  0.6580 -0.2771  0.1993
 1777TIP3    H226823   4.997   2.944  13.216  0.3574 -0.7917 -3.3386
 1778TIP3   OH226824   6.305   4.440  13.121 -0.1785 -0.2728 -0.1746
 1778TIP3    H126825   6.385   4.451  13.171  0.9825 -1.9946 -1.5279
 1778TIP3    H226826   6.301   4.516  13.064 -0.9620  1.1644  1.6927
 1779TIP3   OH226827   6.107   2.158  16.351 -0.0091 -0.3202 -0.1436
 1779TIP3    H126828   6.029   2.143  16.297  0.4518 -1.6983 -0.4632
 1779TIP3    H226829   6.109   2.083  16.410 -0.7047  1.3260  2.1024
 1780TIP3   OH226830   5.703   1.861  15.581  0.3009 -0.0467  1.1459
 1780TIP3    H126831   5.769   1.896  15.641 -0.1820 -0.5251  1.9754
 1780TIP3    H226832   5.645   1.809  15.637  0.5038 -1.4628  0.1028
 1781TIP3   OH226833   6.580   0.884   3.264  0.0049  0.0450 -0.3124
 1781TIP3    H126834   6.610   0.887   3.173 -0.3484  0.2186 -0.4259
 1781TIP3    H226835   6.576   0.791   3.285  1.1016  0.0362 -0.1340
 1782TIP3   OH226836   2.439   4.815  17.029 -0.2993  0.5736 -0.3687
 1782TIP3    H126837   2.350   4.787  17.050 -0.4869  2.3087  1.4689
 1782TIP3    H226838   2.428   4.880  16.960 -0.5204  0.9815  0.0385
 1783TIP3   OH226839   0.282   4.900   4.822 -0.5458 -0.3757  0.0714
 1783TIP3    H126840   0.253   4.991   4.827  1.7338  0.3519  2.3724
 1783TIP3    H226841   0.357   4.902   4.763  1.0145 -0.1933  1.9487
 1784TIP3   OH226842   2.440   5.241  16.415 -0.0046 -0.6053 -0.3787
 1784TIP3    H126843   2.374   5.306  16.391  0.8236  0.4028  0.0253
 1784TIP3    H226844   2.472   5.270  16.501 -0.8698 -2.5274  0.6644
 1785TIP3   OH226845   0.252   5.913   0.750  0.2651  0.1964  0.6271
 1785TIP3    H126846   0.204   5.897   0.831  2.0145  2.6297  2.2642
 1785TIP3    H226847   0.265   6.008   0.748 -0.1952  0.3066 -2.8448
 1786TIP3   OH226848   6.759   4.218  12.018 -0.0005  0.4746 -0.0824
 1786TIP3    H126849   6.803   4.263  12.090  0.3097 -1.2784  0.8837
 1786TIP3    H226850   6.668   4.248  12.023  0.2975  1.3716  0.1861
 1787TIP3   OH226851   5.816   0.947   4.565 -0.1070 -0.3200  0.3335
 1787TIP3    H126852   5.901   0.905   4.551 -0.5746 -1.0695 -0.2981
 1787TIP3    H226853   5.830   1.037   4.536  0.1699 -0.7224 -0.8378
 1788TIP3   OH226854   5.276   4.099  12.954  0.2451 -0.3727  0.0931
 1788TIP3    H126855   5.345   4.118  12.891  1.0249 -0.4264  0.9050
 1788TIP3    H226856   5.266   4.181  13.004 -0.7929 -0.1300 -0.4828
 1789TIP3   OH226857   2.741   1.316   3.149 -0.2566  0.1941  0.2947
 1789TIP3    H126858   2.780   1.383   3.094 -0.5196 -0.7581 -1.1030
 1789TIP3    H226859   2.673   1.361   3.198  0.1514  1.1147  0.0330
 1790TIP3   OH226860   0.563   5.960   3.303  0.3855  0.1503  0.4832
 1790TIP3    H126861   0.630   5.893   3.286  0.9185  1.0596 -1.2528
 1790TIP3    H226862   0.481   5.919   3.273  0.6201  0.0476 -0.0378
 1791TIP3   OH226863   3.278   2.636   5.890  0.0782  0.0932 -0.2863
 1791TIP3    H126864   3.206   2.573   5.897  0.3384 -0.1245  0.5792
 1791TIP3    H226865   3.328   2.624   5.971  0.7608  0.6438 -0.6161
 1792TIP3   OH226866   6.131   3.869  15.599  0.6280  0.0745 -0.2282
 1792TIP3    H126867   6.098   3.936  15.658 -0.9004 -1.2383  0.4706
 1792TIP3    H226868   6.175   3.918  15.529 -1.2349  1.8655 -0.2395
 1793TIP3   OH226869   6.193   2.130   0.052  0.0289  0.7211 -0.6131
 1793TIP3    H126870   6.138   2.056   0.025 -0.9399  0.5678  1.5170
 1793TIP3    H226871   6.234   2.161  -0.028 -0.6527 -1.2336 -1.7805
 1794TIP3   OH226872   4.601   4.456  14.505  0.6053 -0.3453  0.1445
 1794TIP3    H126873   4.587   4.543  14.467  0.1248  0.3049  1.7267
 1794TIP3    H226874   4.519   4.436  14.550 -0.8717 -3.3872 -3.3200
 1795TIP3   OH226875   0.412   1.164  16.290  0.0114 -0.2431  0.7508
 1795TIP3    H126876   0.472   1.117  16.233  1.0207 -0.6253  2.0610
 1795TIP3    H226877   0.337   1.106  16.301 -0.1017 -0.2432 -0.0228
 1796TIP3   OH226878   1.228   3.236   5.450  0.2097  0.0267  0.5340
 1796TIP3    H126879   1.172   3.305   5.485  1.1195  0.8281  0.4288
 1796TIP3    H226880   1.250   3.265   5.362  0.9472 -0.1948  0.6410
 1797TIP3   OH226881   2.082   1.412   0.926 -0.7761 -0.1192 -0.2551
 1797TIP3    H126882   2.048   1.331   0.964  0.6722 -1.4154 -1.5524
 1797TIP3    H226883   2.126   1.383   0.845  2.2119  1.5405  0.6169
 1798TIP3   OH226884   0.284   0.478  10.300  0.5351 -0.0469 -0.1909
 1798TIP3    H126885   0.260   0.563  10.338 -0.1557  1.1313 -3.0104
 1798TIP3    H226886   0.379   0.484  10.288  0.8233 -0.5786  1.5241
 1799TIP3   OH226887   4.518   2.010   6.121 -0.0343  0.3965  0.3869
 1799TIP3    H126888   4.438   1.967   6.152  1.5364 -0.4331  3.6840
 1799TIP3    H226889   4.552   1.952   6.053 -0.2558 -1.3331  1.6854
 1800TIP3   OH226890   2.688   5.289  12.124 -0.5356 -0.1190  0.4152
 1800TIP3    H126891   2.674   5.215  12.065  0.3021  0.5067 -0.6030
 1800TIP3    H226892   2.727   5.250  12.202 -3.0636 -1.1816  1.2449
 1801TIP3   OH226893   6.617   1.094  12.396  0.0769  0.6893 -0.1431
 1801TIP3    H126894   6.565   1.029  12.350 -0.3984 -0.3619  1.7585
 1801TIP3    H226895   6.698   1.049  12.419  0.3302  1.1975 -0.0184
 1802TIP3   OH226896   0.243   2.063   2.546  0.3600 -0.5480  0.0235
 1802TIP3    H126897   0.285   2.117   2.613  0.1938 -2.6305  1.8994
 1802TIP3    H226898   0.157   2.042   2.583  0.2540 -1.7452 -0.8625
 1803TIP3   OH226899   4.536   4.869   5.832 -0.0035  0.0870 -0.9308
 1803TIP3    H126900   4.529   4.804   5.903 -0.4589 -1.8762 -2.6871
 1803TIP3    H226901   4.603   4.930   5.863 -0.1243 -0.7475  1.1455
 1804TIP3   OH226902   2.229   3.010  11.755  0.1023  0.8955 -0.2227
 1804TIP3    H126903   2.211   3.070  11.828  0.6578 -0.2376  0.8973
 1804TIP3    H226904   2.150   3.012  11.701 -0.1329  2.1306  0.1405
 1805TIP3   OH226905   6.354   5.584  15.541 -0.1145 -0.1173 -0.4213
 1805TIP3    H126906   6.292   5.621  15.604 -0.1926  1.7933 -1.5271
 1805TIP3    H226907   6.307   5.587  15.458  0.8251 -0.3346 -0.9719
 1806TIP3   OH226908   4.360   1.392   0.645 -0.0442 -0.2211  0.1931
 1806TIP3    H126909   4.325   1.303   0.634  1.4284 -0.7210 -0.6573
 1806TIP3    H226910   4.372   1.401   0.740  0.6198 -1.2748  0.2290
 1807TIP3   OH226911   3.360   1.018   3.131 -0.2720  0.3618  0.0391
 1807TIP3    H126912   3.305   1.024   3.209 -1.0143  0.4570 -0.4873
 1807TIP3    H226913   3.305   1.049   3.059  0.8089  1.4768 -0.3448
 1808TIP3   OH226914   6.686   2.951  17.085 -0.2089  0.8545 -0.0649
 1808TIP3    H126915   6.672   2.891  17.012 -1.4425  0.3423  0.5715
 1808TIP3    H226916   6.733   3.025  17.046 -0.3282  0.3328 -1.2530
 1809TIP3   OH226917   2.535   6.641   1.981  0.0161 -0.4204 -0.3326
 1809TIP3    H126918   2.575   6.555   1.993 -2.4349 -1.2568  2.9712
 1809TIP3    H226919   2.445   6.623   1.955  0.2822  1.3196 -2.8358
 1810TIP3   OH226920   3.950   0.256  16.223  0.5874  0.7931  0.3904
 1810TIP3    H126921   4.011   0.253  16.150 -1.1122  2.1165 -1.1999
 1810TIP3    H226922   4.005   0.251  16.301  2.5212 -0.0528 -0.9533
 1811TIP3   OH226923   4.358   0.850   3.994  0.4075 -0.4198  0.1482
 1811TIP3    H126924   4.373   0.804   3.912  0.8769  0.9035 -0.5493
 1811TIP3    H226925   4.416   0.808   4.057 -0.3391 -1.7922 -0.0407
 1812TIP3   OH226926   1.599   3.828  14.544 -0.4026  0.6092  0.6359
 1812TIP3    H126927   1.646   3.886  14.604  1.3329 -0.5739  0.4836
 1812TIP3    H226928   1.645   3.745  14.550  0.6792  0.7270 -3.2381
 1813TIP3   OH226929   2.034   3.124  13.318 -0.6735  0.0300  0.7663
 1813TIP3    H126930   2.049   3.030  13.315 -1.7720 -0.1396 -1.7554
 1813TIP3    H226931   1.946   3.136  13.282 -0.6715  2.0103  1.2829
 1814TIP3   OH226932   2.091   3.269  16.536 -0.0467  0.4767 -0.0931
 1814TIP3    H126933   2.175   3.297  16.572  0.5778 -0.4025 -0.8338
 1814TIP3    H226934   2.073   3.186  16.579 -1.4435  1.4756  1.4079
 1815TIP3   OH226935   3.654   6.605   2.193  0.2851  0.4713 -0.5066
 1815TIP3    H126936   3.726   6.581   2.251 -0.8514  2.2258  1.8004
 1815TIP3    H226937   3.685   6.684   2.148 -1.5906  4.4381  4.1887
 1816TIP3   OH226938   4.908   2.288   2.442 -0.2860 -0.1447  0.0403
 1816TIP3    H126939   5.004   2.290   2.442 -0.2869  0.2253 -0.6952
 1816TIP3    H226940   4.887   2.194   2.439  0.0540 -0.2292  0.2568
 1817TIP3   OH226941   4.761   6.119  11.453 -0.0679 -0.1375  0.0714
 1817TIP3    H126942   4.781   6.129  11.359  2.6624 -0.6384  0.5279
 1817TIP3    H226943   4.669   6.146  11.460 -0.0092  1.1250 -2.5488
 1818TIP3   OH226944   1.567   5.082   2.769  0.5240 -0.2842 -0.2285
 1818TIP3    H126945   1.573   5.107   2.677  1.6411  0.2511 -0.0246
 1818TIP3    H226946   1.515   5.152   2.809 -0.7573 -0.9927 -0.6039
 1819TIP3   OH226947   3.715   1.433   5.599 -0.1883 -0.0504  0.1531
 1819TIP3    H126948   3.642   1.492   5.581 -0.2069  0.3012  1.2875
 1819TIP3    H226949   3.682   1.346   5.578 -0.9551  0.0982  0.6797
 1820TIP3   OH226950   3.857   3.705  13.825 -0.2251 -0.0418 -0.3726
 1820TIP3    H126951   3.861   3.702  13.729  0.6481  0.6529 -0.3764
 1820TIP3    H226952   3.790   3.770  13.844  0.7760  1.0751 -0.5464
 1821TIP3   OH226953   0.574   5.662  11.032  0.2282  0.4120  0.0974
 1821TIP3    H126954   0.599   5.585  10.981 -0.2380  0.7080 -0.5907
 1821TIP3    H226955   0.549   5.728  10.967  1.0211  1.2963  0.6631
 1822TIP3   OH226956   0.003   0.760   0.331 -0.3948  0.0506  0.2648
 1822TIP3    H126957  -0.081   0.722   0.307  0.4184 -1.3448 -0.4885
 1822TIP3    H226958   0.002   0.848   0.293 -0.9707 -0.4616 -0.9286
 1823TIP3   OH226959   1.644   3.804   3.181 -0.1237 -0.0784  0.0995
 1823TIP3    H126960   1.584   3.765   3.118 -0.2522 -1.6696  1.1499
 1823TIP3    H226961   1.730   3.798   3.140 -0.3650  0.0487 -0.4296
 1824TIP3   OH226962   4.859   1.717   4.540 -0.3623  0.0851  0.3867
 1824TIP3    H126963   4.944   1.713   4.495 -1.2250 -0.6634 -1.2577
 1824TIP3    H226964   4.840   1.811   4.545  1.4187  0.3983  2.5554
 1825TIP3   OH226965   0.031   1.234   3.944 -0.1629 -0.4968  0.1994
 1825TIP3    H126966  -0.011   1.317   3.924  1.0435  0.0802 -0.0352
 1825TIP3    H226967   0.123   1.247   3.919  0.0898 -1.8254  0.3525
 1826TIP3   OH226968   0.482   1.621   4.875  0.3127  0.1393  0.6754
 1826TIP3    H126969   0.550   1.671   4.831  1.3877 -1.1012  0.8822
 1826TIP3    H226970   0.416   1.606   4.807  1.1995 -0.3700 -0.0957
 1827TIP3   OH226971   6.615   2.178  13.158  0.3037  0.3771 -0.0412
 1827TIP3    H126972   6.702   2.206  13.129  0.2536  0.7379  0.1582
 1827TIP3    H226973   6.625   2.084  13.175  0.1036 -0.0688 -2.0943
 1828TIP3   OH226974   4.070   6.549  15.105 -0.3668 -0.6125  0.3617
 1828TIP3    H126975   4.085   6.535  15.199  1.1533 -0.0652  0.2269
 1828TIP3    H226976   4.092   6.641  15.091  1.2727 -1.1429 -0.8374
 1829TIP3   OH226977   5.280   1.117  16.530 -0.7299  0.5806  0.0761
 1829TIP3    H126978   5.203   1.125  16.587  0.0720  0.2133  1.2387
 1829TIP3    H226979   5.353   1.101  16.590 -0.0451 -1.0952 -1.1154
 1830TIP3   OH226980   3.017   0.334  13.565  0.5205  0.5056 -0.3107
 1830TIP3    H126981   2.969   0.409  13.600  1.0468  0.8808 -0.3863
 1830TIP3    H226982   3.055   0.367  13.483  0.5999  0.0996 -0.4372
 1831TIP3   OH226983   0.898   4.259   2.700  0.2241  0.6840 -0.3094
 1831TIP3    H126984   0.840   4.327   2.734 -0.2343  0.5391 -0.7970
 1831TIP3    H226985   0.896   4.190   2.766 -1.7221 -0.1883 -1.2119
 1832TIP3   OH226986   2.943   6.393  16.232  0.4710 -0.1521 -0.9400
 1832TIP3    H126987   2.898   6.444  16.165 -1.1061 -1.1717 -0.7113
 1832TIP3    H226988   2.879   6.328  16.261  1.8006 -1.0953  0.0711
 1833TIP3   OH226989   4.400   1.946  15.728  0.2659  0.1154  0.1908
 1833TIP3    H126990   4.466   1.877  15.728  1.0762  0.8230 -1.7536
 1833TIP3    H226991   4.334   1.916  15.665 -0.9419 -0.2226  1.5477
 1834TIP3   OH226992   5.984   6.839   3.330  0.0223  0.2996  0.2331
 1834TIP3    H126993   6.054   6.781   3.361 -1.5347 -0.3503  2.9326
 1834TIP3    H226994   6.030   6.916   3.298  2.0245 -0.2418  1.5466
 1835TIP3   OH226995   6.671   0.437   3.706  0.9102  0.5046 -0.1933
 1835TIP3    H126996   6.682   0.350   3.669  2.7460  0.0052  1.3759
 1835TIP3    H226997   6.750   0.485   3.681 -0.4551  2.0634 -1.7727
 1836TIP3   OH226998   0.159   4.807  11.616  0.2566 -0.3583 -0.0089
 1836TIP3    H126999   0.228   4.864  11.648 -0.2770  1.1021 -1.3519
 1836TIP3    H227000   0.191   4.718  11.634  1.8749  0.3009  0.5552
 1837TIP3   OH227001   0.503   5.311   0.844 -0.1368 -0.5087 -0.3020
 1837TIP3    H127002   0.527   5.284   0.756  0.2135  2.1640 -1.1393
 1837TIP3    H227003   0.587   5.329   0.887 -0.3285  1.5729 -0.6823
 1838TIP3   OH227004   6.028   6.187   0.277 -0.2277 -0.1694 -0.7559
 1838TIP3    H127005   6.013   6.176   0.371  0.6483 -0.1423 -0.6054
 1838TIP3    H227006   5.945   6.222   0.244 -1.0323 -1.5057 -0.2490
 1839TIP3   OH227007   0.945   1.305  12.078 -0.2395 -0.3783 -0.0610
 1839TIP3    H127008   0.913   1.389  12.111 -2.7988 -0.0372 -2.9930
 1839TIP3    H227009   1.020   1.328  12.024  0.3066 -0.2711  0.7149
 1840TIP3   OH227010   1.428   5.054   3.111 -0.2003  0.2356  0.9404
 1840TIP3    H127011   1.523   5.051   3.097 -0.1674 -0.2167  1.2601
 1840TIP3    H227012   1.418   5.073   3.204 -0.4287  1.7437  0.6444
 1841TIP3   OH227013   0.493   5.845  12.865  0.2379  0.0796 -0.6805
 1841TIP3    H127014   0.530   5.932  12.877 -1.0562  1.0071 -2.7621
 1841TIP3    H227015   0.398   5.859  12.858 -0.3931 -1.9198  2.0766
 1842TIP3   OH227016   1.148   4.155   3.011 -0.3565 -0.1933 -0.0723
 1842TIP3    H127017   1.058   4.129   3.032 -0.2249 -1.3920 -0.8664
 1842TIP3    H227018   1.173   4.097   2.939  1.1469 -0.0529  0.3025
 1843TIP3   OH227019   3.338   6.762  11.887 -0.1904 -0.5845  0.2127
 1843TIP3    H127020   3.347   6.855  11.907 -1.3985 -0.0348 -1.6028
 1843TIP3    H227021   3.414   6.743  11.831  0.4891 -0.9056  1.2251
 1844TIP3   OH227022   1.679   0.762  15.103 -1.2382 -0.0595  0.3612
 1844TIP3    H127023   1.639   0.834  15.152  0.1467  1.7644 -1.0565
 1844TIP3    H227024   1.681   0.792  15.012  0.0651 -1.5846 -0.1772
 1845TIP3   OH227025   6.393   2.415  16.506 -0.4138 -0.1932 -0.1192
 1845TIP3    H127026   6.458   2.485  16.500  0.1214 -0.7633 -1.3564
 1845TIP3    H227027   6.357   2.407  16.418  0.3650 -2.2152 -0.3150
 1846TIP3   OH227028   5.839   2.641  11.028  0.7609  0.2032 -0.2768
 1846TIP3    H127029   5.891   2.607  10.955  0.6182  2.5979 -1.6023
 1846TIP3    H227030   5.895   2.628  11.105  2.4494  0.7624 -1.3466
 1847TIP3   OH227031   3.317   5.018  11.846 -0.4494  0.5371 -0.1331
 1847TIP3    H127032   3.340   5.008  11.753 -3.1148  1.1294 -0.9445
 1847TIP3    H227033   3.344   4.936  11.886  1.3926  0.5362 -1.2608
 1848TIP3   OH227034   5.565   2.308  14.731 -0.1975  0.1051  0.0284
 1848TIP3    H127035   5.623   2.231  14.735 -0.6005 -0.2084 -0.0429
 1848TIP3    H227036   5.485   2.275  14.690 -0.9008  0.2229  1.2403
 1849TIP3   OH227037   6.794   4.479   2.142 -0.0532 -0.8132 -0.3951
 1849TIP3    H127038   6.822   4.557   2.094 -0.3307 -1.4338 -1.6220
 1849TIP3    H227039   6.702   4.469   2.119  0.3227 -2.2883 -1.4484
 1850TIP3   OH227040   4.143   4.076   5.141  0.1098 -0.5981  0.8633
 1850TIP3    H127041   4.145   4.010   5.210 -0.2026 -1.4444  0.0881
 1850TIP3    H227042   4.067   4.054   5.088  0.5623 -0.2083  0.0243
 1851TIP3   OH227043   3.881   4.515   3.720 -0.4911  0.2880 -0.2487
 1851TIP3    H127044   3.817   4.578   3.751  0.5146  0.5275  1.4876
 1851TIP3    H227045   3.845   4.430   3.745 -0.4397  0.3794  0.1394
 1852TIP3   OH227046   4.712   6.471   0.777 -0.6818 -0.3151  0.0609
 1852TIP3    H127047   4.712   6.553   0.728 -1.2791 -0.3900 -0.0687
 1852TIP3    H227048   4.633   6.425   0.748 -1.3527 -0.1201  1.4679
 1853TIP3   OH227049   6.116   2.469  16.921  0.2493  0.2163 -0.0268
 1853TIP3    H127050   6.124   2.510  16.835 -0.5250  1.6909  0.5610
 1853TIP3    H227051   6.135   2.377  16.906 -3.0814 -0.2475 -2.4583
 1854TIP3   OH227052   3.178   6.714   5.660 -0.2506 -0.6084 -0.3129
 1854TIP3    H127053   3.125   6.724   5.739 -0.8310 -1.4827 -0.5752
 1854TIP3    H227054   3.246   6.651   5.684  0.1978 -0.0933 -0.2136
 1855TIP3   OH227055   5.897   2.966   2.351  0.1131  0.0491  0.2333
 1855TIP3    H127056   5.822   2.908   2.333 -0.3636  0.6107  0.3914
 1855TIP3    H227057   5.973   2.911   2.333 -0.2271 -1.6524  3.3806
 1856TIP3   OH227058   5.909   5.825   6.415 -0.1671  0.1776 -0.4517
 1856TIP3    H127059   5.871   5.784   6.337 -0.5938  1.0187 -0.6997
 1856TIP3    H227060   6.000   5.795   6.416 -0.5235 -0.9534 -0.4931
 1857TIP3   OH227061   4.545   0.845  16.629 -0.2823 -0.4666 -0.2671
 1857TIP3    H127062   4.582   0.831  16.716 -0.4561 -1.3557 -0.3207
 1857TIP3    H227063   4.450   0.842  16.643 -0.3328  0.7882 -0.2839
 1858TIP3   OH227064   3.863   2.551   1.428  0.4720  0.4261  0.5325
 1858TIP3    H127065   3.798   2.599   1.481 -1.3705 -1.5061  0.1748
 1858TIP3    H227066   3.885   2.611   1.357  0.1977  1.6758  1.4599
 1859TIP3   OH227067   4.334   5.907  16.597 -0.2154 -0.4115 -0.1532
 1859TIP3    H127068   4.320   5.992  16.639 -0.5857 -0.9531  0.8544
 1859TIP3    H227069   4.247   5.880  16.566 -0.2863 -0.8874  0.4487
 1860TIP3   OH227070   6.689   6.208  13.684 -0.2356  0.2414 -0.1321
 1860TIP3    H127071   6.639   6.187  13.606  0.0197  0.0023 -0.2298
 1860TIP3    H227072   6.769   6.249  13.652 -0.6533  1.2306  0.0464
 1861TIP3   OH227073   3.904   2.068   3.750  0.1757  0.7995  0.0510
 1861TIP3    H127074   3.861   2.067   3.835  0.0751 -1.6997  0.0371
 1861TIP3    H227075   3.991   2.105   3.768  0.2727  0.0025  1.3109
 1862TIP3   OH227076   4.525   2.608   5.962  0.1501  0.7254  0.5767
 1862TIP3    H127077   4.607   2.646   5.993 -0.1502  0.6426  1.5081
 1862TIP3    H227078   4.508   2.535   6.022 -0.7846  0.9616  0.6095
 1863TIP3   OH227079   1.254   0.775   2.555  0.3592  0.0539 -0.1777
 1863TIP3    H127080   1.203   0.845   2.514  0.7274  0.0078 -0.7270
 1863TIP3    H227081   1.192   0.730   2.612 -0.3590 -0.3234 -1.2122
 1864TIP3   OH227082   2.441   5.063   4.809  0.3362  0.1613 -0.3966
 1864TIP3    H127083   2.374   5.082   4.744 -0.2646  1.0911  0.4821
 1864TIP3    H227084   2.515   5.119   4.785 -0.1519  1.0474  0.1316
 1865TIP3   OH227085   6.615   4.461  12.951 -0.1432  0.5822  0.0961
 1865TIP3    H127086   6.531   4.498  12.978  0.3988  1.4079  0.6793
 1865TIP3    H227087   6.655   4.431  13.032 -0.4622 -1.1266 -0.3317
 1866TIP3   OH227088   5.279   2.498   1.053 -0.1618 -0.0197 -0.1574
 1866TIP3    H127089   5.223   2.525   1.126 -2.9902 -1.7153 -1.5190
 1866TIP3    H227090   5.318   2.416   1.081 -0.9748 -0.4948 -0.3909
 1867TIP3   OH227091   4.683   3.812  15.497  0.1111 -0.1006  0.1720
 1867TIP3    H127092   4.653   3.750  15.431  0.5091  0.0239 -0.1303
 1867TIP3    H227093   4.750   3.864  15.453 -0.8894  1.1867  0.1222
 1868TIP3   OH227094   3.711   5.389  16.600  0.2051  0.1577  0.1173
 1868TIP3    H127095   3.666   5.473  16.615  2.5845  1.2554  1.6620
 1868TIP3    H227096   3.767   5.406  16.524  0.0291 -0.3507 -0.1305
 1869TIP3   OH227097   5.880   3.866   6.001  0.0997  0.2257  0.2617
 1869TIP3    H127098   5.908   3.911   5.922  1.5037 -0.1344  0.5395
 1869TIP3    H227099   5.784   3.865   5.995  0.1966 -0.3336 -1.7228
 1870TIP3   OH227100   3.011   1.481   1.735 -0.2237 -0.5512  0.6006
 1870TIP3    H127101   3.072   1.493   1.662 -0.6379  1.5863  0.5622
 1870TIP3    H227102   2.944   1.421   1.700  0.2168 -0.5032 -0.3622
 1871TIP3   OH227103   3.497   3.431   3.815  0.0768  0.1532  0.0670
 1871TIP3    H127104   3.434   3.412   3.885  0.7695  2.0990  1.2978
 1871TIP3    H227105   3.571   3.472   3.859  1.0606  0.3738 -1.6883
 1872TIP3   OH227106   5.755   3.344   2.926 -0.1562  0.1654  0.4628
 1872TIP3    H127107   5.841   3.309   2.902  0.0471  1.0460 -0.1364
 1872TIP3    H227108   5.773   3.400   3.002 -0.4005 -0.5852  1.0909
 1873TIP3   OH227109   0.659   2.228   1.252  0.3352 -0.2599  0.4770
 1873TIP3    H127110   0.737   2.259   1.206 -0.1338  1.4557  0.7412
 1873TIP3    H227111   0.660   2.276   1.335 -1.9823  1.3403 -0.3011
 1874TIP3   OH227112   1.579   5.557  15.362 -0.1467  0.0471 -0.3920
 1874TIP3    H127113   1.515   5.586  15.426  0.1334  0.2558 -0.2006
 1874TIP3    H227114   1.658   5.539  15.413  0.7748  2.3215 -0.8998
 1875TIP3   OH227115   3.038   1.204   0.903  0.2312  0.9933  0.3868
 1875TIP3    H127116   3.118   1.256   0.915  2.0274 -1.6519  0.6196
 1875TIP3    H227117   3.019   1.169   0.990 -2.5018  3.2096  0.8111
 1876TIP3   OH227118   1.422   0.758   4.364 -0.4236  0.4373 -0.1129
 1876TIP3    H127119   1.502   0.708   4.379 -0.4309  0.8789  1.6593
 1876TIP3    H227120   1.438   0.806   4.283  1.4470  1.1485  0.6170
 1877TIP3   OH227121   6.826   3.298  14.809 -0.1855  0.0833  0.1042
 1877TIP3    H127122   6.898   3.262  14.860  0.2044  0.3204 -0.2703
 1877TIP3    H227123   6.865   3.320  14.724 -0.6581  0.3719 -0.0441
 1878TIP3   OH227124   6.055   2.965   4.528  0.8550 -0.1278  0.7201
 1878TIP3    H127125   6.010   3.035   4.576  0.6727 -0.4120  0.9699
 1878TIP3    H227126   6.138   3.004   4.501 -0.0256  0.7922 -0.7944
 1879TIP3   OH227127   5.974   0.090   1.146  0.3183 -0.4646 -0.5227
 1879TIP3    H127128   5.959   0.175   1.189  2.1856 -0.7778  0.8758
 1879TIP3    H227129   6.040   0.047   1.200  0.2939 -2.3423 -1.8786
 1880TIP3   OH227130   2.797   0.413   3.962 -0.5622 -0.5342  0.6399
 1880TIP3    H127131   2.763   0.354   4.029 -1.7906 -0.0093  0.5067
 1880TIP3    H227132   2.723   0.425   3.902  0.0641  0.1532 -0.0014
 1881TIP3   OH227133   0.591   2.291   4.762  0.7777 -0.2355 -0.6654
 1881TIP3    H127134   0.682   2.287   4.732  1.2141 -2.0488  0.6826
 1881TIP3    H227135   0.556   2.204   4.741 -0.1665 -0.0817  0.2184
 1882TIP3   OH227136   0.649   6.512  13.660  0.1320  0.3242  0.5679
 1882TIP3    H127137   0.560   6.547  13.665  0.7332  1.9444  0.4926
 1882TIP3    H227138   0.640   6.419  13.682 -1.4281  0.6901  1.6004
 1883TIP3   OH227139   2.377   3.571   0.553 -0.1612 -0.0755  0.4465
 1883TIP3    H127140   2.379   3.536   0.464 -0.8215 -3.1183  1.4925
 1883TIP3    H227141   2.316   3.645   0.549 -1.6139 -1.2761 -1.3027
 1884TIP3   OH227142   6.082   3.919  15.291  0.3250 -0.0843  0.1849
 1884TIP3    H127143   6.131   3.853  15.242 -0.0665  0.3383 -0.8057
 1884TIP3    H227144   5.991   3.908  15.261  0.4067  1.5707 -0.7787
 1885TIP3   OH227145   5.188   3.351   4.058 -0.1450  0.4728  0.2021
 1885TIP3    H127146   5.195   3.264   4.019  0.2154  0.0543  1.1904
 1885TIP3    H227147   5.276   3.372   4.089  0.0157  1.6507 -0.9589
 1886TIP3   OH227148   3.090   5.441  15.204 -0.2101  0.5384  0.2053
 1886TIP3    H127149   3.021   5.434  15.137  1.3211 -1.6724 -1.2804
 1886TIP3    H227150   3.092   5.355  15.246  0.9905  0.8773  0.8992
 1887TIP3   OH227151   6.381   0.703   2.635  0.1148  0.0074  0.2639
 1887TIP3    H127152   6.417   0.662   2.714  0.9634  0.8227  0.3244
 1887TIP3    H227153   6.458   0.721   2.581 -0.1843  1.7507  0.3644
 1888TIP3   OH227154   4.756   2.680   5.408  0.1570  0.4751  0.4171
 1888TIP3    H127155   4.763   2.746   5.339  0.9906  1.1891  1.1730
 1888TIP3    H227156   4.701   2.720   5.475 -1.6779 -0.6702 -0.3154
 1889TIP3   OH227157   2.780   5.787  13.510  0.7351 -0.1418 -0.3413
 1889TIP3    H127158   2.691   5.770  13.480  0.1745 -0.1904  1.2483
 1889TIP3    H227159   2.773   5.793  13.605  2.0152  2.3494 -0.3256
 1890TIP3   OH227160   0.136   5.211   2.157 -0.7163 -0.0926 -0.2295
 1890TIP3    H127161   0.192   5.288   2.155 -0.3759 -0.2123  2.0522
 1890TIP3    H227162   0.048   5.244   2.138 -0.2069  0.3681 -2.0163
 1891TIP3   OH227163   4.426   6.315   4.911 -0.6696  0.0411  0.1313
 1891TIP3    H127164   4.467   6.271   4.837 -1.4368 -1.3809  0.5093
 1891TIP3    H227165   4.358   6.370   4.872 -0.1179  0.4208 -0.3072
 1892TIP3   OH227166   1.383   4.601   3.074 -0.3412 -0.5904  0.4288
 1892TIP3    H127167   1.330   4.667   3.032 -0.2854 -1.6832 -1.4786
 1892TIP3    H227168   1.440   4.650   3.133 -0.8741  0.9577 -0.2891
 1893TIP3   OH227169   0.851   1.834   3.744 -0.9255  0.2661  0.1901
 1893TIP3    H127170   0.883   1.752   3.782  0.3481 -0.0434 -1.4375
 1893TIP3    H227171   0.804   1.877   3.816  2.7721  0.5649  2.7219
 1894TIP3   OH227172   5.808   6.405  11.320  0.3556 -0.4233 -0.1996
 1894TIP3    H127173   5.761   6.327  11.291  0.3151 -0.9092  1.0710
 1894TIP3    H227174   5.862   6.374  11.394  1.2766  0.4979 -0.4570
 1895TIP3   OH227175   5.362   5.740   1.585  0.4935 -0.3840  0.2361
 1895TIP3    H127176   5.282   5.792   1.593  1.0156  0.5287 -0.2897
 1895TIP3    H227177   5.413   5.785   1.517  1.3277 -1.1144  0.3603
 1896TIP3   OH227178   0.787   1.959  11.349 -0.1522 -0.1195 -0.1000
 1896TIP3    H127179   0.813   1.882  11.400  0.9341  1.3003  1.6157
 1896TIP3    H227180   0.698   1.940  11.321 -0.1503 -1.7351  0.8425
 1897TIP3   OH227181   2.452   3.039   1.496 -0.3193  0.3525  0.2757
 1897TIP3    H127182   2.538   3.022   1.535 -0.3260  1.2805  0.7248
 1897TIP3    H227183   2.403   2.958   1.510  2.2367 -2.6599 -5.1635
 1898TIP3   OH227184   2.476   3.572  14.742  0.6638  0.8504 -0.1956
 1898TIP3    H127185   2.451   3.481  14.726 -0.6350  1.3984 -1.5594
 1898TIP3    H227186   2.395   3.615  14.770  1.6434  1.2455  2.2653
 1899TIP3   OH227187   5.213   3.279  11.069 -0.1660  0.1017  0.1105
 1899TIP3    H127188   5.152   3.353  11.070  2.2229  2.1680  0.7958
 1899TIP3    H227189   5.293   3.313  11.107  1.5232 -2.4669 -0.8938
 1900TIP3   OH227190   3.503   5.007   5.215 -0.0854  0.0479  0.3348
 1900TIP3    H127191   3.430   4.952   5.243  0.5230 -1.3932 -0.8058
 1900TIP3    H227192   3.465   5.095   5.210 -1.8808 -0.7172 -0.6028
 1901TIP3   OH227193   5.458   0.905  15.778  0.4999  0.0430  0.8152
 1901TIP3    H127194   5.398   0.897  15.703  2.6955 -1.5109 -0.9190
 1901TIP3    H227195   5.405   0.946  15.846 -2.9701 -2.4087 -0.0939
 1902TIP3   OH227196   3.362   0.079   4.760  0.3291  0.3789 -0.3146
 1902TIP3    H127197   3.267   0.080   4.748  0.1247 -3.0094 -0.1697
 1902TIP3    H227198   3.398   0.080   4.672  0.1045  0.4596 -0.4067
 1903TIP3   OH227199   1.195   6.258   1.467 -0.5207  0.8317  0.4860
 1903TIP3    H127200   1.146   6.203   1.405  0.8025 -0.5609  0.6172
 1903TIP3    H227201   1.132   6.325   1.494 -1.0740  1.7464 -2.6225
 1904TIP3   OH227202   5.996   4.719  13.628  0.4144 -0.2357 -0.4521
 1904TIP3    H127203   5.909   4.679  13.634  0.2439  0.2701  0.7637
 1904TIP3    H227204   5.996   4.787  13.695  1.6399 -0.0135 -0.6489
 1905TIP3   OH227205   4.519   3.409   0.119  0.0664 -0.2771 -0.0796
 1905TIP3    H127206   4.463   3.438   0.191 -0.1861 -1.3834  0.1824
 1905TIP3    H227207   4.608   3.429   0.148  0.1688 -2.7473  1.5827
 1906TIP3   OH227208   5.173   0.914   1.833 -0.6872 -0.3611 -0.4137
 1906TIP3    H127209   5.124   0.879   1.907 -0.6299  1.5389  0.6088
 1906TIP3    H227210   5.221   0.989   1.870 -0.5872  0.5884 -2.3446
 1907TIP3   OH227211   1.896   5.774  15.817 -0.3381  0.0585  0.2497
 1907TIP3    H127212   1.965   5.759  15.752 -0.0339 -0.6226  0.7205
 1907TIP3    H227213   1.932   5.741  15.899 -0.1852  2.1500  1.0775
 1908TIP3   OH227214   4.002   5.591   5.298  0.0490 -0.5509  0.7580
 1908TIP3    H127215   3.926   5.580   5.355 -0.9524  0.3102 -0.3562
 1908TIP3    H227216   4.027   5.502   5.274 -0.6397 -0.8478  1.1129
 1909TIP3   OH227217   2.284   1.660  16.512 -0.0083  0.2538 -0.2109
 1909TIP3    H127218   2.245   1.740  16.549 -1.7353 -0.6370  0.0081
 1909TIP3    H227219   2.280   1.597  16.584  1.2326 -0.0782 -0.4193
 1910TIP3   OH227220   2.339   3.882   5.427  0.2502  0.2916 -0.3079
 1910TIP3    H127221   2.300   3.827   5.359 -0.7521 -1.0460  1.2649
 1910TIP3    H227222   2.351   3.823   5.502  1.0476  1.7660  0.7896
 1911TIP3   OH227223   3.154   0.453  15.945 -0.6035  0.6216  0.2881
 1911TIP3    H127224   3.248   0.469  15.937 -0.1020 -1.5217  1.1862
 1911TIP3    H227225   3.114   0.540  15.939  1.4686  1.6612  0.6306
 1912TIP3   OH227226   3.328   0.365  15.615 -0.4998 -0.2624  0.5056
 1912TIP3    H127227   3.418   0.369  15.581 -0.0644 -3.1527  1.0219
 1912TIP3    H227228   3.303   0.456  15.628  2.2221  0.6588 -0.0133
 1913TIP3   OH227229   6.223   6.344   0.113  0.3161 -0.4146 -0.5117
 1913TIP3    H127230   6.273   6.275   0.155  0.2654 -0.4046 -0.4349
 1913TIP3    H227231   6.186   6.395   0.185 -0.4832 -0.9133 -0.5591
 1914TIP3   OH227232   0.112   4.337   2.526 -0.4655 -0.2549 -0.1441
 1914TIP3    H127233   0.172   4.394   2.573  1.9352 -1.3987 -1.5855
 1914TIP3    H227234   0.103   4.260   2.582 -1.1557  0.1996  0.3782
 1915TIP3   OH227235   4.214   5.407  13.241 -0.4007 -0.1050  0.0250
 1915TIP3    H127236   4.229   5.313  13.230 -2.1905 -0.3805 -0.3960
 1915TIP3    H227237   4.186   5.437  13.154  0.1600  0.8347  0.1548
 1916TIP3   OH227238   5.037   4.981  13.074  0.6267 -0.1048 -0.1670
 1916TIP3    H127239   4.994   5.066  13.075  1.2338  0.2111 -0.4173
 1916TIP3    H227240   4.979   4.924  13.125 -0.2440  0.2221 -0.7760
 1917TIP3   OH227241   5.769   5.420  11.816 -0.6540 -0.1055  0.5923
 1917TIP3    H127242   5.724   5.497  11.781 -0.4417  0.4217  1.4292
 1917TIP3    H227243   5.787   5.443  11.908  0.2239 -0.7848  0.6081
 1918TIP3   OH227244   5.529   0.771  12.272  0.2054  0.0808  0.0583
 1918TIP3    H127245   5.447   0.812  12.244  0.7752 -0.2206 -2.2980
 1918TIP3    H227246   5.578   0.758  12.191  2.2809 -0.4414  1.3148
 1919TIP3   OH227247   0.441   5.680  12.304  0.3068  0.7862 -0.0056
 1919TIP3    H127248   0.394   5.607  12.345  1.0065 -0.2166 -0.9004
 1919TIP3    H227249   0.533   5.656  12.313  0.7258  2.7898  1.8653
 1920TIP3   OH227250   5.301   5.366   0.602  0.0930  1.0237 -0.6476
 1920TIP3    H127251   5.389   5.396   0.578  0.4028  1.7565  1.1787
 1920TIP3    H227252   5.318   5.295   0.665 -0.6444  0.2799 -1.2711
 1921TIP3   OH227253   5.328   5.359   5.231  0.0273  0.4513  0.3954
 1921TIP3    H127254   5.305   5.273   5.268  1.8115 -1.2496 -2.1446
 1921TIP3    H227255   5.248   5.387   5.186 -0.6317  0.2544  1.4011
 1922TIP3   OH227256   0.311   5.824  14.024 -0.1916 -0.1198 -0.0467
 1922TIP3    H127257   0.393   5.835  13.976  0.5634  1.2380  1.4276
 1922TIP3    H227258   0.244   5.860  13.966  0.6264  1.0847 -0.2834
 1923TIP3   OH227259   6.717   4.213   5.447 -0.1486  0.5010 -0.1489
 1923TIP3    H127260   6.718   4.133   5.499 -0.9977  1.6336  1.7373
 1923TIP3    H227261   6.788   4.266   5.485 -0.2705  1.0416 -0.6708
 1924TIP3   OH227262   0.656   6.221   3.248 -0.2206 -0.1206 -0.6610
 1924TIP3    H127263   0.592   6.281   3.287  0.4963  0.1868  0.0708
 1924TIP3    H227264   0.621   6.134   3.268  0.6113 -0.0119  1.6458
 1925TIP3   OH227265   4.703   1.051   4.193 -0.4614  0.0604  1.2796
 1925TIP3    H127266   4.693   0.981   4.258 -0.7980  0.5883  1.7963
 1925TIP3    H227267   4.692   1.006   4.109 -0.0368 -0.6238  1.5731
 1926TIP3   OH227268   1.085   4.383  16.613 -0.5181  0.0675  0.0160
 1926TIP3    H127269   1.152   4.449  16.599 -0.4125 -0.0401  0.0065
 1926TIP3    H227270   1.046   4.404  16.697 -0.8764  0.4804 -0.2504
 1927TIP3   OH227271   3.087   4.126   1.664  0.2785  0.0546  0.2730
 1927TIP3    H127272   2.999   4.134   1.699  1.3623  2.0599  2.8576
 1927TIP3    H227273   3.118   4.216   1.655  2.6406 -0.5875  1.1124
 1928TIP3   OH227274   0.203   1.764  15.758 -0.7754  0.7633 -0.4880
 1928TIP3    H127275   0.170   1.854  15.755  2.2585  2.2224  3.0847
 1928TIP3    H227276   0.291   1.770  15.721 -0.0802 -0.4314  0.8904
 1929TIP3   OH227277   4.430   4.826   0.894  0.5099 -0.3389  0.4477
 1929TIP3    H127278   4.400   4.735   0.892 -0.0786 -0.1564 -1.8418
 1929TIP3    H227279   4.378   4.870   0.827  0.4229  1.8301  1.8408
 1930TIP3   OH227280   2.149   1.330   0.657  0.2532 -0.4969 -0.2688
 1930TIP3    H127281   2.206   1.404   0.676  0.8638 -1.1044  0.3259
 1930TIP3    H227282   2.147   1.325   0.561 -1.5660  1.6103 -0.4132
 1931TIP3   OH227283   2.424   0.667   1.750  0.4095 -0.3854 -0.4020
 1931TIP3    H127284   2.429   0.754   1.710 -0.4736 -0.3310 -0.4266
 1931TIP3    H227285   2.331   0.644   1.745  0.3267 -0.5556  1.2479
 1932TIP3   OH227286   6.471   5.021  14.123 -0.0977 -0.0282 -0.2512
 1932TIP3    H127287   6.532   4.990  14.056 -2.4274  0.3178 -2.6662
 1932TIP3    H227288   6.427   4.942  14.154  0.2843 -0.0763  0.1806
 1933TIP3   OH227289   4.652   0.103   4.024  0.1119 -0.2981 -0.2123
 1933TIP3    H127290   4.629   0.050   4.101  0.8598  1.1021  1.0425
 1933TIP3    H227291   4.587   0.080   3.958 -2.3511  0.5139  1.7809
 1934TIP3   OH227292   5.423   4.896  14.861 -0.1778 -0.0650 -0.2343
 1934TIP3    H127293   5.472   4.917  14.781  1.7361  0.6088  1.0521
 1934TIP3    H227294   5.357   4.965  14.867  1.7928  1.8505  0.4474
 1935TIP3   OH227295   2.779   2.137   4.031 -0.4185  0.1247  0.3865
 1935TIP3    H127296   2.807   2.062   3.978 -1.3473 -0.3893  0.5978
 1935TIP3    H227297   2.709   2.177   3.980 -3.0202 -1.7657  2.1744
 1936TIP3   OH227298   5.783   0.629  11.886 -0.0863  0.2193  0.5189
 1936TIP3    H127299   5.866   0.582  11.894 -0.6953 -1.0489 -0.2343
 1936TIP3    H227300   5.720   0.562  11.861 -0.5673  1.7847 -3.0843
 1937TIP3   OH227301   4.261   0.768  15.948  0.4778 -0.1960 -0.2436
 1937TIP3    H127302   4.215   0.711  15.886 -1.6256  0.1788  0.8604
 1937TIP3    H227303   4.226   0.856  15.930  0.7964  0.1154  0.6035
 1938TIP3   OH227304   5.616   1.154   2.018  0.3112 -0.7241  0.3365
 1938TIP3    H127305   5.702   1.161   2.060  0.0915  0.6073  0.5870
 1938TIP3    H227306   5.553   1.162   2.090 -0.0508 -2.3296  0.2467
 1939TIP3   OH227307   0.076   3.008  13.204 -0.0845 -0.3647  0.4872
 1939TIP3    H127308   0.051   2.987  13.294 -0.6143 -1.4455  0.1047
 1939TIP3    H227309   0.172   3.015  13.207 -0.0644 -0.8169  1.0509
 1940TIP3   OH227310   5.516   0.005  15.578  0.3072 -0.2607  0.0403
 1940TIP3    H127311   5.433   0.048  15.555  0.2349 -0.6070 -0.3721
 1940TIP3    H227312   5.562  -0.004  15.494  1.2498  0.9036  0.4004
 1941TIP3   OH227313   4.160   1.021   0.109  0.3314 -0.4913  0.3908
 1941TIP3    H127314   4.144   0.932   0.079  1.1414  0.2498 -2.6115
 1941TIP3    H227315   4.084   1.071   0.079  1.0514  0.2559 -0.2382
 1942TIP3   OH227316   0.454   1.690  11.389 -0.6911 -0.6968 -0.1173
 1942TIP3    H127317   0.410   1.633  11.325 -1.3120  0.2812 -0.5950
 1942TIP3    H227318   0.382   1.736  11.434 -0.2575 -1.3302  1.2612
 1943TIP3   OH227319   1.491   3.876   0.589  0.2620  0.3027  0.1269
 1943TIP3    H127320   1.585   3.888   0.598  0.5908 -2.8729  2.3797
 1943TIP3    H227321   1.453   3.941   0.648  1.3628 -1.6281  3.1592
 1944TIP3   OH227322   6.153   3.908  16.078 -0.2739 -0.1286 -0.2388
 1944TIP3    H127323   6.113   3.879  15.996  2.4264 -2.1517 -0.9641
 1944TIP3    H227324   6.143   4.004  16.076 -1.9797 -0.2687 -1.9324
 1945TIP3   OH227325   4.865   2.625   1.512 -0.0417  0.6518 -0.0286
 1945TIP3    H127326   4.820   2.615   1.429  0.5088  0.4774 -0.3090
 1945TIP3    H227327   4.805   2.678   1.566 -0.5791  0.4137 -0.3876
 1946TIP3   OH227328   1.189   0.426  16.325 -0.7825  0.1326 -0.1900
 1946TIP3    H127329   1.141   0.444  16.405  0.4312 -0.0636  0.6120
 1946TIP3    H227330   1.130   0.371  16.273 -2.4426  1.9822 -0.3928
 1947TIP3   OH227331   5.945   0.735  16.245 -0.0134 -0.1961  0.2362
 1947TIP3    H127332   5.907   0.647  16.250  0.4782 -0.3877  0.6575
 1947TIP3    H227333   5.938   0.758  16.153  0.8559 -1.1313 -0.0899
 1948TIP3   OH227334   2.109   1.239   1.988  0.6998  0.5135 -0.2575
 1948TIP3    H127335   2.076   1.162   2.034  1.6624 -0.4379 -1.1211
 1948TIP3    H227336   2.069   1.313   2.034 -2.6680 -0.5193 -1.2318
 1949TIP3   OH227337   3.500   5.051   0.881 -0.1846 -0.7418  0.4042
 1949TIP3    H127338   3.542   5.029   0.964  0.0110 -1.8129  0.0383
 1949TIP3    H227339   3.561   5.111   0.838  1.0175 -2.2678 -0.1164
 1950TIP3   OH227340   3.418   1.604  13.879 -0.0690  0.2419  0.5610
 1950TIP3    H127341   3.388   1.594  13.789 -0.3642 -0.4298  0.7319
 1950TIP3    H227342   3.464   1.522  13.899  1.5829  1.0790  0.4283
 1951TIP3   OH227343   2.612   2.076  16.451  0.2119 -0.2120  0.2275
 1951TIP3    H127344   2.608   2.072  16.355 -0.1436 -1.1444  0.2690
 1951TIP3    H227345   2.581   1.990  16.480  1.1594 -0.2604  1.1588
 1952TIP3   OH227346   2.173   1.775   2.032 -0.3657  0.1049 -0.0728
 1952TIP3    H127347   2.086   1.740   2.012  0.2099 -1.6169  0.2245
 1952TIP3    H227348   2.158   1.867   2.052 -2.2130 -0.2816  0.5384
 1953TIP3   OH227349   6.160   5.072   2.559  0.1597  0.4422 -0.2659
 1953TIP3    H127350   6.239   5.018   2.557 -0.2636 -0.3448  1.8088
 1953TIP3    H227351   6.089   5.009   2.545 -0.1970  0.8471 -0.2794
 1954TIP3   OH227352   5.269   6.835   0.003 -0.3028 -0.3204  0.0577
 1954TIP3    H127353   5.251   6.915   0.054  0.0057 -0.0153 -0.3067
 1954TIP3    H227354   5.346   6.857  -0.050  1.3544 -1.6874  1.7702
 1955TIP3   OH227355   4.491   1.076  11.636 -0.2437 -0.3732 -0.2455
 1955TIP3    H127356   4.580   1.093  11.605 -0.2889 -0.0716 -0.2148
 1955TIP3    H227357   4.494   1.094  11.730 -0.6595  1.0012 -0.4685
 1956TIP3   OH227358   3.997   3.847  13.335 -0.1722 -0.1821 -0.3861
 1956TIP3    H127359   4.017   3.924  13.389  1.1798 -1.1139  0.5112
 1956TIP3    H227360   4.027   3.872  13.247 -2.0620  1.2171 -0.6976
 1957TIP3   OH227361   6.288   3.573   3.950 -0.1049 -0.0280 -0.0415
 1957TIP3    H127362   6.234   3.652   3.958 -1.3982 -0.9894  1.1993
 1957TIP3    H227363   6.235   3.513   3.898  0.2949 -0.5570  0.1545
 1958TIP3   OH227364   3.013   6.179   0.788 -0.3322  0.2662 -0.1653
 1958TIP3    H127365   2.948   6.115   0.760 -1.6247  1.9613 -1.2274
 1958TIP3    H227366   2.973   6.221   0.865  1.0092 -0.9287  1.2474
 1959TIP3   OH227367   2.759   5.664  16.464  0.0929 -0.1452 -0.4232
 1959TIP3    H127368   2.855   5.668  16.467  0.1180 -0.8657 -0.2187
 1959TIP3    H227369   2.738   5.573  16.484 -0.7039  0.3224  1.0072
 1960TIP3   OH227370   2.427   3.822   4.617  0.1312 -0.1958  0.4036
 1960TIP3    H127371   2.337   3.816   4.648  0.3313 -1.2710  0.8317
 1960TIP3    H227372   2.421   3.866   4.532 -0.7741 -0.1135  0.5075
 1961TIP3   OH227373   2.350   0.165   1.700  0.0912  0.1674 -0.0053
 1961TIP3    H127374   2.430   0.168   1.751  0.9374  1.6113 -1.3190
 1961TIP3    H227375   2.354   0.243   1.644 -0.2781 -1.7779 -2.9830
 1962TIP3   OH227376   5.146   2.646   4.109 -0.4172  0.2853  0.2909
 1962TIP3    H127377   5.182   2.723   4.066  0.3289 -0.7354 -1.0263
 1962TIP3    H227378   5.192   2.641   4.192  0.4882  0.5429 -0.1814
 1963TIP3   OH227379   4.008   5.587   3.033 -0.0912 -0.3533  0.1105
 1963TIP3    H127380   3.935   5.526   3.031  0.6661 -1.2691 -1.1041
 1963TIP3    H227381   3.969   5.673   3.015 -0.8223 -0.8886 -0.9282
 1964TIP3   OH227382   4.916   3.076   0.773  0.2316 -0.0227 -0.4869
 1964TIP3    H127383   4.844   3.137   0.788  0.2481  0.0504 -0.7099
 1964TIP3    H227384   4.957   3.106   0.692  0.5058 -0.0708 -0.3679
 1965TIP3   OH227385   5.591   1.904  13.227  0.5118 -0.1743 -0.2059
 1965TIP3    H127386   5.519   1.929  13.169  0.1210  0.8545  0.7007
 1965TIP3    H227387   5.554   1.835  13.282  0.7434 -0.8209 -0.8349
 1966TIP3   OH227388   4.980   6.384  15.024  0.0284 -0.0131  1.1373
 1966TIP3    H127389   4.928   6.355  15.099  2.2346 -0.9414  2.4240
 1966TIP3    H227390   5.052   6.434  15.062  0.9447 -0.0830 -0.3966
 1967TIP3   OH227391   2.604   3.317  15.969 -0.2189 -0.0439  0.5135
 1967TIP3    H127392   2.629   3.253  15.903 -0.4078  1.9283 -1.5758
 1967TIP3    H227393   2.686   3.362  15.991 -0.5226  0.8481 -0.1305
 1968TIP3   OH227394   6.824   5.390  14.984 -0.2456 -0.8023  0.6517
 1968TIP3    H127395   6.773   5.311  15.001 -1.1695 -0.3869 -0.1202
 1968TIP3    H227396   6.822   5.438  15.066  0.8477 -1.8508  1.3276
 1969TIP3   OH227397   0.804   1.438  16.047 -0.1108 -0.0165 -0.2344
 1969TIP3    H127398   0.882   1.401  16.088  0.3114  0.8269 -0.2558
 1969TIP3    H227399   0.814   1.417  15.954 -1.4234 -2.5607  0.1377
 1970TIP3   OH227400   0.574   3.358  13.014 -0.0245  0.0207  0.6726
 1970TIP3    H127401   0.569   3.262  13.014  1.1102 -0.0711 -0.4566
 1970TIP3    H227402   0.656   3.378  13.060 -0.6301  0.5058  1.5770
 1971TIP3   OH227403   1.876   5.397  15.282 -0.2334  0.1901 -0.8372
 1971TIP3    H127404   1.942   5.363  15.343 -1.3755  0.4903  0.6293
 1971TIP3    H227405   1.813   5.325  15.274 -1.1861  0.9015  0.0385
 1972TIP3   OH227406   0.422   4.742   3.920  0.5260 -0.1947 -0.1241
 1972TIP3    H127407   0.335   4.717   3.888  0.7067 -0.0805 -0.7096
 1972TIP3    H227408   0.407   4.824   3.966  0.3990  0.0828 -0.6490
 1973TIP3   OH227409   0.653   1.264   3.679 -0.3464  0.2970  0.2509
 1973TIP3    H127410   0.624   1.277   3.769 -3.6374 -0.3730 -0.5703
 1973TIP3    H227411   0.575   1.280   3.626  2.0691  3.4495 -2.8254
 1974TIP3   OH227412   2.148   3.306  14.890  0.1334  0.0732 -0.5566
 1974TIP3    H127413   2.147   3.380  14.829 -0.1733 -0.9338 -1.8239
 1974TIP3    H227414   2.221   3.325  14.949  0.7037  0.9134 -1.4900
 1975TIP3   OH227415   6.333   4.919   0.983  0.0936 -0.4526 -0.0704
 1975TIP3    H127416   6.282   4.838   0.983  1.4923 -1.3807 -1.2037
 1975TIP3    H227417   6.318   4.956   0.896  0.8194 -0.3961 -0.1779
 1976TIP3   OH227418   6.458   0.153   4.422 -0.9700  0.0720 -0.6882
 1976TIP3    H127419   6.469   0.077   4.365  0.4663 -0.3060  0.0575
 1976TIP3    H227420   6.393   0.125   4.487 -0.7740 -0.3697 -0.6810
 1977TIP3   OH227421   3.993   4.822   2.397 -0.3972 -0.3097  0.8268
 1977TIP3    H127422   3.956   4.909   2.381 -0.0858 -0.2847  0.2129
 1977TIP3    H227423   4.086   4.831   2.375 -0.6294 -1.1451 -0.5746
 1978TIP3   OH227424   1.895   4.816  16.795  0.1598  0.0574 -0.3208
 1978TIP3    H127425   1.905   4.817  16.891 -0.6025  0.4741 -0.2348
 1978TIP3    H227426   1.874   4.906  16.772  0.1675 -0.0746 -0.8602
 1979TIP3   OH227427   1.783   6.660  16.690  0.0742  0.0346  0.0880
 1979TIP3    H127428   1.757   6.749  16.665 -1.6414 -0.7046 -0.9140
 1979TIP3    H227429   1.759   6.652  16.782  0.2919  0.6108  0.2006
 1980TIP3   OH227430   1.569   6.750  13.291  0.1138 -0.0920 -0.2933
 1980TIP3    H127431   1.627   6.724  13.363 -1.7699 -1.4310  0.8304
 1980TIP3    H227432   1.511   6.816  13.330 -1.7120 -1.6969 -0.1418
 1981TIP3   OH227433   4.961   4.846   5.946  1.0201 -0.4713  0.3687
 1981TIP3    H127434   4.942   4.867   5.854  3.2667 -0.7995 -0.2370
 1981TIP3    H227435   5.002   4.759   5.942 -0.9387 -1.5350  1.9669
 1982TIP3   OH227436   5.497   6.596   1.303  0.8360 -0.3702  0.1819
 1982TIP3    H127437   5.554   6.660   1.346 -0.5599  0.2814  1.1774
 1982TIP3    H227438   5.441   6.563   1.373 -0.7618 -0.1359 -0.9255
 1983TIP3   OH227439   0.334   0.484  14.892 -0.5954 -0.5157 -0.3859
 1983TIP3    H127440   0.283   0.512  14.817 -1.2639 -1.7963 -0.4274
 1983TIP3    H227441   0.276   0.498  14.967  0.7711  2.7197  0.2397
 1984TIP3   OH227442   3.640   0.532   0.847  0.6526 -0.0598 -0.4638
 1984TIP3    H127443   3.559   0.553   0.799  1.0518 -0.0549 -1.1418
 1984TIP3    H227444   3.684   0.617   0.858  1.4346 -0.2904 -1.6919
 1985TIP3   OH227445   4.481   1.081   5.285  0.2834 -0.3694 -0.2236
 1985TIP3    H127446   4.419   1.150   5.309 -1.3659 -1.4613 -1.0939
 1985TIP3    H227447   4.539   1.122   5.222 -0.6989  0.2256 -0.7696
 1986TIP3   OH227448   5.544   1.561   3.736 -0.2942 -0.0286 -0.0830
 1986TIP3    H127449   5.623   1.611   3.717  0.0724 -0.1804  0.9794
 1986TIP3    H227450   5.502   1.609   3.807 -0.8370 -0.2972 -0.2151
 1987TIP3   OH227451   3.321   2.708   0.403  0.8629  0.0393  0.0260
 1987TIP3    H127452   3.256   2.773   0.375  1.1223  0.7325  0.9684
 1987TIP3    H227453   3.271   2.628   0.416  0.5516  0.0137 -1.2420
 1988TIP3   OH227454   0.269   1.418   2.027 -0.2145 -0.0860 -0.1852
 1988TIP3    H127455   0.212   1.341   2.025  0.8724 -0.9127 -0.5552
 1988TIP3    H227456   0.239   1.472   1.955 -1.5918  0.2985  0.6529
 1989TIP3   OH227457   5.922   4.840   5.384 -0.1083 -0.5387 -0.1400
 1989TIP3    H127458   5.982   4.797   5.323  0.6542  0.1752  0.0779
 1989TIP3    H227459   5.947   4.805   5.470  0.5073  0.3011  0.0370
 1990TIP3   OH227460   0.115   1.277   4.793  0.6155 -0.0649  0.2424
 1990TIP3    H127461   0.160   1.212   4.847 -0.7862 -2.1118 -0.9214
 1990TIP3    H227462   0.184   1.336   4.765  1.8925 -0.7692  1.6904
 1991TIP3   OH227463   6.764   6.360   2.491  0.0794  0.1515 -0.3801
 1991TIP3    H127464   6.843   6.373   2.543  1.2179 -0.5779 -1.8430
 1991TIP3    H227465   6.716   6.442   2.499 -0.1015 -0.1418  2.2609
 1992TIP3   OH227466   1.910   6.721  14.093 -0.0546  1.0047 -0.0481
 1992TIP3    H127467   1.913   6.803  14.141  0.5560  0.0923  1.5537
 1992TIP3    H227468   1.841   6.670  14.135  1.9320 -0.6659  1.4264
 1993TIP3   OH227469   4.199   0.540  16.121 -0.2693  0.6107  0.4831
 1993TIP3    H127470   4.206   0.607  16.189  0.4714 -0.2203  1.2432
 1993TIP3    H227471   4.241   0.580  16.044 -0.0163  1.0943  0.8659
 1994TIP3   OH227472   2.056   4.077  16.447 -0.3236 -0.0471  0.6329
 1994TIP3    H127473   2.095   4.150  16.496  2.9277 -0.0571 -1.6614
 1994TIP3    H227474   2.108   4.001  16.472 -1.0339 -0.7763 -0.0615
 1995TIP3   OH227475   6.164   2.010  15.596  0.1164  0.5172  0.1828
 1995TIP3    H127476   6.173   1.923  15.558 -1.3485  0.4268  0.0027
 1995TIP3    H227477   6.246   2.055  15.573  0.8220 -0.7440  0.1566
 1996TIP3   OH227478   5.133   1.334   2.605 -0.0313  0.5097  0.7885
 1996TIP3    H127479   5.211   1.384   2.627 -0.6836  1.7325  0.3895
 1996TIP3    H227480   5.148   1.303   2.516  0.0320  0.6894  0.7360
 1997TIP3   OH227481   5.547   1.721  12.541 -0.3158  0.1376 -0.5325
 1997TIP3    H127482   5.458   1.688  12.551 -0.9930  1.7425 -0.8969
 1997TIP3    H227483   5.552   1.751  12.450 -0.0117  1.6708 -0.0426
 1998TIP3   OH227484   6.201   0.543  15.703 -0.0886 -0.3761 -0.2033
 1998TIP3    H127485   6.210   0.597  15.781  0.5873 -1.0565  0.1981
 1998TIP3    H227486   6.272   0.572  15.646  1.2452 -1.8678  0.6435
 1999TIP3   OH227487   2.717   1.275  10.631  0.4472  0.1449  0.2264
 1999TIP3    H127488   2.649   1.342  10.633 -0.5602 -0.8341  0.0985
 1999TIP3    H227489   2.789   1.313  10.581 -0.2659  0.9671 -0.1783
 2000TIP3   OH227490   0.730   3.279  15.402 -0.0265  0.0394 -0.0034
 2000TIP3    H127491   0.752   3.311  15.315 -0.4212  2.2109  0.6308
 2000TIP3    H227492   0.636   3.261  15.398  0.3650 -2.0314 -0.6202
 2001TIP3   OH227493   1.626   1.295   5.149 -0.1281  0.2177 -0.0293
 2001TIP3    H127494   1.667   1.220   5.191  2.1136  0.0765 -2.2295
 2001TIP3    H227495   1.544   1.260   5.112 -0.1970 -0.5753  0.8561
 2002TIP3   OH227496   4.004   3.385   3.264  0.4375  0.4776 -0.2660
 2002TIP3    H127497   4.008   3.432   3.347  1.6573  1.4378 -0.8483
 2002TIP3    H227498   4.093   3.389   3.229  0.1733 -0.7628 -1.1696
 2003TIP3   OH227499   4.259   1.473   4.485  0.0867  0.2565 -0.3056
 2003TIP3    H127500   4.173   1.436   4.504 -0.4040  0.9291 -1.1156
 2003TIP3    H227501   4.314   1.398   4.463  0.0026 -0.2810  1.2033
 2004TIP3   OH227502   3.235   0.860   6.361 -0.1625 -0.3001 -0.0772
 2004TIP3    H127503   3.265   0.770   6.353 -1.2922 -0.6387 -0.6264
 2004TIP3    H227504   3.154   0.864   6.311  0.5822  1.3807 -1.2506
 2005TIP3   OH227505   2.724   5.267   2.958 -0.7449  0.2783  0.1749
 2005TIP3    H127506   2.766   5.221   3.031  0.3815  0.4705 -0.3336
 2005TIP3    H227507   2.735   5.360   2.979  1.4662  0.4076 -1.1966
 2006TIP3   OH227508   2.722   2.078  10.639 -0.4906 -0.3055  0.6139
 2006TIP3    H127509   2.756   2.005  10.587  1.7429  1.5478 -0.7605
 2006TIP3    H227510   2.798   2.111  10.686 -1.6295  0.5953  1.8914
 2007TIP3   OH227511   3.014   1.039  14.261 -0.3474 -0.0517  0.5961
 2007TIP3    H127512   3.028   1.133  14.273 -0.1573  0.1890 -1.2515
 2007TIP3    H227513   2.954   1.014  14.331 -0.0920  1.3529  1.3520
 2008TIP3   OH227514   3.696   4.678  16.919  0.4512 -0.0508  0.1257
 2008TIP3    H127515   3.781   4.651  16.953  0.7352 -0.2616 -0.7114
 2008TIP3    H227516   3.659   4.735  16.986  1.1093 -0.2218  0.6385
 2009TIP3   OH227517   2.142   4.353   2.356 -0.3540  0.6199  0.3859
 2009TIP3    H127518   2.236   4.345   2.339 -0.6257 -0.7364 -0.6881
 2009TIP3    H227519   2.116   4.434   2.311 -0.5715 -1.5602 -3.9020
 2010TIP3   OH227520   6.805   2.700  13.973  0.0293 -0.2346  0.9263
 2010TIP3    H127521   6.827   2.660  13.890  0.5072 -0.5788  1.2175
 2010TIP3    H227522   6.709   2.705  13.973  0.0764  2.3925 -0.8641
 2011TIP3   OH227523   5.493   1.441   4.246  0.0654 -0.3609 -0.1087
 2011TIP3    H127524   5.470   1.532   4.226 -1.9363 -1.1181 -1.5600
 2011TIP3    H227525   5.497   1.398   4.161 -0.4756 -1.9445  0.6312
 2012TIP3   OH227526   0.079   1.144  15.920 -0.3917 -0.2618 -0.0550
 2012TIP3    H127527   0.000   1.155  15.866  0.2731  0.1726 -0.9654
 2012TIP3    H227528   0.055   1.077  15.984 -2.0007  0.9452  0.6633
 2013TIP3   OH227529   2.841   4.460  11.791 -0.0328 -0.7461  0.1431
 2013TIP3    H127530   2.779   4.432  11.859  0.5323  0.0567  1.0146
 2013TIP3    H227531   2.859   4.552  11.811 -1.1398  0.0203 -2.1152
 2014TIP3   OH227532   2.801   5.014   2.487  0.0037 -0.0180  0.0173
 2014TIP3    H127533   2.831   5.055   2.406  0.0202  0.3693  0.2191
 2014TIP3    H227534   2.795   5.086   2.550 -1.8109  0.0040 -0.1421
 2015TIP3   OH227535   6.194   3.489  11.489 -0.0530  0.2803  0.1144
 2015TIP3    H127536   6.241   3.474  11.407  1.0627 -0.0200  0.7728
 2015TIP3    H227537   6.181   3.401  11.525  2.2090  0.4733  1.6845
 2016TIP3   OH227538   4.115   3.393  12.111 -0.6778  0.6473  0.1431
 2016TIP3    H127539   4.049   3.365  12.048 -0.2954 -1.5454  0.6027
 2016TIP3    H227540   4.106   3.330  12.184 -0.4980  2.5249  1.8723
 2017TIP3   OH227541   5.699   1.460  12.603  0.4100  0.0092 -0.9087
 2017TIP3    H127542   5.639   1.527  12.571 -0.1784 -0.2942 -0.4576
 2017TIP3    H227543   5.663   1.434  12.688  0.6369 -0.8783 -1.0762
 2018TIP3   OH227544   1.602   2.438  15.121 -0.3773 -0.2395  0.2941
 2018TIP3    H127545   1.537   2.485  15.173 -0.7476  1.1239 -1.3091
 2018TIP3    H227546   1.685   2.483  15.140 -0.2031 -0.8446  0.9926
 2019TIP3   OH227547   2.610   6.814   4.383  0.5028  0.0232 -0.0914
 2019TIP3    H127548   2.704   6.817   4.363  0.1165 -0.1456 -2.1224
 2019TIP3    H227549   2.584   6.726   4.359 -0.2965  0.2743 -0.1572
 2020TIP3   OH227550   3.377   5.713   2.048 -0.2194  0.3454  0.2256
 2020TIP3    H127551   3.358   5.630   2.004 -1.7050 -0.0790  1.5878
 2020TIP3    H227552   3.445   5.691   2.112  0.2866  0.4786 -0.2498
 2021TIP3   OH227553   4.226   0.927   0.365  0.3402  0.3363 -0.4322
 2021TIP3    H127554   4.204   0.862   0.298  2.2947  2.1752 -3.0600
 2021TIP3    H227555   4.147   0.981   0.372 -0.4131 -0.7768 -0.0741
 2022TIP3   OH227556   5.323   3.660   3.074  0.2500  0.1699 -0.2824
 2022TIP3    H127557   5.297   3.685   2.986  1.4961  1.8774 -0.2065
 2022TIP3    H227558   5.370   3.577   3.062  1.7301  1.1340 -1.4583
 2023TIP3   OH227559   4.816   3.047  13.769  0.7734  0.2464  0.1472
 2023TIP3    H127560   4.749   3.106  13.734  0.1464 -0.9162 -0.7295
 2023TIP3    H227561   4.867   3.100  13.830 -0.6393  1.3111  0.4589
 2024TIP3   OH227562   3.157   5.294   3.261  0.2055  0.1629  0.0607
 2024TIP3    H127563   3.121   5.294   3.173 -0.2487  1.1951  0.2284
 2024TIP3    H227564   3.248   5.321   3.250  0.2547 -0.0760 -0.1264
 2025TIP3   OH227565   2.674   5.384  13.898  0.4051 -0.4365 -0.0406
 2025TIP3    H127566   2.676   5.430  13.814 -0.4768 -0.0988  0.1060
 2025TIP3    H227567   2.596   5.328  13.892  0.9653 -1.2564  0.1283
 2026TIP3   OH227568   5.527   6.701  16.833 -0.4555  0.2114 -0.1185
 2026TIP3    H127569   5.432   6.692  16.834 -0.5541  1.1006 -0.8514
 2026TIP3    H227570   5.543   6.790  16.861  0.1429  0.1904 -0.3842
 2027TIP3   OH227571   0.241   4.997  13.466  0.5522  0.4969  0.2875
 2027TIP3    H127572   0.243   4.968  13.557  1.9576 -0.4618 -0.0185
 2027TIP3    H227573   0.310   5.062  13.459  0.3897  0.6341 -0.0776
 2028TIP3   OH227574   2.812   2.652   1.524 -0.6433 -0.2256  0.1844
 2028TIP3    H127575   2.879   2.639   1.591 -2.3162 -1.7798  1.6389
 2028TIP3    H227576   2.862   2.660   1.442  1.3891  0.8570  1.4644
 2029TIP3   OH227577   4.127   2.457  13.708  0.3649  0.3031 -0.6938
 2029TIP3    H127578   4.193   2.511  13.751 -1.5752  0.0968  2.9004
 2029TIP3    H227579   4.060   2.519  13.680 -0.0093  0.1466 -0.1661
 2030TIP3   OH227580   6.440   3.176  16.569 -0.6820 -0.4694  0.1007
 2030TIP3    H127581   6.503   3.176  16.641  0.5432 -0.2757 -0.9335
 2030TIP3    H227582   6.401   3.264  16.571 -0.9196 -0.5840  0.7369
 2031TIP3   OH227583   2.361   0.158   3.117  0.1081  0.7006  0.5524
 2031TIP3    H127584   2.447   0.177   3.079  0.5269 -1.0469  0.5617
 2031TIP3    H227585   2.312   0.240   3.105  0.9874  0.9914 -1.6049
 2032TIP3   OH227586   2.835   3.358  14.551  0.5825  0.1754  0.2010
 2032TIP3    H127587   2.922   3.396  14.563  1.3209 -1.6454  0.9140
 2032TIP3    H227588   2.774   3.429  14.572  1.8856  0.7143  2.4260
 2033TIP3   OH227589   1.291   2.234  13.969  0.0419 -0.1662 -0.4238
 2033TIP3    H127590   1.330   2.291  13.904  1.0867  2.6247  2.3994
 2033TIP3    H227591   1.364   2.183  14.005  0.3012  1.3667  1.3551
 2034TIP3   OH227592   1.840   0.644  14.402  0.3142 -0.2460 -0.3150
 2034TIP3    H127593   1.751   0.641  14.435 -0.0282 -0.5477 -1.2351
 2034TIP3    H227594   1.858   0.736  14.388  0.7397 -0.0337  1.3886
 2035TIP3   OH227595   4.005   1.496  15.413 -0.4532  0.0062  0.0224
 2035TIP3    H127596   3.932   1.439  15.387 -0.5989  0.6284 -0.9566
 2035TIP3    H227597   3.962   1.577  15.441 -0.1098  1.0381 -2.2241
 2036TIP3   OH227598   2.273   5.106   1.750 -0.0821  0.5085 -0.1149
 2036TIP3    H127599   2.193   5.157   1.750  0.0442  0.8789 -3.0188
 2036TIP3    H227600   2.248   5.022   1.788 -1.6541  0.8520 -0.3221
 2037TIP3   OH227601   2.282   1.464  14.576 -0.1216 -0.1466  0.4588
 2037TIP3    H127602   2.338   1.391  14.602 -0.1114 -0.2360  0.1820
 2037TIP3    H227603   2.223   1.476  14.651  0.0282 -0.2890  0.5989
 2038TIP3   OH227604   5.960   0.403  16.951 -0.5389 -0.2265 -0.3025
 2038TIP3    H127605   5.935   0.335  16.888 -0.8456 -0.2657 -0.1355
 2038TIP3    H227606   6.052   0.385  16.969 -0.8268 -1.0888  0.3555
 2039TIP3   OH227607   0.996   6.409   1.299  0.5721 -0.1714  0.1468
 2039TIP3    H127608   0.988   6.437   1.390 -0.4428 -0.7322  0.2486
 2039TIP3    H227609   0.952   6.324   1.296 -0.9843  0.6113 -1.2092
 2040TIP3   OH227610   4.083   0.580   3.372 -0.0168  0.1378  0.8791
 2040TIP3    H127611   4.165   0.557   3.329  0.5674  0.4457  1.8071
 2040TIP3    H227612   4.075   0.675   3.358 -1.7018 -0.2593 -1.7055
 2041TIP3   OH227613   3.703   1.970   0.614 -0.2124  0.1957  0.1144
 2041TIP3    H127614   3.693   2.051   0.564 -1.9267 -0.1191 -0.1417
 2041TIP3    H227615   3.724   1.999   0.703 -0.5585  0.9158 -0.0268
 2042TIP3   OH227616   3.542   3.644  11.419 -0.1476 -0.6911 -0.3672
 2042TIP3    H127617   3.514   3.591  11.345 -0.8768 -0.6799 -0.0999
 2042TIP3    H227618   3.594   3.714  11.379 -0.0550 -1.0102 -0.8130
 2043TIP3   OH227619   6.213   6.274   4.651 -0.3836 -0.7996 -0.5432
 2043TIP3    H127620   6.237   6.361   4.684  0.8559 -1.1694 -0.4231
 2043TIP3    H227621   6.293   6.240   4.612 -0.7402 -2.0739 -0.2037
 2044TIP3   OH227622   3.468   6.345  12.282  0.3215  0.0135  0.3243
 2044TIP3    H127623   3.429   6.273  12.331 -0.1718  1.1263  1.6057
 2044TIP3    H227624   3.562   6.325  12.281  0.2495 -0.3872  1.0931
 2045TIP3   OH227625   2.384   5.645  13.643 -0.0050 -0.3293  0.2079
 2045TIP3    H127626   2.366   5.564  13.597 -0.4078 -0.3487  0.3988
 2045TIP3    H227627   2.316   5.651  13.710 -0.1938  0.3392 -0.0351
 2046TIP3   OH227628   4.909   1.710   0.180  0.7803 -0.2441 -0.0093
 2046TIP3    H127629   4.888   1.797   0.145 -0.4380 -0.4435  0.1906
 2046TIP3    H227630   4.974   1.675   0.119  0.0088  0.1246 -1.0677
 2047TIP3   OH227631   3.788   3.670   4.240 -0.3930 -0.4549 -0.2740
 2047TIP3    H127632   3.806   3.591   4.189 -1.1261 -0.4302 -0.5847
 2047TIP3    H227633   3.866   3.682   4.294 -0.0052 -1.0235 -0.6944
 2048TIP3   OH227634   6.404   1.454  14.595 -0.1826  0.1190  0.0666
 2048TIP3    H127635   6.461   1.466  14.519  0.1360  2.4957  0.6150
 2048TIP3    H227636   6.316   1.474  14.563 -0.4568 -1.4398 -0.2527
 2049TIP3   OH227637   5.693   2.665   5.629 -0.3518 -0.0135 -0.0344
 2049TIP3    H127638   5.651   2.736   5.678 -0.7464  0.4464 -1.0024
 2049TIP3    H227639   5.773   2.647   5.677  0.4318  2.0105 -0.4568
 2050TIP3   OH227640   4.455   2.745  14.406  0.0299 -0.1014 -0.5117
 2050TIP3    H127641   4.548   2.723  14.411 -0.2493 -1.5689 -1.3093
 2050TIP3    H227642   4.441   2.773  14.316  0.1666  2.5762  0.2237
 2051TIP3   OH227643   3.681   6.475   1.611  0.2124  0.3433 -0.4974
 2051TIP3    H127644   3.663   6.465   1.704  1.3984  0.0034 -0.2814
 2051TIP3    H227645   3.600   6.450   1.568 -0.1957  0.0174  0.4318
 2052TIP3   OH227646   5.839   1.826  16.060 -0.2608  0.0419  0.3002
 2052TIP3    H127647   5.861   1.827  15.967  1.4071  1.1110  0.6617
 2052TIP3    H227648   5.905   1.768  16.099 -1.6734 -1.3761  0.7007
 2053TIP3   OH227649   5.701   2.602  11.401 -0.3121  0.3676  0.3781
 2053TIP3    H127650   5.650   2.654  11.339 -1.0359  0.2399  0.8526
 2053TIP3    H227651   5.635   2.562  11.458  0.0394 -2.7227 -1.1818
 2054TIP3   OH227652   2.709   3.993   2.305 -0.1665  0.0872 -0.2376
 2054TIP3    H127653   2.713   4.009   2.400 -0.3731  1.8528 -0.4854
 2054TIP3    H227654   2.752   3.908   2.293 -0.2730 -0.2348  1.4519
 2055TIP3   OH227655   3.694   2.217  12.439 -0.2696  0.1419 -0.1599
 2055TIP3    H127656   3.608   2.225  12.397  0.2719  2.0438 -1.0122
 2055TIP3    H227657   3.729   2.134  12.407 -1.3993 -0.2258 -0.5040
 2056TIP3   OH227658   5.622   4.308   1.105 -0.4629  0.5074  0.4005
 2056TIP3    H127659   5.699   4.307   1.162  0.5676  0.3096 -0.9207
 2056TIP3    H227660   5.613   4.218   1.075  0.5042  1.0066 -1.5793
 2057TIP3   OH227661   2.067   6.092  13.952 -0.3540 -0.2327  0.2880
 2057TIP3    H127662   2.017   6.096  13.870 -0.3556  0.6302  0.3266
 2057TIP3    H227663   2.043   6.008  13.990 -0.4182 -0.6111 -0.5618
 2058TIP3   OH227664   2.253   3.941   1.213  0.3151  0.0748  0.2416
 2058TIP3    H127665   2.200   3.869   1.246 -0.7119 -0.4166 -2.2749
 2058TIP3    H227666   2.292   3.908   1.132  0.2822  2.1489 -0.6838
 2059TIP3   OH227667   4.065   2.406  16.023  0.2176 -0.4691 -0.2670
 2059TIP3    H127668   4.056   2.378  15.931 -0.3517 -0.8792 -0.0922
 2059TIP3    H227669   4.091   2.498  16.018 -2.3310  0.3023 -0.8454
 2060TIP3   OH227670   4.110   3.465  11.178  0.2400 -0.4473 -0.0119
 2060TIP3    H127671   4.175   3.428  11.238 -1.6347 -1.5752  1.4247
 2060TIP3    H227672   4.086   3.392  11.121  0.7122  0.1498 -0.9873
 2061TIP3   OH227673   0.175   1.338   0.254 -0.0118 -0.0399 -0.1922
 2061TIP3    H127674   0.215   1.251   0.254 -1.3287 -0.6765 -0.1765
 2061TIP3    H227675   0.185   1.369   0.164  0.0179 -0.4297 -0.3265
 2062TIP3   OH227676   4.550   4.340   2.981  0.1355  0.0802  0.2420
 2062TIP3    H127677   4.634   4.377   3.007 -0.2347  1.2361 -0.1107
 2062TIP3    H227678   4.486   4.389   3.032 -0.4872  1.1846 -1.5022
 2063TIP3   OH227679   1.225   1.356   3.708 -0.4354 -0.1970  0.5553
 2063TIP3    H127680   1.292   1.299   3.745  0.2066  0.0590 -0.1941
 2063TIP3    H227681   1.272   1.411   3.646 -1.0529  1.1064  1.2066
 2064TIP3   OH227682   0.680   3.826   1.120 -0.1925 -0.0931  0.1047
 2064TIP3    H127683   0.702   3.771   1.195  0.3981 -0.0579 -0.0345
 2064TIP3    H227684   0.596   3.865   1.142 -0.2082 -0.3858  0.5761
 2065TIP3   OH227685   1.724   0.808   1.611 -0.4605 -0.4632 -0.1834
 2065TIP3    H127686   1.785   0.820   1.538 -0.5734  1.8791  0.0116
 2065TIP3    H227687   1.638   0.801   1.571 -0.4161 -0.2260 -0.3196
 2066TIP3   OH227688   2.317   2.308   0.780  0.0743  0.0326 -0.5426
 2066TIP3    H127689   2.398   2.351   0.751  0.0102  0.4625 -0.1075
 2066TIP3    H227690   2.291   2.357   0.858 -1.7331  1.2735 -1.8133
 2067TIP3   OH227691   2.347   3.294   4.836  0.1231  0.1905 -0.4590
 2067TIP3    H127692   2.370   3.232   4.905 -0.8738  1.3289  0.9673
 2067TIP3    H227693   2.421   3.354   4.833 -0.1405  0.5662  0.1748
 2068TIP3   OH227694   6.782   1.646  15.311  0.6760 -0.4531 -0.4864
 2068TIP3    H127695   6.824   1.644  15.397 -0.4811 -0.8169  0.0938
 2068TIP3    H227696   6.770   1.740  15.293 -1.4373 -0.3691  0.9873
 2069TIP3   OH227697   1.615   5.883   2.992 -0.0467 -0.1275 -0.0905
 2069TIP3    H127698   1.559   5.950   2.954  0.8986  0.4491 -0.4941
 2069TIP3    H227699   1.592   5.882   3.085 -0.8536 -0.0334 -0.2847
 2070TIP3   OH227700   4.786   2.959   2.836 -0.1165 -0.2110 -0.1837
 2070TIP3    H127701   4.837   2.881   2.859  1.8198  0.7846 -0.9050
 2070TIP3    H227702   4.836   3.032   2.872 -1.7875  0.7530  0.2971
 2071TIP3   OH227703   5.684   0.394  11.785 -0.3144  0.2107  0.2193
 2071TIP3    H127704   5.763   0.342  11.798  0.5299  1.8442  2.0844
 2071TIP3    H227705   5.612   0.337  11.814  0.4426 -0.3407  1.0481
 2072TIP3   OH227706   4.343   0.544  10.713  0.5120 -0.4460 -0.5862
 2072TIP3    H127707   4.267   0.492  10.688 -0.4239  0.5934 -0.0172
 2072TIP3    H227708   4.354   0.528  10.807 -0.4338  1.1247 -0.1691
 2073TIP3   OH227709   5.003   1.618  11.975  0.2064  0.2687  0.1749
 2073TIP3    H127710   4.987   1.652  12.063 -1.0413  1.1666 -0.3783
 2073TIP3    H227711   4.969   1.528  11.977  0.6763  0.0944  0.7430
 2074TIP3   OH227712   1.866   6.053   3.902  0.0421 -0.2565  0.0022
 2074TIP3    H127713   1.931   6.027   3.966 -1.0083 -1.7163  0.5315
 2074TIP3    H227714   1.856   5.977   3.845  0.8231  0.9411 -1.8232
 2075TIP3   OH227715   3.827   4.719  11.716  0.3091 -0.2261 -0.3346
 2075TIP3    H127716   3.841   4.813  11.705  2.1134 -0.4234 -0.0424
 2075TIP3    H227717   3.753   4.713  11.777 -0.2955  0.9790 -0.9102
 2076TIP3   OH227718   3.748   6.660   3.484  0.2812  0.2386  0.0203
 2076TIP3    H127719   3.667   6.663   3.535  0.8981  3.2278  1.0155
 2076TIP3    H227720   3.721   6.686   3.395  0.2455  2.4618  0.6285
 2077TIP3   OH227721   3.842   2.563   3.583 -0.3053  0.2604  0.0936
 2077TIP3    H127722   3.847   2.656   3.559  1.8990  0.1765  0.0357
 2077TIP3    H227723   3.905   2.553   3.654  0.8229 -1.5131 -1.0699
 2078TIP3   OH227724   1.605   5.139  16.058 -0.1634 -0.7610  0.1444
 2078TIP3    H127725   1.560   5.213  16.099  3.1803  0.7855  1.3441
 2078TIP3    H227726   1.595   5.153  15.964 -0.4478  0.6335  0.3607
 2079TIP3   OH227727   5.477   0.928   2.949 -0.5466 -0.4994 -0.4376
 2079TIP3    H127728   5.482   0.971   2.863 -2.3375 -1.0559 -0.8612
 2079TIP3    H227729   5.402   0.970   2.992 -0.0667 -0.6853  0.6039
 2080TIP3   OH227730   5.277   2.070   3.747 -0.1522 -0.6342 -0.3113
 2080TIP3    H127731   5.272   2.046   3.655  3.2308 -3.0048 -0.0466
 2080TIP3    H227732   5.355   2.124   3.754 -1.3617  1.0774  0.9853
 2081TIP3   OH227733   4.458   0.135   1.622 -0.6383 -0.2972 -0.0630
 2081TIP3    H127734   4.440   0.079   1.547  0.8057 -3.5959  1.8326
 2081TIP3    H227735   4.435   0.081   1.698  1.6617  1.3380  1.9426
 2082TIP3   OH227736   1.235   4.327  14.863  0.0153  0.0355  0.2471
 2082TIP3    H127737   1.326   4.335  14.834  0.3928 -1.3227  0.9424
 2082TIP3    H227738   1.184   4.328  14.783  0.7691 -0.5686 -0.2556
 2083TIP3   OH227739   3.411   3.404  13.905 -0.4832  0.1364 -0.1671
 2083TIP3    H127740   3.412   3.352  13.986  0.0683 -0.9347 -0.8441
 2083TIP3    H227741   3.341   3.366  13.852  0.2515 -0.2705 -0.8729
 2084TIP3   OH227742   1.219   0.592   4.269 -0.3431  0.1249  0.3209
 2084TIP3    H127743   1.166   0.639   4.205  0.3715 -1.1731 -1.2961
 2084TIP3    H227744   1.287   0.655   4.294 -0.0060  0.3210 -1.0144
 2085TIP3   OH227745   3.103   1.532  13.467  0.0448  0.5828 -0.2387
 2085TIP3    H127746   3.151   1.607  13.432  2.3622 -0.6541  0.0297
 2085TIP3    H227747   3.086   1.555  13.558  0.1803  1.0443 -0.3259
 2086TIP3   OH227748   6.748   1.336  11.090  0.0201  0.9766  0.0509
 2086TIP3    H127749   6.696   1.270  11.135  0.5331 -0.5291 -1.4953
 2086TIP3    H227750   6.695   1.361  11.015  0.9489  0.3595 -0.8304
 2087TIP3   OH227751   4.339   3.485  11.907  0.4683 -0.8069  0.2321
 2087TIP3    H127752   4.304   3.449  11.988 -0.1786  4.2719  2.5688
 2087TIP3    H227753   4.270   3.471  11.842 -0.0871 -2.7201  1.1861
 2088TIP3   OH227754   1.816   2.577  11.721  0.1505  0.0707  0.2843
 2088TIP3    H127755   1.854   2.585  11.808  1.4627  3.3428 -0.4061
 2088TIP3    H227756   1.869   2.510  11.677  0.8047 -0.1532  1.3879
 2089TIP3   OH227757   3.625   4.015   4.262  0.0983  0.3176 -1.1075
 2089TIP3    H127758   3.573   3.953   4.211  0.3028 -0.5583 -0.2937
 2089TIP3    H227759   3.711   3.973   4.269  0.2138  0.6466 -0.4669
 2090TIP3   OH227760   0.238   2.869  15.972 -0.1165 -0.0234  0.0791
 2090TIP3    H127761   0.327   2.855  16.004 -0.3813 -3.6049 -0.3868
 2090TIP3    H227762   0.244   2.851  15.878 -1.2627  0.0448 -0.0143
 2091TIP3   OH227763   6.707   3.586  12.336 -0.0177  0.5118  0.0489
 2091TIP3    H127764   6.701   3.675  12.300  3.5352  0.7991 -0.1616
 2091TIP3    H227765   6.730   3.598  12.427 -1.3986 -0.2684  0.5380
 2092TIP3   OH227766   6.240   5.407   0.530  0.3025 -0.0473 -0.3426
 2092TIP3    H127767   6.327   5.369   0.520  0.8243  1.0424 -0.0438
 2092TIP3    H227768   6.218   5.394   0.622  0.5612  0.5033 -0.1950
 2093TIP3   OH227769   1.106   0.289  12.348  0.0076  0.1689 -0.5878
 2093TIP3    H127770   1.151   0.205  12.336 -0.7953 -0.4656  0.5782
 2093TIP3    H227771   1.162   0.338  12.409 -1.0657 -0.8395  1.3069
 2094TIP3   OH227772   1.696   6.800   6.127 -0.0664  0.3463  0.2905
 2094TIP3    H127773   1.716   6.737   6.057  0.3393  1.5905 -0.7436
 2094TIP3    H227774   1.777   6.848   6.141 -0.9255  2.0846 -0.4522
 2095TIP3   OH227775   1.554   0.993  10.081 -0.1763 -0.1435 -0.1456
 2095TIP3    H127776   1.459   1.001  10.082 -0.0914  1.0496  0.5984
 2095TIP3    H227777   1.570   0.899  10.080 -1.3551 -0.3616 -0.6721
 2096TIP3   OH227778   1.901   1.675  14.856  0.5988  0.1846 -0.0534
 2096TIP3    H127779   1.974   1.737  14.854  0.9923 -0.2555  0.3697
 2096TIP3    H227780   1.837   1.711  14.794  0.1275  1.8558  1.3322
 2097TIP3   OH227781   0.549   5.644   5.808 -0.0665  0.3312  0.2070
 2097TIP3    H127782   0.491   5.705   5.761  0.6725  1.0419  0.1896
 2097TIP3    H227783   0.491   5.596   5.867 -0.7796  0.5086 -0.3425
 2098TIP3   OH227784   3.337   2.338   1.317  0.3607 -0.0596 -0.3055
 2098TIP3    H127785   3.252   2.332   1.273 -0.8108  2.9062  1.2708
 2098TIP3    H227786   3.382   2.411   1.273  1.6408 -0.8615 -0.3744
 2099TIP3   OH227787   4.789   5.993   4.052 -0.5052  0.0858 -0.6885
 2099TIP3    H127788   4.803   5.904   4.085 -1.0237 -0.1358 -1.0496
 2099TIP3    H227789   4.852   6.047   4.100  0.8385 -0.7038 -1.5062
 2100TIP3   OH227790   1.811   0.848   4.772  0.1964  0.0801  0.0633
 2100TIP3    H127791   1.798   0.873   4.864 -0.2016 -1.7624  0.5572
 2100TIP3    H227792   1.731   0.875   4.728 -0.7222 -1.3058  0.8215
 2101TIP3   OH227793   1.374   5.419   4.422  0.0610 -0.3914  0.7768
 2101TIP3    H127794   1.418   5.357   4.364 -1.5115 -0.6085 -0.2398
 2101TIP3    H227795   1.328   5.479   4.363 -0.0041  0.5868  1.7800
 2102TIP3   OH227796   2.429   5.575   1.216  0.3477 -0.1749  0.3392
 2102TIP3    H127797   2.450   5.482   1.206 -0.7241 -0.5941  1.6430
 2102TIP3    H227798   2.336   5.582   1.193 -0.3076  0.0437  2.7136
 2103TIP3   OH227799   2.396   4.778  13.690 -0.2098  0.3187 -0.2014
 2103TIP3    H127800   2.374   4.842  13.757 -2.4115  0.2899 -0.8206
 2103TIP3    H227801   2.462   4.822  13.636 -1.6520  2.1062 -0.6091
 2104TIP3   OH227802   5.428   5.587  15.009 -0.3910 -0.6276 -0.3427
 2104TIP3    H127803   5.487   5.652  14.973 -0.4321 -0.2213  0.3066
 2104TIP3    H227804   5.401   5.623  15.094  0.8721 -2.2175  0.7899
 2105TIP3   OH227805   6.663   2.445   2.031  0.2525  0.3495 -0.1226
 2105TIP3    H127806   6.614   2.399   1.963  0.7477 -1.5497  0.7475
 2105TIP3    H227807   6.718   2.378   2.071 -1.3198  0.9183  3.3606
 2106TIP3   OH227808   5.775   2.469   0.916  0.1247 -0.1463  0.4536
 2106TIP3    H127809   5.718   2.543   0.933 -0.3656 -0.9911  2.8637
 2106TIP3    H227810   5.719   2.404   0.874  0.5384  0.7405 -1.5927
 2107TIP3   OH227811   1.296   6.332  13.547  0.2709  0.1031 -0.4716
 2107TIP3    H127812   1.309   6.400  13.613 -0.5572  1.0771 -1.2768
 2107TIP3    H227813   1.204   6.307  13.556  0.2115  0.0789 -1.0903
 2108TIP3   OH227814   3.270   2.018   6.281  0.1437 -0.0758  0.2266
 2108TIP3    H127815   3.239   1.929   6.266 -0.4414  0.1061  0.3229
 2108TIP3    H227816   3.190   2.071   6.283  0.5800  0.7518 -1.8091
 2109TIP3   OH227817   3.632   2.263  16.966  0.0431 -0.1956 -0.0195
 2109TIP3    H127818   3.705   2.231  16.913 -0.4981  0.6432 -1.3319
 2109TIP3    H227819   3.603   2.342  16.921  0.4332  1.3929  2.3177
 2110TIP3   OH227820   1.000   4.647   1.826 -0.5322 -0.3284  0.0650
 2110TIP3    H127821   0.981   4.621   1.916 -1.3260  1.7733  0.5616
 2110TIP3    H227822   1.077   4.704   1.833 -0.1978 -0.6700 -0.6859
 2111TIP3   OH227823   2.710   4.756   3.108  0.1403  0.1472  0.3791
 2111TIP3    H127824   2.728   4.850   3.100 -0.7247  0.1884 -1.8197
 2111TIP3    H227825   2.615   4.750   3.112  0.1890 -0.6424  0.5498
 2112TIP3   OH227826   6.633   4.821   5.324 -1.0832  0.7605 -0.1044
 2112TIP3    H127827   6.707   4.793   5.379 -1.2810  0.6716  0.1193
 2112TIP3    H227828   6.634   4.761   5.250 -1.7925 -0.1629  0.6089
 2113TIP3   OH227829   4.306   4.722  12.630 -0.6241  0.1588  0.3547
 2113TIP3    H127830   4.388   4.746  12.587 -0.9075 -0.5845 -0.6141
 2113TIP3    H227831   4.318   4.631  12.655 -1.9163 -0.6035 -1.6651
 2114TIP3   OH227832   1.276   6.462  16.276 -0.0540 -0.3883  0.0739
 2114TIP3    H127833   1.325   6.386  16.307  1.2615  0.2017 -0.4808
 2114TIP3    H227834   1.262   6.446  16.183  1.1835  0.5014 -0.2951
 2115TIP3   OH227835   4.471   2.567   1.201 -0.0182 -0.0466  0.1675
 2115TIP3    H127836   4.445   2.628   1.132 -0.3573  0.7596  0.9733
 2115TIP3    H227837   4.399   2.571   1.265  1.3996  1.1942  1.7958
 2116TIP3   OH227838   4.898   3.268   3.480  0.2122  0.5832  0.0366
 2116TIP3    H127839   4.926   3.357   3.456  0.1236  0.6880  0.3235
 2116TIP3    H227840   4.967   3.212   3.445 -0.4670  0.6304 -1.4735
 2117TIP3   OH227841   0.487   6.572   1.165 -0.6623  0.2519  0.5491
 2117TIP3    H127842   0.557   6.634   1.145 -0.2149 -0.7204 -1.0189
 2117TIP3    H227843   0.530   6.502   1.213 -0.2224 -0.9937 -1.5439
 2118TIP3   OH227844   2.744   3.044  15.551 -0.1613  0.3569 -0.4183
 2118TIP3    H127845   2.737   3.081  15.639  1.5803  0.6254 -0.3600
 2118TIP3    H227846   2.672   2.982  15.545  1.0340 -1.4640  2.0887
 2119TIP3   OH227847   1.709   5.156   4.872  0.7612 -0.2547  0.1334
 2119TIP3    H127848   1.790   5.129   4.914 -0.0371 -3.2288 -0.0162
 2119TIP3    H227849   1.685   5.082   4.816 -0.8833  1.4691 -1.6186
 2120TIP3   OH227850   2.142   1.523  12.433 -0.1548  0.1509 -0.2599
 2120TIP3    H127851   2.208   1.575  12.478  0.3181 -0.9513  0.3487
 2120TIP3    H227852   2.116   1.577  12.358  1.7035  0.4738 -0.7257
 2121TIP3   OH227853   5.271   0.358   4.997  0.0084  0.0567  0.4277
 2121TIP3    H127854   5.287   0.429   4.935  0.3465 -0.7988 -0.5074
 2121TIP3    H227855   5.278   0.278   4.943  0.2621 -0.7029  1.5616
 2122TIP3   OH227856   0.109   1.033  16.292  0.1891 -0.7229 -0.4471
 2122TIP3    H127857   0.065   1.118  16.288  2.4331  0.6881  1.6506
 2122TIP3    H227858   0.098   0.996  16.204 -2.5596  0.7791 -0.8495
 2123TIP3   OH227859   5.250   1.431   5.883  0.1461 -0.0975 -0.8803
 2123TIP3    H127860   5.344   1.425   5.866  0.2305 -1.5773  0.0146
 2123TIP3    H227861   5.234   1.524   5.900  1.1687  0.4101 -2.5112
 2124TIP3   OH227862   3.414   5.804  16.824 -0.5616  0.0349  0.3877
 2124TIP3    H127863   3.326   5.776  16.799 -1.5452  2.2034  1.1774
 2124TIP3    H227864   3.448   5.849  16.747 -0.2855 -0.4881  0.2042
 2125TIP3   OH227865   3.797   2.049   0.872  0.4477  0.0001  0.3849
 2125TIP3    H127866   3.852   1.974   0.847  1.2875  0.5669  0.4983
 2125TIP3    H227867   3.859   2.116   0.900 -0.2085  1.2506 -1.0352
 2126TIP3   OH227868   3.894   6.007  15.042  0.4266  0.3090 -0.0235
 2126TIP3    H127869   3.846   6.043  14.967 -0.2510 -1.4025 -0.4543
 2126TIP3    H227870   3.867   5.916  15.046  1.8161 -0.0829  1.2397
 2127TIP3   OH227871   1.575   1.762  11.493  0.0714 -0.8326  0.0897
 2127TIP3    H127872   1.617   1.845  11.470 -0.3743 -0.3712  0.9064
 2127TIP3    H227873   1.543   1.775  11.582 -1.8588 -1.1341 -0.5165
 2128TIP3   OH227874   6.520   5.791  12.420 -0.1531  0.4602  0.1907
 2128TIP3    H127875   6.460   5.780  12.346 -0.0852 -2.4644  0.4599
 2128TIP3    H227876   6.502   5.880  12.452 -3.4175  0.1993 -0.5353
 2129TIP3   OH227877   4.814   1.909   5.261 -0.2480  0.0472 -0.0300
 2129TIP3    H127878   4.790   1.977   5.324 -0.2454 -0.3392  0.3897
 2129TIP3    H227879   4.833   1.957   5.181  0.1556  0.5822  0.3777
 2130TIP3   OH227880   1.321   2.929  14.142 -0.3164  0.0643  0.0217
 2130TIP3    H127881   1.410   2.916  14.174  0.1782  1.6995 -0.6234
 2130TIP3    H227882   1.271   2.858  14.182  1.0355 -0.2044  1.3113
 2131TIP3   OH227883   6.709   4.481  13.215 -0.1522 -0.0258  0.2308
 2131TIP3    H127884   6.720   4.566  13.172  1.4111  0.2470  1.0999
 2131TIP3    H227885   6.691   4.502  13.307 -0.5303 -0.6293  0.3031
 2132TIP3   OH227886   2.420   2.053   0.734  0.3956 -0.1644  0.4037
 2132TIP3    H127887   2.434   2.076   0.643  3.5961  1.5338  1.1732
 2132TIP3    H227888   2.366   2.124   0.770 -0.4812 -0.6025 -0.0129
 2133TIP3   OH227889   4.759   4.260   2.392  0.1854 -0.3353  0.1410
 2133TIP3    H127890   4.760   4.351   2.419 -2.0139 -0.0521 -0.5309
 2133TIP3    H227891   4.794   4.260   2.302  0.6307 -0.2374  0.3125
 2134TIP3   OH227892   2.500   3.836   1.032 -0.1590 -0.6395  0.1801
 2134TIP3    H127893   2.431   3.809   0.972  0.3822  0.5322 -1.0155
 2134TIP3    H227894   2.550   3.756   1.048 -0.0929 -0.9141 -1.2476
 2135TIP3   OH227895   5.685   0.402  15.511 -0.4612  0.1103  0.5104
 2135TIP3    H127896   5.744   0.431  15.580 -1.4049 -1.4520  2.0373
 2135TIP3    H227897   5.730   0.327  15.471 -0.2076  0.6114 -0.1633
 2136TIP3   OH227898   5.069   5.968  14.369  0.0817 -0.4498 -0.2011
 2136TIP3    H127899   5.038   5.885  14.404 -0.5347 -0.2774 -0.3265
 2136TIP3    H227900   4.992   6.006  14.327  0.3430  0.2139 -0.0860
 2137TIP3   OH227901   3.716   4.203   0.538  0.5421  0.4560  0.2954
 2137TIP3    H127902   3.804   4.208   0.577  0.7686  0.7324 -0.2403
 2137TIP3    H227903   3.692   4.110   0.547  0.6472  0.4805  0.9511
 2138TIP3   OH227904   0.917   2.555   5.247  0.7461  0.1605  0.1142
 2138TIP3    H127905   0.946   2.645   5.231  0.0225  0.5611  1.0059
 2138TIP3    H227906   0.984   2.501   5.204  0.0088  1.1167 -2.4488
 2139TIP3   OH227907   4.082   0.858  15.150  0.8666 -0.1626  0.6698
 2139TIP3    H127908   4.143   0.928  15.176  1.0618 -0.3109  0.6092
 2139TIP3    H227909   4.031   0.841  15.229 -1.7105  2.5769 -0.2116
 2140TIP3   OH227910   0.578   1.662  13.366 -0.3072 -0.4534  0.3135
 2140TIP3    H127911   0.573   1.699  13.278  0.5400 -1.5453 -0.2275
 2140TIP3    H227912   0.500   1.695  13.411 -1.6708 -1.2071 -1.3674
 2141TIP3   OH227913   4.600   5.074  13.732 -0.3819  0.2384 -0.6706
 2141TIP3    H127914   4.514   5.116  13.733 -0.1079  0.8240 -1.0013
 2141TIP3    H227915   4.635   5.093  13.645 -0.2349 -0.6544 -0.8106
 2142TIP3   OH227916   4.238   3.592   2.849  0.1589  0.0597 -0.1959
 2142TIP3    H127917   4.249   3.503   2.882  1.2421 -0.1509 -1.0796
 2142TIP3    H227918   4.318   3.610   2.801  0.2583  1.7681  0.5302
 2143TIP3   OH227919   0.587   4.462  11.344 -0.2868  0.7710  0.1498
 2143TIP3    H127920   0.519   4.394  11.344  0.1255  0.3584 -0.1214
 2143TIP3    H227921   0.640   4.443  11.268 -0.4358  1.6820 -0.1906
 2144TIP3   OH227922   0.808   0.440  13.640 -0.3757  0.0193  0.3980
 2144TIP3    H127923   0.734   0.500  13.625 -0.1280  0.0271 -0.9430
 2144TIP3    H227924   0.785   0.362  13.589  0.2257 -0.2414  0.5246
 2145TIP3   OH227925   2.528   6.291   0.075 -0.0948 -0.1880  0.2130
 2145TIP3    H127926   2.508   6.200   0.052  2.2767 -0.6902 -0.0953
 2145TIP3    H227927   2.475   6.343   0.015  0.1942 -1.4110 -1.1639
 2146TIP3   OH227928   6.099   3.409   1.893  0.0615 -0.3584 -0.6672
 2146TIP3    H127929   6.018   3.393   1.941 -0.9752 -2.2238 -2.8676
 2146TIP3    H227930   6.124   3.324   1.858  2.3413  0.3958 -1.0420
 2147TIP3   OH227931   6.166   2.031  16.764  0.0123  0.0974 -0.3524
 2147TIP3    H127932   6.114   1.951  16.759  2.7314 -1.7675 -0.8000
 2147TIP3    H227933   6.114   2.089  16.819 -1.7021 -2.2581  0.6998
 2148TIP3   OH227934   3.901   4.804  12.200 -0.3219  0.0835 -0.1548
 2148TIP3    H127935   3.820   4.842  12.234 -1.8961 -1.8804 -1.5050
 2148TIP3    H227936   3.894   4.813  12.104  1.0335 -0.1972 -0.3096
 2149TIP3   OH227937   1.694   0.858  16.438  0.0770  0.5259 -0.0129
 2149TIP3    H127938   1.676   0.923  16.506 -1.6615  0.0594  0.0401
 2149TIP3    H227939   1.607   0.838  16.401  0.6445 -1.2269 -0.5035
 2150TIP3   OH227940   1.696   2.172   0.470 -0.6561 -0.0814 -0.2929
 2150TIP3    H127941   1.682   2.085   0.507  0.0004  0.4636  1.2959
 2150TIP3    H227942   1.655   2.168   0.384 -1.9116 -1.5063  0.3374
 2151TIP3   OH227943   4.081   0.852   4.573 -0.2282  0.3999 -0.0852
 2151TIP3    H127944   3.995   0.816   4.551 -0.2036  0.9069 -1.1024
 2151TIP3    H227945   4.069   0.947   4.571  0.5227  0.5014 -1.1054
 2152TIP3   OH227946   5.402   6.027   5.783 -0.6677  0.3981  0.8705
 2152TIP3    H127947   5.336   6.096   5.798 -0.0468  0.8419  1.6379
 2152TIP3    H227948   5.481   6.060   5.826  0.3299  0.2727 -0.7610
 2153TIP3   OH227949   2.144   0.168   3.785  0.3366  0.2084  0.6357
 2153TIP3    H127950   2.202   0.091   3.779  0.8992  0.7296 -1.4782
 2153TIP3    H227951   2.134   0.197   3.695 -1.8937  1.1720  1.1376
 2154TIP3   OH227952   3.535   4.764  12.521  0.0854  0.1487  0.1041
 2154TIP3    H127953   3.568   4.679  12.551  0.9515  1.0989  2.0166
 2154TIP3    H227954   3.537   4.819  12.599 -1.5146  1.6328 -0.8463
 2155TIP3   OH227955   6.552   3.751   3.501  0.3010 -0.4390 -0.7754
 2155TIP3    H127956   6.547   3.703   3.584 -1.5442  0.7787 -0.0961
 2155TIP3    H227957   6.645   3.752   3.479  0.8407 -0.9166  1.2207
 2156TIP3   OH227958   6.518   3.538   0.816  0.1340 -0.2591 -0.3155
 2156TIP3    H127959   6.478   3.455   0.789 -0.7155  0.6058 -1.8190
 2156TIP3    H227960   6.469   3.563   0.895  0.0734 -0.9398 -0.1307
 2157TIP3   OH227961   1.992   6.107   3.605 -0.0507 -0.1613  0.2826
 2157TIP3    H127962   2.059   6.073   3.665 -0.6008 -2.8348 -0.5052
 2157TIP3    H227963   1.909   6.090   3.649 -0.4389 -1.7952 -0.9910
 2158TIP3   OH227964   4.577   4.092   5.171 -0.4580  0.0272  0.1653
 2158TIP3    H127965   4.644   4.033   5.205 -0.7765 -0.1526  0.4892
 2158TIP3    H227966   4.512   4.035   5.130 -1.2207  0.0607  1.2626
 2159TIP3   OH227967   1.793   2.517   0.981 -0.3867 -0.0075  0.2505
 2159TIP3    H127968   1.835   2.431   0.983 -0.6769 -0.1923 -0.9486
 2159TIP3    H227969   1.702   2.498   0.958 -0.7999  0.5152  1.3738
 2160TIP3   OH227970   6.769   1.357   3.401 -0.4486 -0.5806 -0.3579
 2160TIP3    H127971   6.772   1.280   3.457  1.3529  0.2433  0.7965
 2160TIP3    H227972   6.795   1.325   3.314  0.1389 -1.3167  0.0755
 2161TIP3   OH227973   5.566   0.875   0.306 -0.3394  0.0688 -0.0603
 2161TIP3    H127974   5.618   0.909   0.233  0.6926 -0.1703  0.5354
 2161TIP3    H227975   5.595   0.784   0.316 -1.2662 -0.2358 -0.0484
 2162TIP3   OH227976   3.599   5.568  12.741  0.3915  0.2472  0.0582
 2162TIP3    H127977   3.519   5.520  12.758  0.4596  0.1007 -0.0320
 2162TIP3    H227978   3.608   5.566  12.645 -1.2438  3.0717 -0.2605
 2163TIP3   OH227979   6.292   3.705   2.764 -0.6113  0.1434 -0.0758
 2163TIP3    H127980   6.208   3.681   2.803 -1.7044  0.0192 -2.3533
 2163TIP3    H227981   6.308   3.637   2.699  2.4520 -1.1596  1.7930
 2164TIP3   OH227982   0.880   2.342   4.842  0.2178  0.4304  0.0154
 2164TIP3    H127983   0.931   2.311   4.916  0.0496  1.1925  0.4618
 2164TIP3    H227984   0.934   2.322   4.765  0.2083 -0.7315  0.3001
 2165TIP3   OH227985   1.335   1.201  14.644 -0.0905 -0.3131 -0.2107
 2165TIP3    H127986   1.374   1.284  14.671 -1.5007 -0.8515  4.3992
 2165TIP3    H227987   1.248   1.225  14.611 -0.2135  0.0984  0.4024
 2166TIP3   OH227988   6.247   2.144   5.568 -0.2189 -0.1775  0.2372
 2166TIP3    H127989   6.339   2.137   5.590 -0.4218  0.1564  1.2124
 2166TIP3    H227990   6.223   2.056   5.537  0.8609  0.1984 -1.8789
 2167TIP3   OH227991   4.911   1.081  14.393  0.4664 -0.2324 -0.0307
 2167TIP3    H127992   5.000   1.051  14.411 -0.4769 -3.6320 -0.4538
 2167TIP3    H227993   4.900   1.158  14.450  3.8781  0.8431 -0.6066
 2168TIP3   OH227994   4.134   6.441  16.795  0.2159  0.4715 -0.2857
 2168TIP3    H127995   4.068   6.409  16.734 -1.1408 -0.7064  1.7005
 2168TIP3    H227996   4.168   6.520  16.754 -0.7654 -0.1680 -2.4509
 2169TIP3   OH227997   5.857   6.672  12.172 -0.5827 -0.5224  0.0207
 2169TIP3    H127998   5.922   6.603  12.160  1.2072  0.8617  1.1710
 2169TIP3    H227999   5.797   6.637  12.238  0.6495 -0.7898  1.0469
 2170TIP3   OH228000   1.564   1.339  15.408  0.1574 -0.2099 -0.5204
 2170TIP3    H128001   1.526   1.261  15.449 -0.0344 -0.0675 -0.4219
 2170TIP3    H228002   1.489   1.385  15.370  0.1986  0.1875 -0.1315
 2171TIP3   OH228003   0.191   0.161  15.192 -0.0149  0.2133 -0.0929
 2171TIP3    H128004   0.133   0.104  15.242  0.1097 -1.2323 -1.5172
 2171TIP3    H228005   0.264   0.178  15.251 -0.1688 -0.9206  0.4460
 2172TIP3   OH228006   1.290   3.363  15.410  0.1281 -0.1779 -0.0792
 2172TIP3    H128007   1.374   3.361  15.456 -0.3586  1.2985  0.9663
 2172TIP3    H228008   1.227   3.387  15.478 -1.0668 -0.7493 -0.9551
 2173TIP3   OH228009   3.065   5.304   5.156  0.2723 -0.0474 -0.1012
 2173TIP3    H128010   3.113   5.222   5.159  1.2839  0.5540  0.7881
 2173TIP3    H228011   3.091   5.350   5.236 -3.4262 -0.5526  1.5797
 2174TIP3   OH228012   0.872   4.847   4.860 -0.4888  0.3074  0.4381
 2174TIP3    H128013   0.904   4.937   4.854 -0.3108  0.2482  0.4693
 2174TIP3    H228014   0.921   4.800   4.793 -1.1657  0.3962 -0.1222
 2175TIP3   OH228015   2.145   5.277  11.777  0.1066 -0.4557 -0.3879
 2175TIP3    H128016   2.177   5.356  11.821 -0.7120 -0.4791  0.2739
 2175TIP3    H228017   2.195   5.205  11.816 -0.9182 -0.5223  0.8439
 2176TIP3   OH228018   5.261   4.108  14.837 -0.1908 -0.9136  0.1037
 2176TIP3    H128019   5.353   4.129  14.851 -0.2405 -0.3513 -0.3528
 2176TIP3    H228020   5.214   4.188  14.864 -0.4608 -0.7727 -0.7660
 2177TIP3   OH228021   5.412   2.653   1.813 -0.6246  0.1217  0.1196
 2177TIP3    H128022   5.427   2.560   1.830  1.5482  0.4778  0.4634
 2177TIP3    H228023   5.410   2.660   1.717  0.1950 -0.1599  0.0759
 2178TIP3   OH228024   3.394   6.175  16.674 -0.5762 -0.1986 -0.2626
 2178TIP3    H128025   3.314   6.218  16.704  0.0160  1.9438 -1.5232
 2178TIP3    H228026   3.363   6.103  16.619 -1.7439  1.4777 -1.9485
 2179TIP3   OH228027   6.343   0.990   2.870 -0.2857  0.4175 -0.5512
 2179TIP3    H128028   6.271   0.970   2.809 -1.3041  2.6653 -0.1839
 2179TIP3    H228029   6.300   1.030   2.945  1.3696  2.4405 -0.5909
 2180TIP3   OH228030   1.757   5.890  17.117  0.1167  0.1348  0.0663
 2180TIP3    H128031   1.687   5.849  17.066  0.4395 -0.2952 -0.0403
 2180TIP3    H228032   1.811   5.817  17.145 -0.0018  0.3805  0.9466
 2181TIP3   OH228033   2.550   0.378   5.542  0.2210 -0.2031  0.0420
 2181TIP3    H128034   2.596   0.384   5.625  0.0776  1.2696  0.0569
 2181TIP3    H228035   2.529   0.469   5.520 -1.6440 -0.7192 -0.5299
 2182TIP3   OH228036   2.646   3.902   4.751 -0.6469 -0.2190  0.1484
 2182TIP3    H128037   2.582   3.868   4.688  0.5060 -1.2695 -0.4986
 2182TIP3    H228038   2.662   3.992   4.723 -1.7045  0.0125  0.2303
 2183TIP3   OH228039   2.837   3.695  14.130 -0.4638  0.0020  0.5902
 2183TIP3    H128040   2.761   3.747  14.157 -3.6606 -3.5929 -0.6145
 2183TIP3    H228041   2.812   3.659  14.045  1.9808 -2.5443  0.8239
 2184TIP3   OH228042   2.867   6.706  15.794  0.3038  0.2259  0.4175
 2184TIP3    H128043   2.936   6.772  15.803  1.2747 -0.8108  0.7512
 2184TIP3    H228044   2.786   6.756  15.799  1.0130  1.5852 -0.7763
 2185TIP3   OH228045   5.581   1.217  16.986  0.3920 -0.2723 -0.7370
 2185TIP3    H128046   5.514   1.278  16.953  0.7268 -0.0469 -1.0080
 2185TIP3    H228047   5.646   1.213  16.916  1.1860  0.3317 -0.0493
 2186TIP3   OH228048   3.842   5.021   5.744  0.0844 -0.1461 -0.1206
 2186TIP3    H128049   3.806   4.978   5.667 -0.8680 -0.0739  0.2654
 2186TIP3    H228050   3.936   5.003   5.740  0.0803  0.0038 -1.3821
 2187TIP3   OH228051   5.693   0.628   2.155  0.5746 -0.2571 -0.5371
 2187TIP3    H128052   5.714   0.548   2.203  0.2617  1.0614  1.9980
 2187TIP3    H228053   5.616   0.663   2.200 -0.3148  0.6466 -2.6425
 2188TIP3   OH228054   5.918   4.183  14.946 -0.2057 -0.0856 -0.1415
 2188TIP3    H128055   5.836   4.184  14.996 -0.2810 -2.7750 -0.0442
 2188TIP3    H228056   5.910   4.106  14.890  1.6110  0.5373 -1.3310
 2189TIP3   OH228057   5.041   3.551  14.915 -0.0330 -0.2738 -0.1478
 2189TIP3    H128058   4.992   3.533  14.835 -0.5015 -0.9488  0.2815
 2189TIP3    H228059   5.133   3.539  14.890 -0.0662  0.8733 -0.9237
 2190TIP3   OH228060   5.845   4.375   0.902  0.2229  0.5464 -0.4485
 2190TIP3    H128061   5.852   4.463   0.865  0.2527  0.5832 -0.3560
 2190TIP3    H228062   5.752   4.363   0.917  0.1184  0.2087 -1.3145
 2191TIP3   OH228063   4.681   2.642  13.474  0.4111  0.1834 -0.2593
 2191TIP3    H128064   4.762   2.594  13.454  2.1880  3.0656 -0.6668
 2191TIP3    H228065   4.695   2.678  13.562 -1.1386 -0.5124  0.3085
 2192TIP3   OH228066   4.404   3.097  12.342 -0.5668 -0.0178  0.3205
 2192TIP3    H128067   4.387   3.010  12.305 -1.3843  0.0135  0.6166
 2192TIP3    H228068   4.445   3.145  12.270 -0.2758 -0.5846  0.0948
 2193TIP3   OH228069   2.915   2.592  14.599  0.1516  0.4651  0.0676
 2193TIP3    H128070   2.858   2.524  14.635 -1.4193  0.8737 -1.5062
 2193TIP3    H228071   2.877   2.674  14.630 -0.7483  0.7856 -1.7384
 2194TIP3   OH228072   0.506   0.030   2.686  0.3491  0.2385 -0.4240
 2194TIP3    H128073   0.508  -0.015   2.601 -0.0469  0.1759 -0.4004
 2194TIP3    H228074   0.438  -0.016   2.735  1.1861 -0.3111  0.2533
 2195TIP3   OH228075   1.168   5.275  12.459  0.5602 -0.3363  0.3537
 2195TIP3    H128076   1.117   5.204  12.419  0.0134  0.0521  0.3554
 2195TIP3    H228077   1.203   5.324  12.385  1.9550 -1.3137  0.3384
 2196TIP3   OH228078   3.912   4.282  11.655 -0.9270  0.2735 -0.4783
 2196TIP3    H128079   3.822   4.305  11.680 -0.4358  1.2471  0.4713
 2196TIP3    H228080   3.925   4.326  11.571 -1.2854  0.2546 -0.5482
 2197TIP3   OH228081   0.680   1.093  11.691  0.3278 -0.1876 -0.3317
 2197TIP3    H128082   0.648   1.088  11.600 -0.6000 -1.3462  0.0327
 2197TIP3    H228083   0.618   1.151  11.735 -0.1637 -0.9092 -0.0682
 2198TIP3   OH228084   0.620   5.966  14.112  0.0267  0.3528 -0.2534
 2198TIP3    H128085   0.681   5.994  14.180  1.4713  0.0306 -1.3508
 2198TIP3    H228086   0.551   6.032  14.112  1.4001  1.8523 -0.2708
 2199TIP3   OH228087   3.384   6.197   1.590 -0.1152 -0.5904  0.3670
 2199TIP3    H128088   3.390   6.169   1.499  0.5111 -0.5478  0.3892
 2199TIP3    H228089   3.358   6.289   1.585  0.4949 -0.4233  0.2100
 2200TIP3   OH228090   2.752   2.425  10.451  0.4112  0.5472  1.1872
 2200TIP3    H128091   2.683   2.366  10.420  1.5152 -0.9645  1.4855
 2200TIP3    H228092   2.705   2.502  10.483 -0.9641  0.7309 -1.0621
 2201TIP3   OH228093   4.869   3.734  14.002 -0.5892 -0.5839  0.4410
 2201TIP3    H128094   4.923   3.762  13.928  2.1569 -2.2972  1.6324
 2201TIP3    H228095   4.845   3.815  14.047 -0.2482  0.3206 -0.9636
 2202TIP3   OH228096   6.272   4.609   2.756 -0.4461 -0.2066  0.0030
 2202TIP3    H128097   6.293   4.694   2.794  2.1665 -0.2094 -1.2136
 2202TIP3    H228098   6.319   4.546   2.809  0.5475 -0.5125 -1.2006
 2203TIP3   OH228099   5.688   5.743   2.040 -0.2974  0.0815 -0.6044
 2203TIP3    H128100   5.686   5.760   1.946  0.1709 -0.4613 -0.7199
 2203TIP3    H228101   5.740   5.815   2.077 -0.0481  0.0168 -0.8263
 2204TIP3   OH228102   5.291   0.685   2.543  0.5749 -0.0781 -0.2849
 2204TIP3    H128103   5.281   0.777   2.567  0.2272 -0.5271  1.4634
 2204TIP3    H228104   5.224   0.640   2.596  1.0810 -1.3817 -0.7250
 2205TIP3   OH228105   3.021   4.718   4.045 -0.4823 -0.4264 -0.2192
 2205TIP3    H128106   3.070   4.792   4.079  2.0636 -1.3475 -1.6248
 2205TIP3    H228107   2.932   4.730   4.079  0.4072  1.9552  1.4983
 2206TIP3   OH228108   6.079   3.546  14.188  0.0941 -0.3276  0.6080
 2206TIP3    H128109   6.115   3.481  14.249  0.1772  0.6677  1.6565
 2206TIP3    H228110   5.990   3.515  14.170  0.0386 -0.5987  1.3023
 2207TIP3   OH228111   0.562   4.290  11.833  0.2369  0.6026 -0.1654
 2207TIP3    H128112   0.530   4.351  11.767 -0.3059  0.0814 -0.4053
 2207TIP3    H228113   0.631   4.337  11.880  1.3001  0.6530 -1.7218
 2208TIP3   OH228114   4.798   4.323  14.009 -0.2178  0.1942  0.2830
 2208TIP3    H128115   4.732   4.265  14.048  0.0026 -0.1243  0.1850
 2208TIP3    H228116   4.759   4.352  13.927  0.2909 -1.0315 -0.4069
 2209TIP3   OH228117   5.995   1.919   4.658  0.3817 -0.0601 -0.2467
 2209TIP3    H128118   6.015   1.989   4.596  1.5512  0.0127  0.1971
 2209TIP3    H228119   5.962   1.847   4.604 -0.0883  0.5527 -0.7844
 2210TIP3   OH228120   5.055   0.708  13.901  0.4377 -0.3629 -0.2279
 2210TIP3    H128121   4.991   0.779  13.893  2.0677  1.6722  2.7622
 2210TIP3    H228122   5.006   0.636  13.941 -0.4530  0.4391  0.1726
 2211TIP3   OH228123   1.135   2.533   1.736 -0.2124  0.0781 -0.5875
 2211TIP3    H128124   1.166   2.473   1.668  1.9168 -2.1652  2.0876
 2211TIP3    H228125   1.040   2.524   1.735 -0.1529 -0.7158 -2.5190
 2212TIP3   OH228126   5.252   1.140  16.179 -0.2168 -0.4043 -0.2333
 2212TIP3    H128127   5.316   1.081  16.217 -2.2411 -3.1561 -0.7713
 2212TIP3    H228128   5.257   1.123  16.085  0.0279  1.2858 -0.5609
 2213TIP3   OH228129   5.760   4.726  16.958  0.2641 -0.0177 -0.1865
 2213TIP3    H128130   5.778   4.792  17.025  0.2308 -0.4063  0.2066
 2213TIP3    H228131   5.770   4.642  17.003 -0.0126 -0.2786 -0.6036
 2214TIP3   OH228132   3.282   1.755  15.460 -0.2144 -0.6941 -0.1371
 2214TIP3    H128133   3.199   1.722  15.494  0.6063  0.0115  2.8686
 2214TIP3    H228134   3.271   1.851  15.459 -0.3732 -0.6618 -2.6019
 2215TIP3   OH228135   0.288   4.252  15.887 -0.3788  0.5336  1.1190
 2215TIP3    H128136   0.372   4.285  15.920 -0.0244 -0.0926  0.8576
 2215TIP3    H228137   0.227   4.266  15.959  0.4508 -1.1479  2.2017
 2216TIP3   OH228138   3.985   3.605   0.728 -0.0927 -0.3793  0.0595
 2216TIP3    H128139   4.036   3.545   0.783 -2.4972 -1.2637  1.4507
 2216TIP3    H228140   4.001   3.692   0.767 -1.2935 -0.9145  1.8731
 2217TIP3   OH228141   5.482   5.813  12.979  0.4131 -0.1217  0.0559
 2217TIP3    H128142   5.566   5.816  12.933  1.2031 -0.5782  1.3966
 2217TIP3    H228143   5.458   5.905  12.990  1.5296  0.0936  0.9858
 2218TIP3   OH228144   6.305   2.018  11.692 -0.5238 -0.4942  0.2464
 2218TIP3    H128145   6.257   1.997  11.772 -0.2569  0.7772  0.7751
 2218TIP3    H228146   6.396   2.027  11.720 -0.3922 -0.2746 -0.2401
 2219TIP3   OH228147   4.908   5.434   4.062 -0.5871 -0.1603 -0.0766
 2219TIP3    H128148   4.915   5.405   3.971  0.2359  0.1427 -0.1213
 2219TIP3    H228149   4.911   5.354   4.114 -0.0259 -0.2720 -0.2763
 2220TIP3   OH228150   1.951   1.134   5.404  0.2811  0.0633  0.4959
 2220TIP3    H128151   1.892   1.207   5.420  0.2600 -0.1039  1.2139
 2220TIP3    H228152   1.965   1.094   5.490 -2.0598 -2.5777 -0.1999
 2221TIP3   OH228153   3.681   4.376   0.296  0.6611  0.1535  0.0616
 2221TIP3    H128154   3.718   4.302   0.344  0.4371 -0.4618 -0.7035
 2221TIP3    H228155   3.710   4.453   0.345 -2.2225 -0.4928  3.1371
 2222TIP3   OH228156   6.765   3.606   0.457  0.4989 -0.9254  0.1001
 2222TIP3    H128157   6.851   3.615   0.416 -0.6584 -0.6934 -2.4418
 2222TIP3    H228158   6.776   3.534   0.520  3.7033  2.1037  3.4816
 2223TIP3   OH228159   1.591   5.981  15.351  0.3209  0.9551 -0.0717
 2223TIP3    H128160   1.521   5.993  15.286  0.5891  0.2264 -0.5015
 2223TIP3    H228161   1.644   6.060  15.344 -0.0555  1.1992 -0.2350
 2224TIP3   OH228162   3.038   4.253   3.083  0.1126 -0.9451 -0.4715
 2224TIP3    H128163   2.942   4.257   3.082 -0.0689 -1.6718  2.7457
 2224TIP3    H228164   3.065   4.337   3.119  0.4726 -1.6186  0.9234
 2225TIP3   OH228165   0.312   0.264  15.632 -0.1954  0.2245 -0.0945
 2225TIP3    H128166   0.304   0.310  15.548 -1.4446  0.9295  0.3716
 2225TIP3    H228167   0.222   0.239  15.653  0.0942  0.1314  1.0738
 2226TIP3   OH228168   3.257   0.734  11.428  0.9050 -0.4476 -0.6469
 2226TIP3    H128169   3.345   0.725  11.465  0.9058 -0.5370 -0.6709
 2226TIP3    H228170   3.242   0.829  11.425  0.6326 -0.4490  0.2229
 2227TIP3   OH228171   4.593   4.872  14.322  0.3794  0.1999 -0.0228
 2227TIP3    H128172   4.684   4.846  14.308 -0.4109 -1.9474 -1.8317
 2227TIP3    H228173   4.598   4.943  14.386  3.2627 -0.1977  0.3449
 2228TIP3   OH228174   2.899   2.520  13.235  0.8465 -0.0526  0.1097
 2228TIP3    H128175   2.863   2.491  13.151  0.7181  3.0289 -1.0047
 2228TIP3    H228176   2.993   2.504  13.228  0.6056 -1.7652  0.2911
 2229TIP3   OH228177   4.789   5.631   5.344  0.1150 -0.4613 -0.2704
 2229TIP3    H128178   4.786   5.726   5.337 -1.4690 -0.3997  0.6135
 2229TIP3    H228179   4.761   5.599   5.258  0.4455 -0.1318 -0.5022
 2230TIP3   OH228180   6.572   3.558   4.431  0.0910  0.4300  0.1715
 2230TIP3    H128181   6.497   3.503   4.452  1.1953 -0.9770  0.6350
 2230TIP3    H228182   6.607   3.584   4.517  0.5196  0.4979 -0.0199
 2231TIP3   OH228183   2.105   1.096  12.206  0.9135 -0.1889 -0.0894
 2231TIP3    H128184   2.114   1.156  12.281  2.4064 -0.6714  0.1461
 2231TIP3    H228185   2.132   1.149  12.131  1.4711 -0.3113  0.0152
 2232TIP3   OH228186   2.848   6.557  16.852 -0.3484 -0.2013 -0.2275
 2232TIP3    H128187   2.829   6.468  16.824  0.9091 -0.5460 -0.0299
 2232TIP3    H228188   2.801   6.612  16.789 -1.4730 -0.9867 -0.1089
 2233TIP3   OH228189   4.919   2.073  14.369  0.0153 -0.3426  0.6642
 2233TIP3    H128190   4.998   2.117  14.401  0.6988 -1.6790  0.9271
 2233TIP3    H228191   4.890   2.125  14.294  1.2352  0.0917  0.4758
 2234TIP3   OH228192   6.248   0.473   2.552  0.1515 -0.5718 -0.8082
 2234TIP3    H128193   6.269   0.479   2.459  2.1653  0.3164 -0.3291
 2234TIP3    H228194   6.284   0.552   2.591  1.6246 -2.1014  1.1317
 2235TIP3   OH228195   0.152   0.086   5.216  0.1858 -0.7717  0.0818
 2235TIP3    H128196   0.228   0.145   5.218 -0.3062 -0.1515  0.5990
 2235TIP3    H228197   0.189  -0.001   5.231  0.5525 -0.2163  2.7360
 2236TIP3   OH228198   2.640   2.146   1.845 -0.1438  0.2171  0.5718
 2236TIP3    H128199   2.580   2.076   1.820  1.6106 -2.0044  2.2087
 2236TIP3    H228200   2.724   2.121   1.808  0.6881  1.0842  1.7885
 2237TIP3   OH228201   1.571   5.672  13.326 -0.2875  0.1610  0.2811
 2237TIP3    H128202   1.634   5.696  13.257 -2.0780 -0.0112 -1.5139
 2237TIP3    H228203   1.549   5.581  13.307 -1.3841  0.3445  0.6040
 2238TIP3   OH228204   3.739   6.488  16.048  0.0307 -0.8341 -0.3725
 2238TIP3    H128205   3.736   6.422  15.979 -1.7268  0.2496 -1.4241
 2238TIP3    H228206   3.764   6.569  16.003  0.9664 -0.5201  0.6702
 2239TIP3   OH228207   1.958   0.685   6.719  0.4389 -0.4350  0.4485
 2239TIP3    H128208   2.004   0.601   6.718  0.1229 -0.6123  0.5858
 2239TIP3    H228209   1.876   0.668   6.673  0.1759 -0.3194  0.8674
 2240TIP3   OH228210   6.184   0.870  12.052 -0.2592  0.3511 -0.0214
 2240TIP3    H128211   6.122   0.805  12.087  1.7903  0.2300  4.0257
 2240TIP3    H228212   6.170   0.948  12.106  1.5739  1.0510 -0.4726
 2241TIP3   OH228213   1.091   1.351  10.371  0.5430  0.5207  0.0613
 2241TIP3    H128214   0.997   1.331  10.365  0.9865 -1.6731 -0.1933
 2241TIP3    H228215   1.098   1.441  10.338 -1.4365  0.6878 -0.0325
 2242TIP3   OH228216   6.081   6.565   5.162  0.5262 -0.4939  0.6610
 2242TIP3    H128217   6.094   6.471   5.176 -1.5804 -0.7084  1.5560
 2242TIP3    H228218   6.156   6.592   5.109 -0.6599 -3.4228 -2.8956
 2243TIP3   OH228219   3.783   3.036  16.235 -0.2316 -0.2395 -0.3366
 2243TIP3    H128220   3.740   3.056  16.318  0.5249  0.2462 -0.0507
 2243TIP3    H228221   3.792   2.941  16.234 -0.2888 -0.2492  0.1165
 2244TIP3   OH228222   2.152   6.498  11.323 -0.2458  0.2637 -0.2047
 2244TIP3    H128223   2.221   6.545  11.277  0.2807 -0.5650 -0.2907
 2244TIP3    H228224   2.158   6.528  11.413 -0.6294  1.1541 -0.4659
 2245TIP3   OH228225   2.345   2.256   3.903 -0.1001 -0.0483  0.2845
 2245TIP3    H128226   2.388   2.319   3.960  0.1584  0.5265 -0.5324
 2245TIP3    H228227   2.353   2.172   3.949 -0.3470  0.4862  1.3268
 2246TIP3   OH228228   2.557   4.971  15.266 -0.2773 -0.8405 -0.2581
 2246TIP3    H128229   2.643   4.931  15.273 -0.5459 -1.4164 -0.1716
 2246TIP3    H228230   2.499   4.913  15.315 -0.6647 -0.3054 -0.0640
 2247TIP3   OH228231   6.372   2.902   5.251 -0.3094  0.2061  0.3088
 2247TIP3    H128232   6.452   2.951   5.231  0.7274 -1.1333  1.0110
 2247TIP3    H228233   6.398   2.810   5.246 -0.8406 -0.3031  3.9092
 2248TIP3   OH228234   0.515   3.659  12.960  0.0625  0.0541 -0.4519
 2248TIP3    H128235   0.514   3.575  13.006  2.3347 -0.1150 -0.5578
 2248TIP3    H228236   0.606   3.689  12.969  0.5473  0.2188 -4.4008
 2249TIP3   OH228237   5.761   0.815  10.054 -0.0089 -0.3416 -0.0702
 2249TIP3    H128238   5.765   0.747  10.121 -1.6771 -1.1576 -0.7382
 2249TIP3    H228239   5.688   0.871  10.081  1.2481  1.1385  0.3901
 2250TIP3   OH228240   1.040   5.351  14.457  0.1639  0.1231  0.0886
 2250TIP3    H128241   1.105   5.400  14.406 -0.2090 -1.4755 -2.0559
 2250TIP3    H228242   1.087   5.272  14.485 -0.3407 -0.1877  0.0721
 2251TIP3   OH228243   0.387   3.259   5.748 -0.2548 -0.3646  0.3874
 2251TIP3    H128244   0.300   3.225   5.728  0.5771 -2.0411 -0.6319
 2251TIP3    H228245   0.372   3.323   5.817 -2.4811  0.6844 -0.9543
 2252TIP3   OH228246   2.984   0.151  12.798 -0.3171 -0.1320  0.6168
 2252TIP3    H128247   3.073   0.186  12.788 -0.2562 -0.4034  0.1580
 2252TIP3    H228248   2.947   0.156  12.709 -0.9177  0.3922  0.8831
 2253TIP3   OH228249   5.942   5.506   5.495  0.3055  0.2068 -0.6864
 2253TIP3    H128250   5.930   5.570   5.425 -0.2857  0.5210 -0.3103
 2253TIP3    H228251   5.873   5.440   5.480 -2.1151  2.0146  1.4808
 2254TIP3   OH228252   4.546   4.251  11.366  0.4923  0.8611  0.2378
 2254TIP3    H128253   4.513   4.179  11.420 -0.3245  1.1409  0.1156
 2254TIP3    H228254   4.533   4.329  11.419 -1.6236  1.3261 -0.8789
 2255TIP3   OH228255   4.368   5.834   4.689  0.1599 -0.5903 -0.6545
 2255TIP3    H128256   4.446   5.864   4.736 -0.8694  0.2087  0.6291
 2255TIP3    H228257   4.297   5.841   4.754 -0.9348 -1.5247 -1.7063
 2256TIP3   OH228258   2.925   4.350   1.090  0.0420 -0.2739  0.1072
 2256TIP3    H128259   3.014   4.329   1.118  0.3413  1.2043  0.3220
 2256TIP3    H228260   2.911   4.296   1.012 -0.3328 -3.5353  2.2147
 2257TIP3   OH228261   1.427   4.021   1.283 -0.2912 -0.4088 -0.6091
 2257TIP3    H128262   1.372   4.067   1.346 -0.0709  0.3720 -0.9701
 2257TIP3    H228263   1.409   4.065   1.200 -1.2819 -2.0124 -1.3025
 2258TIP3   OH228264   1.392   5.036   3.803  0.4187 -0.1039  0.4993
 2258TIP3    H128265   1.392   5.113   3.746  0.7815  0.0981  0.7676
 2258TIP3    H228266   1.439   5.064   3.881  0.2441 -0.4919  0.7467
 2259TIP3   OH228267   4.062   4.880   4.587  0.4671  0.3040  0.5256
 2259TIP3    H128268   4.046   4.971   4.559  0.7399  0.3536  0.5266
 2259TIP3    H228269   4.008   4.869   4.665 -2.2423 -0.5954 -1.3251
 2260TIP3   OH228270   5.565   0.402  11.517  0.3377  0.2050 -0.2717
 2260TIP3    H128271   5.635   0.439  11.570  1.6938 -1.8959 -0.4563
 2260TIP3    H228272   5.485   0.423  11.565  1.1943  1.4920  0.6668
 2261TIP3   OH228273   0.501   3.764  16.821  0.0785 -0.4562 -0.1007
 2261TIP3    H128274   0.476   3.804  16.904  0.7490 -0.1155 -0.0533
 2261TIP3    H228275   0.595   3.745  16.832 -0.3670 -2.7409  0.1715
 2262TIP3   OH228276   1.099   0.027  14.941  0.1861  0.2013  0.2804
 2262TIP3    H128277   1.006   0.022  14.917  0.4849 -0.1487 -0.8568
 2262TIP3    H228278   1.104  -0.019  15.025 -0.4452 -1.0888 -0.3493
 2263TIP3   OH228279   4.968   0.587   1.358  0.4489  0.2474 -0.1064
 2263TIP3    H128280   5.063   0.589   1.366  0.4754  0.8863 -0.5174
 2263TIP3    H228281   4.951   0.551   1.271  0.3793  1.8755 -0.8176
 2264TIP3   OH228282   5.323   3.037   3.643 -0.3469 -0.0936  0.1518
 2264TIP3    H128283   5.381   3.077   3.708  0.1656 -0.7016  0.0792
 2264TIP3    H228284   5.326   3.096   3.568 -1.9414  1.2853  1.1295
 2265TIP3   OH228285   3.238   2.078   3.571 -0.4896  0.2465  0.2016
 2265TIP3    H128286   3.176   2.058   3.641  0.5542 -2.7045  0.4330
 2265TIP3    H228287   3.213   2.020   3.499  0.6108  0.6449 -0.5360
 2266TIP3   OH228288   5.779   0.531  16.236  0.4589 -0.0795  0.1680
 2266TIP3    H128289   5.732   0.499  16.159 -0.1126 -1.4767  1.0544
 2266TIP3    H228290   5.723   0.506  16.310  2.1331 -0.9606  1.1975
 2267TIP3   OH228291   4.479   2.743   4.014  0.3685 -0.4466 -0.7049
 2267TIP3    H128292   4.520   2.672   3.966  0.4570 -0.7021 -0.2623
 2267TIP3    H228293   4.388   2.743   3.985 -0.1962 -2.1873  0.8875
 2268TIP3   OH228294   1.842   2.217   3.002 -0.6591  0.5960  0.2591
 2268TIP3    H128295   1.760   2.266   2.996 -1.2899 -0.4158  0.5125
 2268TIP3    H228296   1.821   2.139   3.053  0.1027 -0.4059 -0.8835
 2269TIP3   OH228297   4.216   5.175   2.822 -0.1502  0.0493  0.1471
 2269TIP3    H128298   4.223   5.169   2.727 -0.5113  0.7380  0.0699
 2269TIP3    H228299   4.210   5.269   2.840  1.7458  0.0515  0.9998
 2270TIP3   OH228300   4.669   1.918  15.094 -0.0198 -0.5040  0.5245
 2270TIP3    H128301   4.711   1.966  15.165  0.2408  1.9336 -1.1347
 2270TIP3    H228302   4.586   1.964  15.080  0.5971  0.0748 -1.6692
 2271TIP3   OH228303   0.620   1.218  12.842 -0.0268  0.0185  0.4363
 2271TIP3    H128304   0.539   1.260  12.814  0.4349  1.3168  0.9221
 2271TIP3    H228305   0.630   1.143  12.784 -0.1954  1.3713 -1.4701
 2272TIP3   OH228306   3.953   6.712   2.937  0.0733 -0.1350  0.0241
 2272TIP3    H128307   3.992   6.655   3.003 -0.0798  0.6861  0.8372
 2272TIP3    H228308   3.859   6.710   2.955 -0.0411 -0.4590 -0.6071
 2273TIP3   OH228309   3.175   5.996   5.648  0.5160 -0.0397 -0.0599
 2273TIP3    H128310   3.247   5.936   5.627  0.5691 -0.2250  0.6414
 2273TIP3    H228311   3.168   5.994   5.743 -1.7563 -1.6100 -0.1690
 2274TIP3   OH228312   2.545   5.362  15.527  0.1519 -0.0602  0.7451
 2274TIP3    H128313   2.617   5.330  15.472  0.7331  0.3854  1.2312
 2274TIP3    H228314   2.579   5.357  15.616 -0.9815 -1.3044  1.1346
 2275TIP3   OH228315   0.224   4.239  13.427  0.6490  0.3282 -0.1860
 2275TIP3    H128316   0.240   4.325  13.388  0.1929 -0.3114 -1.8846
 2275TIP3    H228317   0.137   4.214  13.396  0.9902 -0.9662 -0.1680
 2276TIP3   OH228318   1.418   5.289   3.690  0.7266 -0.1529  0.3061
 2276TIP3    H128319   1.337   5.303   3.642  1.5223 -2.0698 -1.7701
 2276TIP3    H228320   1.461   5.375   3.690 -0.4297  0.4430 -0.2656
 2277TIP3   OH228321   0.749   4.425  12.319 -0.8320  0.0854  0.4837
 2277TIP3    H128322   0.723   4.389  12.404  0.3171  0.4966  1.0243
 2277TIP3    H228323   0.794   4.506  12.340  0.5251 -0.4075 -0.4372
 2278TIP3   OH228324   6.679   1.080  16.100  0.4599 -0.3193 -0.3342
 2278TIP3    H128325   6.633   1.143  16.155 -1.6574 -2.5709  0.6457
 2278TIP3    H228326   6.659   1.108  16.010 -1.1404 -0.0377  0.0788
 2279TIP3   OH228327   2.886   0.180   2.367  0.3557 -0.2591 -0.1786
 2279TIP3    H128328   2.870   0.240   2.439  0.3297  0.0044 -0.4007
 2279TIP3    H228329   2.898   0.095   2.408 -3.4430 -0.9004 -0.0807
 2280TIP3   OH228330   2.752   1.874   5.994 -0.5042  0.0293 -0.2200
 2280TIP3    H128331   2.681   1.880   5.930 -0.1399 -1.2897 -0.7649
 2280TIP3    H228332   2.709   1.840   6.073 -0.3401 -1.6311 -0.8201
 2281TIP3   OH228333   0.457   4.367   2.109  0.3132 -0.0006 -0.1083
 2281TIP3    H128334   0.487   4.431   2.174 -1.5536  1.1149 -0.2675
 2281TIP3    H228335   0.397   4.311   2.156  1.7025 -1.5178 -0.0541
 2282TIP3   OH228336   6.257   5.488  12.011 -0.9429  0.4032  0.1875
 2282TIP3    H128337   6.287   5.407  12.053  1.1715  1.0412  0.0298
 2282TIP3    H228338   6.267   5.471  11.917  0.0672  1.0227  0.1730
 2283TIP3   OH228339   2.188   2.367   3.693 -0.6867 -0.0800  0.2243
 2283TIP3    H128340   2.248   2.324   3.753 -0.5908 -0.1799  0.0546
 2283TIP3    H228341   2.189   2.459   3.721  0.5721  0.1857 -0.6187
 2284TIP3   OH228342   4.761   4.849   6.577 -0.1444  0.2821  0.2247
 2284TIP3    H128343   4.698   4.791   6.534  0.1829  0.3642 -0.3722
 2284TIP3    H228344   4.838   4.794   6.592 -0.7917 -0.1916  2.1418
 2285TIP3   OH228345   0.259   2.965   0.500  0.5871  0.0879  0.5843
 2285TIP3    H128346   0.258   2.902   0.573 -1.3915 -0.4552  0.1388
 2285TIP3    H228347   0.224   3.046   0.538 -0.4607 -0.2001  0.2727
 2286TIP3   OH228348   1.064   2.254  14.797  0.1726  0.3715  0.0722
 2286TIP3    H128349   1.058   2.238  14.891  0.9801 -1.4908 -0.1619
 2286TIP3    H228350   1.027   2.176  14.756  1.7321  0.2250 -1.1522
 2287TIP3   OH228351   2.591   5.205  16.922  0.7811 -0.3758 -0.1398
 2287TIP3    H128352   2.678   5.239  16.901  0.3341  1.3098  0.6257
 2287TIP3    H228353   2.592   5.195  17.018 -0.2091  0.7214  0.0067
 2288TIP3   OH228354   5.042   4.704   3.835  0.0789 -0.6997  0.1926
 2288TIP3    H128355   5.016   4.722   3.925 -2.9020 -1.1716 -0.4805
 2288TIP3    H228356   5.112   4.639   3.843 -0.1073 -0.7200  2.1598
 2289TIP3   OH228357   3.326   5.814  14.709 -0.6116  0.2950 -0.1474
 2289TIP3    H128358   3.296   5.755  14.778 -1.1757  1.1944  0.3985
 2289TIP3    H228359   3.420   5.800  14.704 -0.7326 -0.6075  0.0106
 2290TIP3   OH228360   0.367   4.200  10.703 -0.0040 -0.2440  0.1816
 2290TIP3    H128361   0.424   4.195  10.627  0.0989 -2.1922  0.3529
 2290TIP3    H228362   0.424   4.229  10.774  0.5634 -1.2176  0.1327
 2291TIP3   OH228363   0.496   5.216  15.273 -0.3183 -0.0909 -0.0570
 2291TIP3    H128364   0.579   5.260  15.257  0.0312 -0.3672  0.9154
 2291TIP3    H228365   0.431   5.286  15.277  0.1006  0.2654  0.6375
 2292TIP3   OH228366   4.119   3.032  15.663  0.2150 -0.1259  0.5639
 2292TIP3    H128367   4.148   3.022  15.754  1.0910  0.6936  0.3933
 2292TIP3    H228368   4.199   3.048  15.614 -0.2748 -0.3605 -0.3312
 2293TIP3   OH228369   4.775   3.731   2.813  0.2972  0.0334  0.2377
 2293TIP3    H128370   4.865   3.748   2.843  0.2270 -3.0631  2.8222
 2293TIP3    H228371   4.723   3.800   2.852  0.9652 -1.0414  3.3352
 2294TIP3   OH228372   0.743   3.195  13.793 -0.1756 -0.0702 -0.2746
 2294TIP3    H128373   0.694   3.273  13.767 -0.6042 -0.1613  0.2398
 2294TIP3    H228374   0.727   3.188  13.888 -0.8822 -1.2968 -0.4649
 2295TIP3   OH228375   3.584   5.587  15.520  0.3199 -1.2180  0.3594
 2295TIP3    H128376   3.508   5.618  15.471 -0.0660 -1.4310  0.8120
 2295TIP3    H228377   3.623   5.519  15.466 -0.2291 -1.6032  0.4493
 2296TIP3   OH228378   4.640   1.185   0.877 -0.5130  0.3479 -0.2009
 2296TIP3    H128379   4.593   1.244   0.936 -1.7855 -0.0671 -0.7453
 2296TIP3    H228380   4.590   1.103   0.882 -0.2056  0.0850 -1.2858
 2297TIP3   OH228381   0.622   3.647   0.475  0.3512  0.2653 -0.1350
 2297TIP3    H128382   0.585   3.697   0.403 -0.8320 -2.6282 -1.7180
 2297TIP3    H228383   0.557   3.654   0.545  0.1130  0.7712 -0.4040
 2298TIP3   OH228384   2.240   6.563  15.492 -0.4175 -0.0919 -0.1249
 2298TIP3    H128385   2.282   6.650  15.495 -0.5888  0.0400 -1.2586
 2298TIP3    H228386   2.284   6.514  15.561  1.2426  0.2174 -0.8981
 2299TIP3   OH228387   2.247   6.120  12.999 -0.2333  0.2043  0.5623
 2299TIP3    H128388   2.335   6.084  12.987 -0.3759  0.0399 -0.0175
 2299TIP3    H228389   2.258   6.214  12.981 -0.2513  0.1220  0.1291
 2300TIP3   OH228390   3.674   4.410  10.876  0.3072  0.5030 -0.0298
 2300TIP3    H128391   3.710   4.476  10.817 -0.0314 -1.2019 -2.2478
 2300TIP3    H228392   3.741   4.342  10.881 -0.2870 -0.0793  0.3084
 2301TIP3   OH228393   2.029   2.927  12.561 -0.0408  0.4288  0.5441
 2301TIP3    H128394   2.014   3.020  12.542 -0.6802  0.5272  1.4721
 2301TIP3    H228395   2.109   2.926  12.614 -0.7672  0.5999  1.6829
 2302TIP3   OH228396   4.207   2.749  12.547  0.3445 -0.2043 -0.6286
 2302TIP3    H128397   4.162   2.668  12.523 -0.6042 -0.3448  1.4359
 2302TIP3    H228398   4.300   2.727  12.544  0.0838 -1.8742  1.3452
 2303TIP3   OH228399   0.181   5.124   0.993 -0.4500 -0.1784  0.4184
 2303TIP3    H128400   0.150   5.087   1.076 -0.5107 -0.9715  0.0526
 2303TIP3    H228401   0.273   5.146   1.009 -0.0162 -1.7702  0.2517
 2304TIP3   OH228402   4.149   3.274   3.695  0.5969 -0.3016  0.2561
 2304TIP3    H128403   4.225   3.218   3.706  0.6818 -0.0646  0.9410
 2304TIP3    H228404   4.179   3.344   3.637  1.0872  0.1102  0.9835
 2305TIP3   OH228405   2.004   1.990  16.936 -0.0721  0.3692 -0.1229
 2305TIP3    H128406   1.994   1.960  16.846 -1.9451 -0.9691  0.4673
 2305TIP3    H228407   1.993   2.085  16.933 -0.9472  0.2392 -1.1922
 2306TIP3   OH228408   2.948   6.556   1.234 -0.3173  0.0335  0.1954
 2306TIP3    H128409   2.908   6.642   1.244 -1.7377 -0.4624 -0.8904
 2306TIP3    H228410   2.953   6.522   1.323  0.7255  1.4075  0.7004
 2307TIP3   OH228411   6.781   3.274   3.997  0.2635 -0.7357  0.1949
 2307TIP3    H128412   6.765   3.192   4.044  1.1697 -1.8222 -1.3084
 2307TIP3    H228413   6.758   3.255   3.906  2.4772  0.0083 -0.5755
 2308TIP3   OH228414   2.366   0.672  15.698  0.2693 -0.3383 -0.7394
 2308TIP3    H128415   2.275   0.699  15.710 -0.1388 -0.8965 -2.3577
 2308TIP3    H228416   2.362   0.577  15.688  1.4342 -0.8954  2.5780
 2309TIP3   OH228417   1.822   3.514  13.835 -0.1410 -0.1490 -0.5403
 2309TIP3    H128418   1.832   3.541  13.744 -1.2686 -1.4651 -1.0952
 2309TIP3    H228419   1.856   3.425  13.838 -1.1304 -0.5357  0.0404
 2310TIP3   OH228420   2.689   4.990  13.408  0.7593 -0.8268  0.1168
 2310TIP3    H128421   2.689   4.900  13.438  0.6566 -0.9778 -0.3285
 2310TIP3    H228422   2.614   4.996  13.348 -1.0535  0.3134  2.3400
 2311TIP3   OH228423   6.300   0.304   1.325 -0.0054  0.0408 -0.1531
 2311TIP3    H128424   6.316   0.363   1.252  0.2305 -0.7197 -0.7324
 2311TIP3    H228425   6.281   0.361   1.399  1.3787  0.8766 -0.4179
 2312TIP3   OH228426   6.682   3.837  14.985  0.3891 -0.2909  0.0325
 2312TIP3    H128427   6.595   3.819  14.949  0.1796 -0.4945  0.6424
 2312TIP3    H228428   6.685   3.933  14.993  0.0816 -0.3085  0.3609
 2313TIP3   OH228429   5.107   2.327   5.651 -0.1879  0.2260  0.2043
 2313TIP3    H128430   5.088   2.311   5.558  0.4021 -1.9359  0.4110
 2313TIP3    H228431   5.025   2.363   5.686 -0.6653  0.3480 -0.9865
 2314TIP3   OH228432   1.930   3.832  17.005  1.0326  0.0329 -0.1556
 2314TIP3    H128433   1.860   3.773  17.033  0.4564  0.3581 -0.8566
 2314TIP3    H228434   2.010   3.792  17.038  0.4899 -0.1293  1.0374
 2315TIP3   OH228435   0.744   2.261  10.804 -0.1644  0.1995 -0.0958
 2315TIP3    H128436   0.724   2.327  10.738 -0.2001  0.2411 -0.0425
 2315TIP3    H228437   0.832   2.284  10.835  0.4419 -0.6338 -1.1323
 2316TIP3   OH228438   5.134   3.282  12.176 -0.1350  0.0887  0.4323
 2316TIP3    H128439   5.193   3.217  12.215  1.2542  1.5041  0.7894
 2316TIP3    H228440   5.056   3.281  12.232  1.4663  1.4872  2.8712
 2317TIP3   OH228441   1.094   5.400  13.627  0.4119  0.0830  0.5520
 2317TIP3    H128442   1.031   5.426  13.559  0.9523 -0.0377 -0.0007
 2317TIP3    H228443   1.040   5.388  13.705 -0.4639 -1.2381 -0.1979
 2318TIP3   OH228444   5.980   0.893  13.066  0.8170 -0.2460 -0.8015
 2318TIP3    H128445   5.892   0.912  13.098  1.0430  0.1753 -0.4180
 2318TIP3    H228446   5.970   0.814  13.012  0.3123 -0.5596 -0.2531
 2319TIP3   OH228447   5.694   4.430  12.827  0.6259 -0.3118 -0.5335
 2319TIP3    H128448   5.739   4.431  12.912 -0.7995 -3.0556  0.3886
 2319TIP3    H228449   5.721   4.347  12.787 -0.1798  0.0676 -1.9246
 2320TIP3   OH228450   5.084   4.376  14.581  0.3716  0.2671  0.0597
 2320TIP3    H128451   5.133   4.457  14.574  0.9350  0.0039  0.8380
 2320TIP3    H228452   5.001   4.402  14.621  0.1105  0.6120 -0.6791
 2321TIP3   OH228453   3.661   0.398  13.133 -0.1045  0.1230 -0.1880
 2321TIP3    H128454   3.572   0.415  13.105 -0.2076  0.0311  0.0833
 2321TIP3    H228455   3.707   0.482  13.122 -0.7302  0.7574  1.6249
 2322TIP3   OH228456   2.302   3.874   4.048 -0.1285  0.7972 -0.4693
 2322TIP3    H128457   2.294   3.869   4.143  0.4479  3.2496 -0.2102
 2322TIP3    H228458   2.374   3.815   4.026 -0.9909 -0.6339  0.4516
 2323TIP3   OH228459   4.226   3.594  10.900 -0.3537  0.3649  0.0739
 2323TIP3    H128460   4.297   3.557  10.847 -0.8683 -2.0501  0.9512
 2323TIP3    H228461   4.258   3.681  10.924  3.2923 -1.2886  2.0926
 2324TIP3   OH228462   5.090   5.953   1.120  0.4635 -0.1876  0.4717
 2324TIP3    H128463   5.185   5.964   1.129  0.8872  1.6791 -3.8490
 2324TIP3    H228464   5.053   6.033   1.158  0.5979 -0.7029  1.7367
 2325TIP3   OH228465   1.928   4.475   5.583  0.0311 -0.4113  0.0886
 2325TIP3    H128466   1.932   4.419   5.661  2.1561  0.1893  0.4938
 2325TIP3    H228467   1.836   4.477   5.559 -0.5375 -1.4638  1.9766
 2326TIP3   OH228468   3.592   2.701  12.578 -0.0438  0.1938  0.2967
 2326TIP3    H128469   3.504   2.727  12.605  0.7305  0.8588  2.3578
 2326TIP3    H228470   3.643   2.781  12.582  0.8348 -0.3324 -0.1497
 2327TIP3   OH228471   1.671   2.356   5.124 -0.6823  0.0434 -0.2095
 2327TIP3    H128472   1.713   2.441   5.111 -0.7757  0.1896  0.4031
 2327TIP3    H228473   1.673   2.343   5.219 -1.9454  0.0132 -0.1785
 2328TIP3   OH228474   1.320   6.640  12.880  0.3397 -0.3343  0.1576
 2328TIP3    H128475   1.288   6.593  12.803 -3.1547  1.5872  0.2406
 2328TIP3    H228476   1.262   6.612  12.951  1.8676 -0.1339  1.5392
 2329TIP3   OH228477   0.226   6.445   4.592 -0.3310 -0.0827  0.1363
 2329TIP3    H128478   0.153   6.463   4.533 -2.8500 -2.4561  2.2724
 2329TIP3    H228479   0.249   6.531   4.628 -2.0317  0.7645 -0.6683
 2330TIP3   OH228480   1.527   0.769  13.089 -0.2990  0.3449 -0.1670
 2330TIP3    H128481   1.512   0.796  12.998 -0.6579 -0.2155 -0.2820
 2330TIP3    H228482   1.603   0.712  13.085 -2.2268 -2.4272 -0.6856
 2331TIP3   OH228483   1.216   0.672  14.166  0.5330  0.6869  0.2088
 2331TIP3    H128484   1.225   0.621  14.247 -1.7681  2.5976  1.8103
 2331TIP3    H228485   1.157   0.743  14.190 -2.3614 -0.0615 -3.7954
 2332TIP3   OH228486   1.328   4.325  16.105  0.0391 -0.7157 -0.3115
 2332TIP3    H128487   1.309   4.299  16.195  0.5793  1.9568  0.6776
 2332TIP3    H228488   1.390   4.259  16.073 -0.1942 -1.7349  1.2540
 2333TIP3   OH228489   1.893   0.095   2.834 -0.3745 -0.2979  0.3191
 2333TIP3    H128490   1.934   0.074   2.917  0.6461  2.1978  0.5410
 2333TIP3    H228491   1.845   0.176   2.850  0.6831  0.8329 -1.6883
 2334TIP3   OH228492   5.644   1.767   4.853 -0.2589 -0.0094 -0.4667
 2334TIP3    H128493   5.591   1.693   4.823 -0.3471  0.3135 -1.1388
 2334TIP3    H228494   5.641   1.762   4.949 -0.0756 -1.0014 -0.5026
 2335TIP3   OH228495   0.126   6.085   0.008 -0.1153 -0.5660 -0.0691
 2335TIP3    H128496   0.069   6.024  -0.037  0.5290 -0.1023 -1.5703
 2335TIP3    H228497   0.162   6.140  -0.061  0.2925  0.7031  1.1073
 2336TIP3   OH228498   5.820   1.548  16.729 -0.1104  0.3151 -0.3729
 2336TIP3    H128499   5.764   1.611  16.774  1.5394  0.8692  0.9647
 2336TIP3    H228500   5.884   1.520  16.794  2.3446  1.0947 -2.2895
 2337TIP3   OH228501   1.062   3.897  14.702 -0.1362  0.2811  0.0756
 2337TIP3    H128502   1.135   3.925  14.647  0.5293 -1.3095  0.0933
 2337TIP3    H228503   0.991   3.880  14.640  0.1188  0.0205 -0.1536
 2338TIP3   OH228504   3.004   1.161  12.307  0.1477  0.6966  0.1616
 2338TIP3    H128505   2.979   1.150  12.215  0.8810  1.5440 -0.1629
 2338TIP3    H228506   3.093   1.196  12.303 -0.0610  1.3822  1.1806
 2339TIP3   OH228507   0.723   1.112   6.191  0.2236  0.2034  0.3827
 2339TIP3    H128508   0.812   1.147   6.189 -0.0980  1.3249  2.9013
 2339TIP3    H228509   0.722   1.053   6.266 -1.1149  0.0341  0.2538
 2340TIP3   OH228510   0.377   3.991   3.795  0.4083  0.2275 -0.4232
 2340TIP3    H128511   0.293   3.971   3.835  0.1913 -0.0579 -1.0142
 2340TIP3    H228512   0.356   4.049   3.722  0.7096  0.0554 -0.6495
 2341TIP3   OH228513   3.445   4.617   1.310 -0.4786  0.2514 -0.3687
 2341TIP3    H128514   3.457   4.602   1.216  0.6894 -1.2876 -0.0191
 2341TIP3    H228515   3.528   4.656   1.338 -0.0153 -1.1387  0.3303
 2342TIP3   OH228516   0.822   3.478  12.204 -0.2291  0.4319 -0.0016
 2342TIP3    H128517   0.798   3.512  12.118 -1.2507 -1.0486 -0.3367
 2342TIP3    H228518   0.740   3.477  12.254  0.3145  1.0830  0.9446
 2343TIP3   OH228519   1.380   0.469  11.753 -0.1841 -0.0622 -0.2070
 2343TIP3    H128520   1.354   0.377  11.756 -0.6833  0.0581 -0.7297
 2343TIP3    H228521   1.351   0.505  11.836 -0.2055 -0.3144 -0.1024
 2344TIP3   OH228522   2.631   6.044   3.325 -0.1243  0.1653 -0.0056
 2344TIP3    H128523   2.672   6.099   3.258 -0.4597 -0.6710 -0.9073
 2344TIP3    H228524   2.624   5.958   3.285  0.8102 -0.6822  1.5536
 2345TIP3   OH228525   2.556   2.010  12.793 -0.1034  0.1423  0.8500
 2345TIP3    H128526   2.641   1.975  12.766 -0.3244  1.1705 -1.3880
 2345TIP3    H228527   2.503   1.932  12.812  1.1787 -0.5203  1.9612
 2346TIP3   OH228528   5.125   1.430  11.595 -0.3224  0.0027  0.5074
 2346TIP3    H128529   5.159   1.515  11.623 -1.0912  0.3827  0.3100
 2346TIP3    H228530   5.031   1.434  11.612 -0.3542 -0.8597  0.6168
 2347TIP3   OH228531   2.952   0.723  12.791  0.0760  0.4512  0.2258
 2347TIP3    H128532   2.984   0.742  12.703 -0.9131  1.3554  0.0369
 2347TIP3    H228533   2.946   0.808  12.833  0.4434  0.0331  1.1472
 2348TIP3   OH228534   5.804   2.978   3.305 -0.0100  0.0964  0.3176
 2348TIP3    H128535   5.728   2.954   3.358 -0.3360 -0.8855 -0.5539
 2348TIP3    H228536   5.786   3.067   3.275 -0.3634  0.2241  0.9103
 2349TIP3   OH228537   6.035   1.383   5.257  0.1827 -0.3093 -0.5350
 2349TIP3    H128538   6.106   1.446   5.253  0.2044 -0.3617 -1.0002
 2349TIP3    H228539   6.038   1.338   5.173  0.7341 -1.5424  0.1187
 2350TIP3   OH228540   5.165   6.745   5.349 -0.1319 -0.1505  0.1393
 2350TIP3    H128541   5.102   6.812   5.373 -0.7818 -1.0531  1.0323
 2350TIP3    H228542   5.169   6.749   5.254  0.4565  1.6790  0.1974
 2351TIP3   OH228543   1.320   2.132  14.747 -0.0548 -0.4942 -0.3676
 2351TIP3    H128544   1.243   2.180  14.778 -1.2113 -1.9843 -0.8346
 2351TIP3    H228545   1.313   2.046  14.787  0.2768 -1.3159 -1.9978
 2352TIP3   OH228546   3.719   0.512  16.836 -0.5067  0.5562  0.0315
 2352TIP3    H128547   3.668   0.510  16.917  0.7451  0.6828  0.8583
 2352TIP3    H228548   3.760   0.426  16.832 -0.6956  0.4912 -0.5728
 2353TIP3   OH228549   1.095   0.394   0.606 -0.3666  0.0659 -0.3995
 2353TIP3    H128550   1.154   0.327   0.572 -0.9786 -0.2875 -0.7888
 2353TIP3    H228551   1.076   0.366   0.696 -1.4023 -0.8457 -0.8754
 2354TIP3   OH228552   5.013   5.585   3.739  0.2623  0.0250 -0.5196
 2354TIP3    H128553   4.978   5.503   3.774  0.3299  0.3106  0.2548
 2354TIP3    H228554   4.935   5.636   3.717  0.0175  1.3871  2.9122
 2355TIP3   OH228555   4.951   4.473   2.571  0.1559 -0.0478 -0.6054
 2355TIP3    H128556   4.993   4.554   2.541 -0.2283  0.4024  0.0347
 2355TIP3    H228557   4.873   4.503   2.617  0.5613 -0.7236  0.5550
 2356TIP3   OH228558   1.526   6.526   2.692 -0.2606 -0.2715  0.8206
 2356TIP3    H128559   1.601   6.583   2.708 -0.1508  0.2442 -1.2242
 2356TIP3    H228560   1.563   6.446   2.656 -0.6688  0.6896 -2.0405
 2357TIP3   OH228561   1.348   0.985  16.191  0.1451  0.7091  0.0495
 2357TIP3    H128562   1.377   0.946  16.273  0.6339  0.5321 -0.2055
 2357TIP3    H228563   1.338   1.078  16.211 -0.1236  0.6071  0.4122
 2358TIP3   OH228564   3.462   1.533   1.053  0.3336 -0.3293  0.5023
 2358TIP3    H128565   3.535   1.542   1.114 -0.3087 -0.4384  1.3014
 2358TIP3    H228566   3.392   1.584   1.092  0.6322  1.6680 -1.3700
 2359TIP3   OH228567   3.590   5.765   1.491  0.4690  0.5891  0.9271
 2359TIP3    H128568   3.612   5.837   1.431  1.4503 -0.8291 -0.5073
 2359TIP3    H228569   3.661   5.763   1.554  0.1670  1.1890  1.2951
 2360TIP3   OH228570   0.394   3.834  13.976  0.4944  0.1434  0.3845
 2360TIP3    H128571   0.338   3.858  13.902 -1.3847  0.0237  1.6843
 2360TIP3    H228572   0.403   3.914  14.027  2.1264  0.3293 -0.1405
 2361TIP3   OH228573   2.848   4.125  15.197 -0.5081 -0.3945 -0.0972
 2361TIP3    H128574   2.806   4.049  15.156 -0.7409  0.0880 -0.7854
 2361TIP3    H228575   2.902   4.162  15.127 -0.5960  0.2165  0.1537
 2362TIP3   OH228576   2.244   0.863  11.405 -0.6483  0.4150 -0.8120
 2362TIP3    H128577   2.157   0.904  11.407 -0.1005  1.6636  1.0197
 2362TIP3    H228578   2.292   0.911  11.337 -1.2209  0.0913 -1.4470
 2363TIP3   OH228579   2.767   0.182   4.155  0.7405  0.2078  0.1176
 2363TIP3    H128580   2.760   0.105   4.212  1.2136  0.3988  0.4420
 2363TIP3    H228581   2.842   0.164   4.099  0.4540  0.1505 -0.2510
 2364TIP3   OH228582   2.381   1.166  13.326 -0.3720  0.3151 -0.0246
 2364TIP3    H128583   2.446   1.167  13.255 -1.4348 -2.3803 -1.1723
 2364TIP3    H228584   2.389   1.079  13.364 -2.2581  0.4749  0.8221
 2365TIP3   OH228585   3.385   1.781  13.228  0.6415 -0.5169 -0.6723
 2365TIP3    H128586   3.305   1.756  13.275  0.7014 -0.7097 -0.6718
 2365TIP3    H228587   3.370   1.872  13.203  0.2678 -0.6639 -0.9956
 2366TIP3   OH228588   1.823   4.525   3.473  0.1189  0.0458 -0.4147
 2366TIP3    H128589   1.867   4.442   3.459 -0.4986 -0.0773 -1.6827
 2366TIP3    H228590   1.760   4.532   3.402 -0.4511  1.1959  0.1715
 2367TIP3   OH228591   5.445   2.182  12.374  0.9115 -0.6812 -0.7746
 2367TIP3    H128592   5.397   2.101  12.357  2.4684 -1.8650  0.2172
 2367TIP3    H228593   5.504   2.161  12.446  1.0265  1.4886 -0.1688
 2368TIP3   OH228594   4.955   6.545   5.312 -0.6681  0.8414  0.1561
 2368TIP3    H128595   4.962   6.455   5.279 -1.3029  1.5756 -2.1614
 2368TIP3    H228596   5.041   6.564   5.349  0.3916  0.1693 -1.8411
 2369TIP3   OH228597   1.603   0.990   0.364  0.3133  0.9201  0.2577
 2369TIP3    H128598   1.660   1.066   0.359 -0.8192  1.7405 -1.4567
 2369TIP3    H228599   1.635   0.931   0.295 -0.7733  1.3315 -0.6321
 2370TIP3   OH228600   1.524   2.215  10.315  0.1699  0.1639  0.0581
 2370TIP3    H128601   1.477   2.135  10.339 -0.1527  0.4658  0.4408
 2370TIP3    H228602   1.459   2.267  10.267  0.5559 -0.0603 -0.7399
 2371TIP3   OH228603   2.751   2.963  15.943  0.0359  0.1730 -0.2300
 2371TIP3    H128604   2.784   3.044  15.905 -0.3373  0.7507  0.6731
 2371TIP3    H228605   2.828   2.906  15.948  0.4436  0.7247 -0.1852
 2372TIP3   OH228606   6.370   3.601  15.012  0.2957  0.9010 -0.3983
 2372TIP3    H128607   6.404   3.690  15.005 -0.9874  1.2761 -2.7037
 2372TIP3    H228608   6.446   3.545  14.994  0.5373  1.6340 -1.7957
 2373TIP3   OH228609   2.733   2.535  15.772 -0.1084 -0.5075 -0.5006
 2373TIP3    H128610   2.816   2.495  15.797  0.2801  0.6642  0.1673
 2373TIP3    H228611   2.747   2.566  15.683  0.5952  0.7220  0.0112
 2374TIP3   OH228612   5.066   5.762  15.506 -0.1916 -0.1099  0.6597
 2374TIP3    H128613   5.087   5.823  15.435  0.1676  0.3373  1.1402
 2374TIP3    H228614   5.102   5.803  15.584  2.0951 -1.9664  0.6915
 2375TIP3   OH228615   6.611   5.455  13.986 -0.3017 -0.4947  0.6941
 2375TIP3    H128616   6.611   5.543  13.948  1.1148 -0.2191  1.2556
 2375TIP3    H228617   6.577   5.399  13.917  0.7958  0.2055 -0.4511
 2376TIP3   OH228618   6.424   2.074  16.354  0.5062  0.2282 -0.1047
 2376TIP3    H128619   6.369   2.148  16.378 -2.2044 -0.6879 -2.8799
 2376TIP3    H228620   6.394   2.002  16.409 -1.4267 -0.3505 -1.8314
 2377TIP3   OH228621   2.802   4.815  15.000 -0.0002 -0.2399 -0.3844
 2377TIP3    H128622   2.782   4.842  15.090 -2.0080  1.0820 -1.1723
 2377TIP3    H228623   2.868   4.746  15.011 -0.3588 -0.3001  2.1084
 2378TIP3   OH228624   2.476   0.542   1.313 -0.3796  0.4779  0.3354
 2378TIP3    H128625   2.541   0.481   1.278 -1.0721 -0.4865  0.6926
 2378TIP3    H228626   2.518   0.628   1.306  1.0422 -0.1507  0.8496
 2379TIP3   OH228627   2.633   0.889  16.751  0.0605  0.7838 -0.3212
 2379TIP3    H128628   2.653   0.927  16.665 -0.8043 -0.0373 -0.9075
 2379TIP3    H228629   2.667   0.799  16.746  1.6928  1.2866  0.8971
 2380TIP3   OH228630   6.021   4.132   2.891  0.4370  0.1861 -0.4383
 2380TIP3    H128631   5.959   4.130   2.964  0.3458 -0.9015 -0.5174
 2380TIP3    H228632   6.040   4.039   2.874  1.3877  0.4700 -1.0043
 2381TIP3   OH228633   0.441   6.132  12.882 -0.2311  0.0037 -0.4908
 2381TIP3    H128634   0.409   6.181  12.959 -2.0150 -2.9868  0.8336
 2381TIP3    H228635   0.378   6.153  12.813 -0.2371  0.5116 -0.3417
 2382TIP3   OH228636   2.645   4.117  14.801  0.1090 -0.2713 -0.1043
 2382TIP3    H128637   2.693   4.037  14.820 -1.5717 -0.7743  2.4248
 2382TIP3    H228638   2.705   4.187  14.828 -0.3354 -0.8795  2.7413
 2383TIP3   OH228639   3.913   1.745  13.801 -0.3569  0.0880 -0.2708
 2383TIP3    H128640   4.008   1.752  13.809 -0.1254 -2.2821 -0.1773
 2383TIP3    H228641   3.890   1.810  13.735  1.1503  1.5616  0.5794
 2384TIP3   OH228642   2.523   0.407  13.091 -0.4314  0.1984  0.1541
 2384TIP3    H128643   2.486   0.462  13.021  2.6946  1.7184 -0.4822
 2384TIP3    H228644   2.540   0.323  13.048 -1.1374  0.1785 -0.1062
 2385TIP3   OH228645   0.384   2.861  11.875 -0.7049  0.0235  0.1673
 2385TIP3    H128646   0.462   2.821  11.837 -0.6038  0.5288 -0.1670
 2385TIP3    H228647   0.394   2.955  11.857 -1.5781  0.0505 -0.2350
 2386TIP3   OH228648   1.447   5.958   1.288  0.2142 -0.3260  0.5037
 2386TIP3    H128649   1.531   5.914   1.300  1.1608  0.6728 -1.9229
 2386TIP3    H228650   1.451   6.034   1.347  1.9423  0.8380 -0.9762
 2387TIP3   OH228651   4.870   1.252   1.159  0.2853  0.1627 -0.4903
 2387TIP3    H128652   4.892   1.177   1.105  1.9727  0.1629  0.1151
 2387TIP3    H228653   4.912   1.326   1.115  0.0323  0.4689 -0.2210
 2388TIP3   OH228654   1.427   2.844  12.542  0.0618 -0.2284 -0.0405
 2388TIP3    H128655   1.391   2.865  12.628 -1.0966  1.0282 -0.7947
 2388TIP3    H228656   1.421   2.926  12.493 -0.4287 -1.2213 -1.7108
 2389TIP3   OH228657   0.935   0.777  15.462  0.1693  0.0505 -0.7808
 2389TIP3    H128658   0.864   0.786  15.399 -1.6816  3.5385  1.4566
 2389TIP3    H228659   1.002   0.838  15.432  0.6779 -0.5973 -0.9881
 2390TIP3   OH228660   1.148   0.697  16.548 -0.1112 -0.6581 -0.1294
 2390TIP3    H128661   1.059   0.668  16.530 -0.2847  0.3120 -0.8542
 2390TIP3    H228662   1.159   0.683  16.642 -0.6492 -1.7792 -0.2139
 2391TIP3   OH228663   0.812   5.839  13.964 -0.3757 -0.4255  0.7116
 2391TIP3    H128664   0.732   5.880  13.997  0.4588  0.4222  1.7552
 2391TIP3    H228665   0.882   5.900  13.987  0.5025 -0.7669 -0.9003
 2392TIP3   OH228666   5.220   6.746   4.824 -0.3149  0.3621 -0.4301
 2392TIP3    H128667   5.133   6.786   4.822 -0.7435 -0.5713 -1.1292
 2392TIP3    H228668   5.229   6.711   4.913 -1.6018 -1.5106 -0.9837
 2393TIP3   OH228669   2.060   3.587  14.120 -0.2683  0.3380 -0.0346
 2393TIP3    H128670   2.003   3.554  14.050  1.6954 -1.6777 -0.7830
 2393TIP3    H228671   2.026   3.545  14.199  0.1341 -0.8520 -0.4703
 2394TIP3   OH228672   1.359   4.864  14.080  0.1638 -0.2395 -0.4888
 2394TIP3    H128673   1.330   4.852  13.990  1.8610 -3.4008 -0.7566
 2394TIP3    H228674   1.433   4.924  14.074  1.7923 -2.2331 -1.6413
 2395TIP3   OH228675   4.688   2.886  10.770  0.1757 -0.3419 -0.6513
 2395TIP3    H128676   4.658   2.912  10.857  1.0865  0.2683 -0.5039
 2395TIP3    H228677   4.635   2.809  10.748  0.0695 -0.6187  0.5199
 2396TIP3   OH228678   2.370   1.959   1.431 -0.5268  0.0468  0.2726
 2396TIP3    H128679   2.412   2.032   1.385 -0.5272  0.6799  1.2492
 2396TIP3    H228680   2.279   1.962   1.402 -0.8951  1.4169  1.4436
 2397TIP3   OH228681   0.066   0.618  16.574  0.2094 -0.3837 -0.5236
 2397TIP3    H128682   0.085   0.691  16.634  1.3072 -0.3756 -0.8648
 2397TIP3    H228683   0.048   0.660  16.490 -2.3586 -0.3240 -0.0299
 2398TIP3   OH228684   0.783   1.763  14.267  0.1271 -0.1939 -0.4724
 2398TIP3    H128685   0.783   1.847  14.313 -0.4173  0.1015 -1.0019
 2398TIP3    H228686   0.843   1.708  14.317  0.6964  0.5981 -0.2807
 2399TIP3   OH228687   1.349   0.966  14.927  0.2423  0.1431 -0.4374
 2399TIP3    H128688   1.399   0.972  14.846 -0.0369 -1.4046 -0.7416
 2399TIP3    H228689   1.295   1.045  14.928  0.4282  0.2944 -1.6128
 2400TIP3   OH228690   0.729   4.801   4.558  0.1136  0.2512 -0.3387
 2400TIP3    H128691   0.693   4.728   4.610  0.3413  0.0104 -0.5172
 2400TIP3    H228692   0.725   4.770   4.468 -0.9497  0.9583 -0.5397
 2401TIP3   OH228693   0.616   3.031  12.725 -0.0064 -0.2116 -0.4248
 2401TIP3    H128694   0.640   3.040  12.633  0.8633  0.0836 -0.1794
 2401TIP3    H228695   0.544   3.092  12.737  0.5114  0.4651 -0.6880
 2402TIP3   OH228696   6.352   0.700   2.954 -0.4127 -0.1664 -0.9069
 2402TIP3    H128697   6.349   0.749   3.036  2.5929 -0.0018 -0.7964
 2402TIP3    H228698   6.262   0.702   2.922 -1.1066  2.3215  0.8787
 2403TIP3   OH228699   5.931   2.971   1.877 -0.0351 -0.2464 -0.7076
 2403TIP3    H128700   5.973   3.053   1.902  0.3782 -0.7912  0.4675
 2403TIP3    H228701   6.000   2.905   1.885 -0.4019 -0.7404 -1.4870
 2404TIP3   OH228702   5.914   4.094  12.515 -0.2293 -0.5981  0.6579
 2404TIP3    H128703   5.997   4.048  12.500 -0.0035 -0.3939  1.2933
 2404TIP3    H228704   5.862   4.073  12.437  0.0749 -1.4826  0.6753
 2405TIP3   OH228705   6.113   2.726  10.489  0.1930  0.1934  0.4202
 2405TIP3    H128706   6.164   2.787  10.435  0.3281  0.8665  1.2798
 2405TIP3    H228707   6.178   2.679  10.540  0.0655 -0.4383  0.0033
 2406TIP3   OH228708   0.354   3.014   1.952  0.6254  0.4855 -0.0337
 2406TIP3    H128709   0.339   3.085   1.890  1.0114  0.4241 -0.2032
 2406TIP3    H228710   0.309   3.041   2.032  0.3158  0.6695 -0.2698
 2407TIP3   OH228711   6.160   4.631  11.547 -0.2554  0.1790  0.2711
 2407TIP3    H128712   6.184   4.634  11.640  1.1224  1.7108 -0.0799
 2407TIP3    H228713   6.067   4.610  11.547 -0.2787  0.1209  1.9948
 2408TIP3   OH228714   2.259   5.390  14.594  0.6400 -0.0263 -0.4445
 2408TIP3    H128715   2.249   5.348  14.680  1.1871  0.9566  0.1127
 2408TIP3    H228716   2.290   5.319  14.537  2.5942 -0.1887  0.7175
 2409TIP3   OH228717   1.541   6.515   3.906 -0.1451 -0.0319  0.5446
 2409TIP3    H128718   1.571   6.606   3.909  1.3788 -0.3349 -2.1958
 2409TIP3    H228719   1.613   6.464   3.942  0.0130 -0.3073 -0.1443
 2410TIP3   OH228720   6.694   3.985   2.187 -0.1830  0.2828  0.5624
 2410TIP3    H128721   6.771   4.031   2.221  1.0426 -0.0247 -1.6031
 2410TIP3    H228722   6.658   4.044   2.121  1.4733 -1.7433 -2.3435
 2411TIP3   OH228723   1.789   6.116  14.533 -0.1495 -0.4998 -0.0872
 2411TIP3    H128724   1.743   6.032  14.533 -0.4024 -0.3643 -0.3308
 2411TIP3    H228725   1.722   6.180  14.559  0.2928 -0.5034  1.1262
 2412TIP3   OH228726   2.106   0.035  13.733 -0.2522  0.4818 -0.0550
 2412TIP3    H128727   2.048   0.109  13.746 -0.7845  0.3285 -1.3733
 2412TIP3    H228728   2.071  -0.010  13.656 -0.2872 -1.4672  1.0183
 2413TIP3   OH228729   5.985   5.713  13.481  0.1532  0.8621 -0.1724
 2413TIP3    H128730   6.004   5.708  13.388 -0.4968  0.9723 -0.3170
 2413TIP3    H228731   6.071   5.709  13.524  0.3746 -1.0509 -0.6905
 2414TIP3   OH228732   4.762   6.690   4.712  0.4367  0.2739 -0.1751
 2414TIP3    H128733   4.845   6.688   4.759  1.0623  0.4761 -1.2547
 2414TIP3    H228734   4.696   6.691   4.782  1.1481 -3.9108  0.8628
 2415TIP3   OH228735   1.822   1.438  15.337 -0.0603  0.1937  0.6283
 2415TIP3    H128736   1.743   1.390  15.363  0.2304 -0.6851 -0.0434
 2415TIP3    H228737   1.799   1.480  15.254  0.7675 -1.8232 -0.7338
 2416TIP3   OH228738   5.396   0.727   0.803  0.1383  0.0106 -0.2542
 2416TIP3    H128739   5.452   0.710   0.879 -0.0651  0.4824  0.0046
 2416TIP3    H228740   5.319   0.771   0.839 -0.5375 -0.9000 -0.5704
 2417TIP3   OH228741   6.514   0.045  12.877  0.3723  0.3522  0.0018
 2417TIP3    H128742   6.513   0.102  12.954 -0.1184  1.5762 -0.8654
 2417TIP3    H228743   6.459  -0.029  12.901  2.9050 -1.0207  2.0161
 2418TIP3   OH228744   0.775   2.401  12.127 -0.8912 -0.1709 -0.4074
 2418TIP3    H128745   0.824   2.340  12.181 -1.3548  0.7400  1.0982
 2418TIP3    H228746   0.842   2.456  12.087 -0.5318 -0.9873 -0.9581
 2419TIP3   OH228747   3.155   6.511   3.596  0.1304 -0.2536 -0.0529
 2419TIP3    H128748   3.118   6.534   3.681  1.3511 -1.1080  0.7422
 2419TIP3    H228749   3.092   6.451   3.557  0.8047 -2.0261  1.4571
 2420TIP3   OH228750   3.542   4.510  12.689  0.5698 -0.0101  0.0871
 2420TIP3    H128751   3.506   4.422  12.703 -0.9007  0.4286 -0.6759
 2420TIP3    H228752   3.613   4.517  12.752 -0.8508 -0.8590  1.8980
 2421TIP3   OH228753   1.369   5.244   2.892  0.1769  0.1385  0.3597
 2421TIP3    H128754   1.305   5.187   2.849 -0.7157  1.6085 -0.3428
 2421TIP3    H228755   1.392   5.198   2.972 -1.5343 -0.5784  0.4788
 2422TIP3   OH228756   5.843   5.491   0.634  0.1316 -0.0450  0.6106
 2422TIP3    H128757   5.822   5.554   0.566  1.5809 -0.8208 -0.6178
 2422TIP3    H228758   5.915   5.532   0.683 -0.7413  0.4034  1.5492
 2423TIP3   OH228759   2.351   1.572   1.930  0.0972  0.7144  0.3476
 2423TIP3    H128760   2.295   1.640   1.967 -0.5404  0.3887 -0.0078
 2423TIP3    H228761   2.291   1.503   1.904  0.7920 -0.2293  1.2033
 2424TIP3   OH228762   6.218   2.654   3.235 -0.0114 -0.1521 -0.2367
 2424TIP3    H128763   6.234   2.745   3.257  0.3461 -0.7362  2.2139
 2424TIP3    H228764   6.239   2.648   3.142  3.2472  1.5771  0.2387
 2425TIP3   OH228765   0.629   2.030   0.644 -0.1776 -0.1469 -0.1447
 2425TIP3    H128766   0.560   2.081   0.687 -0.8170  0.3500 -1.6865
 2425TIP3    H228767   0.697   2.094   0.624 -0.5757 -0.0330 -1.2417
 2426TIP3   OH228768   2.035   6.809  15.513 -0.1356 -0.1164  0.6607
 2426TIP3    H128769   2.028   6.891  15.561 -1.8492 -0.0381  0.3539
 2426TIP3    H228770   2.014   6.741  15.578  1.4293 -0.3616  0.9532
 2427TIP3   OH228771   3.945   1.120   5.156  0.1673 -0.2403  0.0296
 2427TIP3    H128772   3.939   1.135   5.250  1.5496 -2.1572  0.5017
 2427TIP3    H228773   4.022   1.170   5.129 -1.0644  1.4900 -0.4169
 2428TIP3   OH228774   1.356   4.127  16.954  0.2015 -0.3859 -0.0784
 2428TIP3    H128775   1.355   4.183  16.876  0.4277 -1.1911 -0.6656
 2428TIP3    H228776   1.417   4.057  16.934  1.2570  0.0815  1.3345
 2429TIP3   OH228777   4.939   0.373   5.463 -0.2233  0.0264 -0.3096
 2429TIP3    H128778   4.858   0.382   5.513 -1.3547 -1.5561 -1.7310
 2429TIP3    H228779   4.967   0.463   5.446 -1.1475  0.6023  1.0230
 2430TIP3   OH228780   3.003   4.897   3.347  0.1964  0.1140 -0.4008
 2430TIP3    H128781   2.941   4.824   3.342  0.1642  0.2118 -1.7048
 2430TIP3    H228782   3.027   4.901   3.440 -2.0297  0.3233  0.2365
 2431TIP3   OH228783   3.098   1.988   0.267  0.3012  0.1231  0.3111
 2431TIP3    H128784   3.174   2.021   0.314  0.6636 -0.0890 -0.1111
 2431TIP3    H228785   3.130   1.974   0.178 -0.5565  1.1993 -0.1856
 2432TIP3   OH228786   5.922   6.763  13.012  0.0333 -0.1574 -0.7427
 2432TIP3    H128787   5.998   6.748  13.069  0.7734  0.0482 -1.6478
 2432TIP3    H228788   5.957   6.757  12.923 -0.5432  2.0969 -1.2033
 2433TIP3   OH228789   5.676   5.842   3.110  0.1548 -0.2214 -0.4944
 2433TIP3    H128790   5.721   5.866   3.191 -0.7688  0.7383 -0.2461
 2433TIP3    H228791   5.637   5.756   3.129  0.9888 -0.5776 -0.3611
 2434TIP3   OH228792   2.603   2.616  10.549 -0.6191 -0.4264 -0.2419
 2434TIP3    H128793   2.608   2.689  10.487 -0.1519  0.0421  0.3414
 2434TIP3    H228794   2.614   2.656  10.635 -0.4845 -1.1686  0.0928
 2435TIP3   OH228795   3.054   1.723   4.971  0.0171  0.5575  0.1763
 2435TIP3    H128796   2.965   1.736   5.002 -0.0117 -1.1052  0.8800
 2435TIP3    H228797   3.078   1.635   5.000  2.1068  1.1796  0.5339
 2436TIP3   OH228798   2.036   2.077  10.994 -0.6547  0.5771 -0.2722
 2436TIP3    H128799   2.075   2.130  10.925  0.8023 -0.2623 -0.1431
 2436TIP3    H228800   2.110   2.046  11.046 -1.4826 -1.0043  0.0551
 2437TIP3   OH228801   0.129   3.703  12.787  0.1333  0.5394 -0.0424
 2437TIP3    H128802   0.165   3.731  12.871 -0.2794 -0.4017  0.4547
 2437TIP3    H228803   0.100   3.785  12.746 -0.8156  0.8973  1.2769
 2438TIP3   OH228804   0.293   3.729  15.308 -0.1347 -1.0485  0.3957
 2438TIP3    H128805   0.369   3.783  15.288  1.3598 -3.2024 -0.1581
 2438TIP3    H228806   0.219   3.778  15.273  1.2443  0.1878 -0.9442
 2439TIP3   OH228807   6.159   1.666   2.767 -0.1061  0.2003  0.1030
 2439TIP3    H128808   6.101   1.591   2.781 -0.1063  0.4753  1.7431
 2439TIP3    H228809   6.148   1.688   2.675 -2.4039  0.0770  0.3044
 2440TIP3   OH228810   2.957   3.256   1.856 -0.1906  0.4775 -0.0082
 2440TIP3    H128811   2.889   3.323   1.864 -1.4485 -0.4724 -1.9173
 2440TIP3    H228812   2.968   3.246   1.761  0.0714 -1.8708  0.2241
 2441TIP3   OH228813   1.841   2.281   4.084 -0.3452 -0.4716  0.4662
 2441TIP3    H128814   1.750   2.309   4.081 -0.4511 -0.7650  0.8247
 2441TIP3    H228815   1.881   2.318   4.005 -0.4422  0.7821  0.9821
 2442TIP3   OH228816   1.401   1.241   1.278 -0.1954  0.5022 -0.0358
 2442TIP3    H128817   1.347   1.173   1.317 -2.8404  2.6258  0.3389
 2442TIP3    H228818   1.373   1.243   1.186 -0.4162  1.2564  0.0360
 2443TIP3   OH228819   6.616   0.414  16.478 -0.0401 -0.1873 -0.2374
 2443TIP3    H128820   6.656   0.456  16.401 -0.4747 -1.9052 -1.4475
 2443TIP3    H228821   6.648   0.466  16.552  1.0018  1.0691 -1.5044
 2444TIP3   OH228822   2.107   6.775  11.878 -0.6314  0.0138 -0.5734
 2444TIP3    H128823   2.109   6.838  11.951  0.8023  0.0652 -0.6152
 2444TIP3    H228824   2.178   6.804  11.821 -1.2865 -0.4528 -1.6454
 2445TIP3   OH228825   1.281   3.560   5.636  0.0207 -0.2571  0.3030
 2445TIP3    H128826   1.234   3.476   5.642  0.3560 -0.4057  0.8716
 2445TIP3    H228827   1.349   3.544   5.570  0.2005 -0.4891  0.5434
 2446TIP3   OH228828   2.612   1.489   0.584  0.1583 -0.3003 -0.2369
 2446TIP3    H128829   2.682   1.552   0.600  0.5955 -1.2274  1.8017
 2446TIP3    H228830   2.646   1.406   0.618 -1.3914 -1.0795 -0.4920
 2447TIP3   OH228831   6.415   5.621   0.947  0.0665  0.3275  0.2707
 2447TIP3    H128832   6.322   5.639   0.962 -0.0434  0.2507 -0.2986
 2447TIP3    H228833   6.430   5.646   0.856  0.7517  0.9262  0.5356
 2448TIP3   OH228834   4.183   2.456   1.115 -0.6157  0.0305 -0.0625
 2448TIP3    H128835   4.163   2.458   1.022  0.9745 -0.8919 -0.4721
 2448TIP3    H228836   4.259   2.398   1.122 -1.6234 -1.1777  1.9917
 2449TIP3   OH228837   5.980   0.260   1.875 -0.2131 -0.5995 -0.3357
 2449TIP3    H128838   5.983   0.165   1.867 -3.1887 -0.7507 -0.8176
 2449TIP3    H228839   5.947   0.275   1.964  0.8368  0.0332 -0.0382
 2450TIP3   OH228840   0.555   0.737  10.918 -0.0396  0.0373 -0.4548
 2450TIP3    H128841   0.619   0.767  10.854  0.3114  2.6628  0.9743
 2450TIP3    H228842   0.519   0.817  10.955 -1.7079 -1.3777  1.1975
 2451TIP3   OH228843   1.084   5.538   3.268 -0.1697 -0.2038  0.3513
 2451TIP3    H128844   1.055   5.505   3.183 -0.6268  0.3878  0.2720
 2451TIP3    H228845   1.005   5.571   3.310  0.1037 -0.2028  0.8783
 2452TIP3   OH228846   5.528   4.080  11.837  0.6905  0.0659  0.1813
 2452TIP3    H128847   5.520   4.130  11.756  0.3006  0.4602  0.4561
 2452TIP3    H228848   5.478   4.001  11.821  1.7344 -0.4932 -0.4420
 2453TIP3   OH228849   6.213   6.608  15.280  0.6507 -0.3662 -0.4639
 2453TIP3    H128850   6.168   6.569  15.205  1.9117 -3.5098  0.2711
 2453TIP3    H228851   6.304   6.579  15.272  1.4006  1.3788  0.9413
 2454TIP3   OH228852   3.624   2.634   6.457 -0.5647 -0.3660  0.2696
 2454TIP3    H128853   3.540   2.598   6.429 -0.2263  0.3074 -1.8675
 2454TIP3    H228854   3.686   2.605   6.390  0.2729  1.6735  0.0689
 2455TIP3   OH228855   0.930   3.346  10.272  0.1686 -0.5748 -0.5874
 2455TIP3    H128856   0.836   3.363  10.270  0.3815  0.9631  0.6577
 2455TIP3    H228857   0.937   3.253  10.296 -1.0208 -0.6843 -0.5889
 2456TIP3   OH228858   0.845   1.144  12.274 -0.0061  0.8438 -0.6183
 2456TIP3    H128859   0.765   1.097  12.253  1.5814 -1.6040 -1.6077
 2456TIP3    H228860   0.872   1.185  12.192 -0.0820  1.4171 -0.3614
 2457TIP3   OH228861   1.154   5.020   0.530 -0.0617 -0.0190 -0.0546
 2457TIP3    H128862   1.229   5.077   0.550  0.4217 -0.9955  1.0449
 2457TIP3    H228863   1.179   4.973   0.451  0.5771 -0.4585  0.3987
 2458TIP3   OH228864   1.781   1.417   5.886 -0.1682 -0.2987  0.0224
 2458TIP3    H128865   1.820   1.366   5.815 -2.3518 -1.2682 -0.5613
 2458TIP3    H228866   1.807   1.371   5.966  0.4503 -0.4888 -0.2808
 2459TIP3   OH228867   4.614   4.176   2.599 -0.1942 -0.6211 -0.1750
 2459TIP3    H128868   4.670   4.203   2.527  0.5595 -0.4895  0.4489
 2459TIP3    H228869   4.672   4.174   2.675 -1.0034 -0.6210  0.4541
 2460TIP3   OH228870   2.705   0.670   4.814 -0.0965 -0.1915 -0.2195
 2460TIP3    H128871   2.757   0.621   4.750  2.4547 -0.0201  1.6065
 2460TIP3    H228872   2.703   0.759   4.780  1.5415 -0.0243  0.0399
 2461TIP3   OH228873   4.069   1.301  16.754  0.4030  0.2645 -0.1402
 2461TIP3    H128874   4.025   1.309  16.839 -0.9318 -3.9863 -0.1663
 2461TIP3    H228875   4.001   1.323  16.690  0.1926 -0.1953 -0.0860
 2462TIP3   OH228876   2.901   4.809   1.299 -0.7541 -0.9217  0.2330
 2462TIP3    H128877   2.821   4.762   1.275 -2.5794  2.3421 -0.6762
 2462TIP3    H228878   2.946   4.823   1.216  0.3951 -2.0189  0.6428
 2463TIP3   OH228879   4.519   0.885   5.512  0.6061 -1.0081  0.2546
 2463TIP3    H128880   4.445   0.859   5.459 -0.0398  0.1940  0.5377
 2463TIP3    H228881   4.565   0.803   5.531 -0.5993 -1.7575  0.0212
 2464TIP3   OH228882   0.574   3.179   3.873  0.2135 -0.1222  0.4094
 2464TIP3    H128883   0.576   3.205   3.781  1.0179  0.6900  0.6449
 2464TIP3    H228884   0.542   3.256   3.919 -1.2684 -0.8774  0.7171
 2465TIP3   OH228885   5.649   5.684   1.192 -0.1230 -0.3017 -0.2982
 2465TIP3    H128886   5.684   5.602   1.155  1.6350 -0.3999  1.3925
 2465TIP3    H228887   5.687   5.687   1.280  1.1290  3.0883 -0.8236
 2466TIP3   OH228888   3.550   5.283   3.820 -0.6081 -0.1501  0.9943
 2466TIP3    H128889   3.624   5.315   3.872 -0.4256  0.6967  0.2324
 2466TIP3    H228890   3.527   5.199   3.861 -0.1517  0.2495  2.1197
 2467TIP3   OH228891   5.731   1.183  14.495 -0.3531  0.1591  0.2993
 2467TIP3    H128892   5.798   1.122  14.463 -0.0835  1.0408 -0.8920
 2467TIP3    H228893   5.705   1.148  14.579  1.1671 -0.5646  0.5021
 2468TIP3   OH228894   2.891   1.406  16.822  0.1496 -0.4812  0.2276
 2468TIP3    H128895   2.926   1.368  16.902 -1.2258 -1.2012  0.5240
 2468TIP3    H228896   2.922   1.349  16.752  0.0665 -0.7618  0.4180
 2469TIP3   OH228897   6.405   6.777   0.088  0.1972  0.0878  0.0141
 2469TIP3    H128898   6.480   6.814   0.134  0.0721 -0.4943  0.6863
 2469TIP3    H228899   6.431   6.778  -0.004  0.5919  0.9064  0.1199
 2470TIP3   OH228900   1.009   6.583   0.088  0.3759  0.5826 -0.2951
 2470TIP3    H128901   0.923   6.596   0.128 -0.2448  1.8094 -1.9248
 2470TIP3    H228902   1.043   6.504   0.130 -1.7169 -0.1578  0.1147
 2471TIP3   OH228903   5.397   3.181   5.096 -0.2274 -0.3941 -0.6458
 2471TIP3    H128904   5.396   3.277   5.095 -1.0605 -0.4034 -1.3105
 2471TIP3    H228905   5.315   3.156   5.137 -0.2458 -0.8292 -0.9434
 2472TIP3   OH228906   1.570   6.465   4.398  0.1778  0.0850  0.9264
 2472TIP3    H128907   1.520   6.423   4.468 -2.1572  1.4553  0.2279
 2472TIP3    H228908   1.522   6.444   4.318  0.8688  1.2315  0.1725
 2473TIP3   OH228909   1.810   1.923   5.354 -0.1476  0.1211 -0.1379
 2473TIP3    H128910   1.732   1.927   5.297 -1.1355 -1.3667  1.0347
 2473TIP3    H228911   1.862   1.851   5.318  0.4230  0.7470 -0.5808
 2474TIP3   OH228912   1.911   6.336  12.804 -0.3782  0.6013 -0.4393
 2474TIP3    H128913   1.902   6.250  12.843 -0.8903  1.8304  2.3665
 2474TIP3    H228914   1.857   6.332  12.725 -1.2279 -1.3205  0.1852
 2475TIP3   OH228915   4.062   0.508   5.740  0.1998  0.0687 -0.0052
 2475TIP3    H128916   4.003   0.570   5.698 -1.3358 -0.5748  1.1279
 2475TIP3    H228917   4.143   0.515   5.690 -0.9147  0.7559 -1.7991
 2476TIP3   OH228918   6.453   0.458  13.398 -0.3840  0.5290 -0.5352
 2476TIP3    H128919   6.434   0.540  13.444 -2.4734  0.3448 -0.9505
 2476TIP3    H228920   6.369   0.411  13.398  0.8786 -1.8682  0.1748
 2477TIP3   OH228921   2.734   3.223   4.479 -0.1209  0.2002  0.0860
 2477TIP3    H128922   2.791   3.168   4.425 -1.5716 -0.7863 -0.4807
 2477TIP3    H228923   2.788   3.245   4.555  1.1858 -0.2616 -0.6761
 2478TIP3   OH228924   1.818   3.188   2.984  0.3183 -0.0382 -0.3215
 2478TIP3    H128925   1.753   3.139   3.034  0.1527 -0.3438 -0.8231
 2478TIP3    H228926   1.888   3.208   3.047  1.1010 -2.2133 -0.4208
 2479TIP3   OH228927   2.082   5.203  10.540 -0.3246 -0.2120 -0.0035
 2479TIP3    H128928   2.036   5.141  10.596  0.5420 -0.2513  0.6918
 2479TIP3    H228929   2.131   5.148  10.479 -0.5417 -0.1842 -0.2043
 2480TIP3   OH228930   2.781   5.987   0.806  0.0169 -0.0044  0.7195
 2480TIP3    H128931   2.691   5.967   0.781 -0.5671 -0.3111  2.8497
 2480TIP3    H228932   2.834   5.951   0.735 -1.5548  1.7839 -1.5264
 2481TIP3   OH228933   3.450   5.476  14.466  0.1585 -0.3856  0.0286
 2481TIP3    H128934   3.374   5.498  14.411  0.3528  0.3575  0.0457
 2481TIP3    H228935   3.461   5.553  14.522  1.3095 -0.2338 -0.3973
 2482TIP3   OH228936   6.202   3.472  15.755  0.2644  0.2479  0.2628
 2482TIP3    H128937   6.119   3.448  15.715  1.9034 -3.2811 -1.4557
 2482TIP3    H228938   6.219   3.403  15.819  2.0107  0.7469  0.3941
 2483TIP3   OH228939   2.154   4.611  11.819 -0.3679  0.1566  0.5514
 2483TIP3    H128940   2.165   4.571  11.905 -0.3394  0.0226  0.4855
 2483TIP3    H228941   2.227   4.673  11.811  0.8361 -1.3034 -0.2145
 2484TIP3   OH228942   6.211   6.233   1.195 -0.2447  0.2386  0.1736
 2484TIP3    H128943   6.261   6.151   1.186 -1.5785 -0.9590  2.6005
 2484TIP3    H228944   6.268   6.290   1.246  0.6885  0.9185 -1.5231
 2485TIP3   OH228945   5.544   4.701  11.472  0.2680  0.9535  0.1413
 2485TIP3    H128946   5.584   4.671  11.553 -1.1333 -1.3054  0.0786
 2485TIP3    H228947   5.450   4.695  11.487 -0.0846  3.2577 -0.7245
 2486TIP3   OH228948   1.622   3.302   2.054 -0.1933  0.4385 -0.3832
 2486TIP3    H128949   1.544   3.348   2.083  1.0824  3.2364 -1.0790
 2486TIP3    H228950   1.607   3.285   1.961 -0.7286 -0.8206 -0.0945
 2487TIP3   OH228951   6.203   1.049   3.087  0.5794 -0.7226 -0.3061
 2487TIP3    H128952   6.248   1.079   3.166  0.4698  0.6128 -0.7198
 2487TIP3    H228953   6.188   0.955   3.101  2.3537 -0.9388  0.3744
 2488TIP3   OH228954   6.462   2.635  11.472  0.1014  0.1145 -0.3198
 2488TIP3    H128955   6.416   2.717  11.493  0.2813  0.4282 -1.1205
 2488TIP3    H228956   6.548   2.664  11.442  0.2773 -0.3948 -0.3118
 2489TIP3   OH228957   0.911   2.465   3.003  0.1491 -0.3204  1.0083
 2489TIP3    H128958   0.861   2.387   3.023 -0.4221 -0.2134  0.0628
 2489TIP3    H228959   0.847   2.536   3.003 -0.2637 -0.4912 -2.4499
 2490TIP3   OH228960   2.231   4.593  17.123  0.4321  0.2413  0.8332
 2490TIP3    H128961   2.233   4.626  17.213 -1.2053 -1.1507  1.4229
 2490TIP3    H228962   2.233   4.498  17.132 -0.2548  0.0725 -0.5790
 2491TIP3   OH228963   5.690   4.811   1.685 -0.0014  0.0844 -0.0907
 2491TIP3    H128964   5.718   4.726   1.649  1.2113  0.6211 -0.4686
 2491TIP3    H228965   5.771   4.851   1.716 -0.5589  1.1257  0.0460
 2492TIP3   OH228966   3.639   2.575  15.006 -0.0387 -0.4123  0.3493
 2492TIP3    H128967   3.589   2.597  15.084 -1.2021 -0.3680 -0.3914
 2492TIP3    H228968   3.646   2.657  14.957 -2.6192 -1.1102 -1.4118
 2493TIP3   OH228969   1.512   0.578   0.979 -0.3387 -0.4267 -0.9980
 2493TIP3    H128970   1.541   0.633   0.906 -0.9746  0.9024 -0.2887
 2493TIP3    H228971   1.417   0.587   0.979 -0.2755  0.6812  0.7812
 2494TIP3   OH228972   3.856   0.861   5.263 -0.2106  0.0593 -0.2084
 2494TIP3    H128973   3.905   0.923   5.210 -1.8863  0.4158 -1.4117
 2494TIP3    H228974   3.884   0.775   5.231  1.6205  0.1466  1.0115
 2495TIP3   OH228975   1.953   4.031   6.799  0.4741 -0.1103 -0.6748
 2495TIP3    H128976   2.043   4.031   6.832  0.4109 -0.3575 -0.5038
 2495TIP3    H228977   1.913   4.108   6.840  0.0406 -1.0852  0.7959
 2496TIP3   OH228978   4.482   0.695  14.391 -0.5624  0.6897 -0.4547
 2496TIP3    H128979   4.408   0.749  14.363 -0.6903 -0.3691 -2.2894
 2496TIP3    H228980   4.477   0.617  14.336 -1.6855 -2.3416  3.5006
 2497TIP3   OH228981   4.002   0.192  11.512  0.3526  0.0408  0.3715
 2497TIP3    H128982   3.923   0.177  11.461  0.4300  0.3735  0.1529
 2497TIP3    H228983   4.042   0.269  11.473  0.0855  0.6764  1.3288
 2498TIP3   OH228984   1.984   1.154   2.307 -0.3045 -0.1515 -1.1748
 2498TIP3    H128985   2.033   1.169   2.388 -2.0601  1.7929 -0.3894
 2498TIP3    H228986   1.983   1.239   2.263 -3.4036  0.0597 -0.8585
 2499TIP3   OH228987   5.806   3.946   0.610 -0.1104 -0.1883 -0.1491
 2499TIP3    H128988   5.845   3.979   0.690  1.0260 -0.6918 -0.4735
 2499TIP3    H228989   5.729   3.896   0.639  0.7695 -1.0881  0.7026
 2500TIP3   OH228990   5.350   2.622  13.765  0.0061 -0.1500  0.2626
 2500TIP3    H128991   5.336   2.684  13.692 -1.1296 -1.3106 -0.5594
 2500TIP3    H228992   5.367   2.538  13.722  0.3711 -0.6500  1.3579
 2501TIP3   OH228993   5.547   2.623  14.286  0.2035  0.8335 -0.0614
 2501TIP3    H128994   5.486   2.656  14.221 -1.5921  1.0818  1.6701
 2501TIP3    H228995   5.498   2.623  14.368  2.0564 -0.4127  1.1352
 2502TIP3   OH228996   3.006   1.758  13.599 -0.2344  0.1353  0.3322
 2502TIP3    H128997   2.946   1.717  13.661  0.1561 -1.8559 -0.5474
 2502TIP3    H228998   2.989   1.714  13.516  3.3836 -1.5762  0.3360
 2503TIP3   OH228999   1.341   0.191   3.324  0.1201  0.2168  0.1433
 2503TIP3    H129000   1.391   0.119   3.363 -1.5842 -0.6222  0.9313
 2503TIP3    H229001   1.362   0.188   3.231  0.8770 -0.6275  0.3281
 2504TIP3   OH229002   5.474   2.907   5.036 -0.2674 -0.0639  0.4820
 2504TIP3    H129003   5.416   2.981   5.054 -0.4651  0.1562 -0.9718
 2504TIP3    H229004   5.540   2.941   4.976 -0.9966 -1.3129 -1.1003
 2505TIP3   OH229005   0.163   5.488  11.338 -0.1459 -0.1955 -0.3667
 2505TIP3    H129006   0.207   5.518  11.259 -2.0862  0.6531 -1.1633
 2505TIP3    H229007   0.227   5.430  11.380  1.2670  0.0626 -2.0557
 2506TIP3   OH229008   5.731   3.594   4.268  0.0157  0.0550  0.1575
 2506TIP3    H129009   5.707   3.516   4.219 -0.1643  0.4886 -0.4472
 2506TIP3    H229010   5.808   3.568   4.319  0.4107 -0.3057 -0.6049
 2507TIP3   OH229011   3.700   4.861  15.862 -0.2278  0.5413  0.1387
 2507TIP3    H129012   3.751   4.905  15.794  0.4425  0.3701  0.5188
 2507TIP3    H229013   3.643   4.800  15.814  1.5914 -0.9862 -0.2079
 2508TIP3   OH229014   2.474   2.730  16.726  0.5118  0.1094  0.1774
 2508TIP3    H129015   2.429   2.794  16.670  0.0615 -0.6071 -0.2904
 2508TIP3    H229016   2.534   2.783  16.779  0.4721  0.8692 -0.5208
 2509TIP3   OH229017   4.003   5.160  12.803 -0.6950  0.7993  0.6651
 2509TIP3    H129018   3.926   5.129  12.755 -0.5025  0.9226  0.2663
 2509TIP3    H229019   4.020   5.093  12.869 -0.3073  0.0638 -0.1588
 2510TIP3   OH229020   5.842   3.540   3.096  0.5548 -0.1627  0.1607
 2510TIP3    H129021   5.934   3.567   3.090  0.7888 -0.3450  2.3268
 2510TIP3    H229022   5.819   3.550   3.188 -0.6107 -3.3147  0.3434
 2511TIP3   OH229023   3.467   0.270   5.115  0.3821 -0.4276  0.2908
 2511TIP3    H129024   3.443   0.358   5.145  0.6415 -0.5364  0.8176
 2511TIP3    H229025   3.522   0.235   5.184  1.8382 -0.3025 -0.7445
 2512TIP3   OH229026   2.561   4.275   6.768 -0.0595 -0.6894 -0.7866
 2512TIP3    H129027   2.645   4.317   6.750 -0.7151  1.1681  0.1850
 2512TIP3    H229028   2.496   4.337   6.734 -1.0980 -0.4154  1.5250
 2513TIP3   OH229029   5.497   2.601   5.437 -0.0910  0.2292 -0.3465
 2513TIP3    H129030   5.571   2.629   5.491  0.1255 -0.2518 -0.3841
 2513TIP3    H229031   5.462   2.525   5.484 -0.0085 -0.0853 -0.7961
 2514TIP3   OH229032   3.762   6.596  11.630 -0.6196  0.7132 -0.0071
 2514TIP3    H129033   3.751   6.552  11.546  0.2803 -1.1584  0.7984
 2514TIP3    H229034   3.822   6.669  11.612  0.3641 -0.2717 -0.7932
 2515TIP3   OH229035   0.519   0.384  16.508  0.0907 -0.0659 -0.1184
 2515TIP3    H129036   0.514   0.289  16.517 -0.2190 -0.1234 -0.8071
 2515TIP3    H229037   0.613   0.403  16.504  0.2168 -0.1677  1.5702
 2516TIP3   OH229038   2.804   0.758  11.924 -0.1112  0.2431  0.0810
 2516TIP3    H129039   2.826   0.678  11.972  0.3282  0.2819 -0.0622
 2516TIP3    H229040   2.746   0.806  11.985  0.6746  0.4281  0.7011
 2517TIP3   OH229041   6.269   1.623  15.214  0.6190 -0.8246  0.0913
 2517TIP3    H129042   6.347   1.575  15.243 -0.0761 -1.3889  1.0661
 2517TIP3    H229043   6.195   1.570  15.244 -0.1682 -0.8860 -1.8009
 2518TIP3   OH229044   6.608   2.425  14.405  0.1579 -0.1138 -0.0510
 2518TIP3    H129045   6.550   2.502  14.404 -1.3557 -1.1548  1.7747
 2518TIP3    H229046   6.570   2.366  14.340 -0.7988 -0.7362  1.0433
 2519TIP3   OH229047   2.720   4.865  10.879 -0.5905 -0.5742 -0.4677
 2519TIP3    H129048   2.688   4.881  10.791 -0.1443 -1.5954 -0.8251
 2519TIP3    H229049   2.812   4.891  10.876 -0.6219 -0.4262 -0.2395
 2520TIP3   OH229050   2.500   4.947   3.937 -0.3049  0.2459  0.5909
 2520TIP3    H129051   2.411   4.981   3.928 -1.1576 -1.9400  0.2270
 2520TIP3    H229052   2.524   4.918   3.849  0.5803  0.3305  0.7895
 2521TIP3   OH229053   1.428   6.290   4.536  0.0419 -0.3242 -0.1037
 2521TIP3    H129054   1.473   6.246   4.463 -0.6078 -0.0440 -0.6927
 2521TIP3    H229055   1.351   6.235   4.553  0.0470 -0.2421  0.1909
 2522TIP3   OH229056   4.388   4.214  14.988 -0.0887 -0.6982  0.2058
 2522TIP3    H129057   4.448   4.162  15.042  3.2445  0.2903 -2.1547
 2522TIP3    H229058   4.392   4.172  14.902 -1.5866  0.3598 -0.4099
 2523TIP3   OH229059   5.333   2.067   0.706 -0.3144  0.2190 -0.3379
 2523TIP3    H129060   5.259   2.097   0.758 -1.1885 -0.9307 -0.8672
 2523TIP3    H229061   5.367   2.145   0.663 -1.1482  0.7786  0.0044
 2524TIP3   OH229062   1.482   0.229   0.292 -0.1092 -0.9683  0.2756
 2524TIP3    H129063   1.573   0.205   0.313  0.3385  0.5147  0.1418
 2524TIP3    H229064   1.456   0.288   0.363 -0.6093 -0.5818 -0.2268
 2525TIP3   OH229065   6.000   1.524  15.331  0.1850 -0.4931 -0.3229
 2525TIP3    H129066   5.929   1.545  15.271  0.7454 -0.9355 -1.1575
 2525TIP3    H229067   5.960   1.471  15.399 -0.1615 -1.2859 -1.1333
 2526TIP3   OH229068   3.086   2.355   3.803  0.1948  0.5570  0.4461
 2526TIP3    H129069   3.095   2.260   3.817  1.7129  0.7383  0.8811
 2526TIP3    H229070   3.153   2.394   3.859  0.7214  1.8016 -0.9972
 2527TIP3   OH229071   4.684   1.615   0.728 -0.1439 -0.4281 -0.0343
 2527TIP3    H129072   4.620   1.657   0.671  0.1194  0.1565  0.0904
 2527TIP3    H229073   4.650   1.526   0.742 -0.1706 -0.5982 -1.1478
 2528TIP3   OH229074   0.823   1.079  15.118  0.1062  0.6116 -0.5757
 2528TIP3    H129075   0.916   1.068  15.096  0.3490  2.5471 -0.7116
 2528TIP3    H229076   0.778   1.017  15.061  1.3210 -0.5941 -0.2832
 2529TIP3   OH229077   5.151   4.720   0.337  0.0799  0.0771  0.3743
 2529TIP3    H129078   5.109   4.652   0.285 -0.0042 -1.1799  2.0145
 2529TIP3    H229079   5.093   4.796   0.328 -0.4528 -0.4183 -0.5342
 2530TIP3   OH229080   5.878   5.943   3.328 -0.2911 -0.5200  0.3551
 2530TIP3    H129081   5.919   5.900   3.253 -2.7350 -0.6254 -1.0285
 2530TIP3    H229082   5.951   5.983   3.375  1.4760 -1.5197 -1.3559
 2531TIP3   OH229083   1.288   2.191  12.955 -0.4012  0.5135 -0.4152
 2531TIP3    H129084   1.303   2.106  12.914  0.7379  0.1535  0.6927
 2531TIP3    H229085   1.366   2.243  12.932  1.4441 -0.4261  3.0080
 2532TIP3   OH229086   4.945   0.936  14.674  0.7471  0.6815  0.7669
 2532TIP3    H129087   4.984   0.944  14.587 -1.1929  0.4801 -0.1786
 2532TIP3    H229088   4.851   0.946  14.659  0.1111 -1.7539  2.4817
 2533TIP3   OH229089   6.798   0.568   3.248  0.2064 -0.0688 -0.2042
 2533TIP3    H129090   6.714   0.602   3.280  0.1293 -1.3122  0.9670
 2533TIP3    H229091   6.812   0.487   3.297  1.1131 -0.9538 -1.8432
 2534TIP3   OH229092   1.975   6.058  15.659 -0.3444  0.1182  0.0001
 2534TIP3    H129093   1.971   5.977  15.711  4.2953 -0.5514 -0.2441
 2534TIP3    H229094   1.978   6.028  15.568 -1.7200  0.8817 -0.3376
 2535TIP3   OH229095   1.528   3.355  16.565  0.5237 -0.4049 -1.6821
 2535TIP3    H129096   1.524   3.403  16.648  1.2764  1.2909 -2.5656
 2535TIP3    H229097   1.443   3.311  16.559  0.4805 -0.6135  0.0064
 2536TIP3   OH229098   3.778   3.461   1.469 -0.0191 -0.2296  0.2877
 2536TIP3    H129099   3.712   3.430   1.408 -0.0595 -0.3114  0.3729
 2536TIP3    H229100   3.860   3.422   1.438  0.1000  0.4004 -0.2045
 2537TIP3   OH229101   6.399   5.071  11.724  0.2511  0.0126 -0.0303
 2537TIP3    H129102   6.419   4.993  11.775 -0.1025  0.6227  1.0680
 2537TIP3    H229103   6.485   5.110  11.706  0.6729 -1.8604 -2.7088
 2538TIP3   OH229104   5.916   5.343   2.191  0.0333 -0.1562 -0.2957
 2538TIP3    H129105   5.986   5.392   2.147  1.0037 -0.4361  0.8736
 2538TIP3    H229106   5.866   5.303   2.120  0.3204  1.0441 -1.1995
 2539TIP3   OH229107   0.761   2.517   1.401  0.8502 -0.1943 -0.3553
 2539TIP3    H129108   0.848   2.550   1.422  1.2726 -0.9304 -0.9129
 2539TIP3    H229109   0.753   2.527   1.307  0.4680 -0.4489 -0.3552
 2540TIP3   OH229110   1.351   6.103   0.904 -0.0125  0.0190 -0.1841
 2540TIP3    H129111   1.280   6.154   0.866 -1.9819 -0.7672  2.1838
 2540TIP3    H229112   1.343   6.017   0.864 -1.0085 -0.3283  0.7334
 2541TIP3   OH229113   5.556   4.996   5.658  0.3314 -0.7911  0.2844
 2541TIP3    H129114   5.484   5.004   5.595  1.3810 -0.3109 -0.8837
 2541TIP3    H229115   5.612   4.928   5.621  1.3693  0.0505  0.2798
 2542TIP3   OH229116   6.100   2.511  15.142 -0.0223 -0.4827 -0.4637
 2542TIP3    H129117   6.092   2.562  15.223  0.3590 -1.0690 -0.0497
 2542TIP3    H229118   6.175   2.454  15.157  0.2511 -0.3750 -1.3606
 2543TIP3   OH229119   5.314   3.406  15.189 -0.2355  0.5174  0.0874
 2543TIP3    H129120   5.238   3.350  15.207 -0.6499  0.6286 -1.1949
 2543TIP3    H229121   5.297   3.487  15.237 -0.9698  0.5661 -0.2489
 2544TIP3   OH229122   6.597   3.095   5.791  0.0748  0.3373 -0.1165
 2544TIP3    H129123   6.597   3.009   5.833 -2.6125 -0.9538 -2.3941
 2544TIP3    H229124   6.512   3.133   5.815  0.3868  1.4923 -0.7640
 2545TIP3   OH229125   6.375   1.590  14.828 -1.0834 -0.1597  0.6094
 2545TIP3    H129126   6.462   1.603  14.866 -0.2150 -2.0195 -0.6238
 2545TIP3    H229127   6.389   1.530  14.755 -3.1529  0.8838 -0.7568
 2546TIP3   OH229128   1.979   2.620  10.954 -0.1909  0.2778 -0.8792
 2546TIP3    H129129   1.894   2.629  10.910 -0.5961  0.8736 -0.0072
 2546TIP3    H229130   2.005   2.529  10.936 -0.2490  0.5503 -2.4737
 2547TIP3   OH229131   2.900   3.069   4.290  0.5257 -0.3954 -0.3734
 2547TIP3    H129132   2.890   2.981   4.253 -1.4874  0.2552 -1.5442
 2547TIP3    H229133   2.937   3.120   4.218  0.2825  0.0370 -0.1900
 2548TIP3   OH229134   4.626   4.622   4.090 -0.0224 -0.5579 -0.5351
 2548TIP3    H129135   4.581   4.588   4.012  0.2030  1.9610 -1.8518
 2548TIP3    H229136   4.689   4.685   4.056  1.5160 -0.8397  1.5912
 2549TIP3   OH229137   4.706   2.193   5.912  0.5885  0.2139 -0.3005
 2549TIP3    H129138   4.778   2.159   5.965 -0.2363  0.7899  1.2542
 2549TIP3    H229139   4.683   2.121   5.854  0.5942 -0.9858  1.1262
 2550TIP3   OH229140   0.831   1.278   5.743  0.2209 -0.1359 -0.1573
 2550TIP3    H129141   0.767   1.273   5.814  1.0834  2.1540  0.8746
 2550TIP3    H229142   0.897   1.213   5.764 -0.8410 -1.3174 -0.3239
 2551TIP3   OH229143   4.549   6.669  16.962  0.0984  0.0740 -0.0074
 2551TIP3    H129144   4.479   6.687  17.025  0.9923  0.1706  0.9894
 2551TIP3    H229145   4.624   6.643  17.016  0.4472 -1.3880 -1.1083
 2552TIP3   OH229146   1.062   1.309   4.241  0.1399 -0.2188 -0.4172
 2552TIP3    H129147   1.020   1.389   4.272  0.4775 -0.3173  0.3289
 2552TIP3    H229148   0.995   1.241   4.250 -0.4136  0.1045 -1.8131
 2553TIP3   OH229149   1.432   5.985   0.476  0.1437  0.1399  0.2229
 2553TIP3    H129150   1.386   5.948   0.551  0.7033 -1.1664 -0.0545
 2553TIP3    H229151   1.413   5.925   0.403  1.5634  0.0279 -0.0959
 2554TIP3   OH229152   0.847   6.000   0.023  0.5486 -0.0183  0.2761
 2554TIP3    H129153   0.916   5.985   0.087  0.5288 -0.8321  0.1156
 2554TIP3    H229154   0.774   5.945   0.052 -0.0194  0.7800  0.4081
 2555TIP3   OH229155   4.252   4.653  16.146  0.3147  0.0339 -0.2595
 2555TIP3    H129156   4.226   4.647  16.238 -0.5251  2.3755 -0.2779
 2555TIP3    H229157   4.194   4.591  16.101 -2.9803  2.4878  0.1930
 2556TIP3   OH229158   0.015   6.487  14.213  0.1363 -0.0849 -0.3707
 2556TIP3    H129159  -0.078   6.510  14.223  0.3889  0.6274  0.4782
 2556TIP3    H229160   0.014   6.400  14.175 -0.9013 -0.3885  0.3002
 2557TIP3   OH229161   6.736   4.425  11.809 -0.3013 -0.6865 -0.1653
 2557TIP3    H129162   6.666   4.490  11.820  1.0683  1.1077 -1.4513
 2557TIP3    H229163   6.731   4.371  11.888 -2.0874  0.4076  0.5294
 2558TIP3   OH229164   2.734   6.637  12.425 -0.3042 -0.1135 -0.3263
 2558TIP3    H129165   2.696   6.720  12.456 -0.0488 -0.9186  2.3674
 2558TIP3    H229166   2.667   6.572  12.444  0.3418 -0.8277 -0.4721
 2559TIP3   OH229167   6.674   0.395   1.035 -0.1912  0.0185 -0.1039
 2559TIP3    H129168   6.712   0.444   1.108 -2.3763  1.7194 -0.0040
 2559TIP3    H229169   6.748   0.376   0.978  0.8703  3.3763 -0.0793
 2560TIP3   OH229170   2.109   6.753  16.397  0.1435  0.4105  0.1255
 2560TIP3    H129171   2.167   6.827  16.415  1.7443 -0.1591 -2.2130
 2560TIP3    H229172   2.120   6.736  16.303 -1.9138 -1.3680  0.1251
 2561TIP3   OH229173   5.922   1.984  15.721 -0.2769 -0.3844 -0.1039
 2561TIP3    H129174   5.997   2.021  15.675  0.2240 -0.8012  0.3657
 2561TIP3    H229175   5.959   1.916  15.778 -0.8823  0.0420  0.8411
 2562TIP3   OH229176   2.756   5.241   1.266 -0.4404  0.0584  0.0380
 2562TIP3    H129177   2.687   5.176   1.282  0.7686 -1.3586 -0.2711
 2562TIP3    H229178   2.708   5.322   1.247 -1.9935 -0.5329  1.1818
 2563TIP3   OH229179   3.450   0.456  12.664 -0.1620  0.0611  0.2074
 2563TIP3    H129180   3.544   0.440  12.660  0.0212  1.2850 -1.2334
 2563TIP3    H229181   3.434   0.522  12.596 -1.8648  0.7951  1.2559
 2564TIP3   OH229182   5.177   3.580  15.609  0.0723 -0.3299 -0.2781
 2564TIP3    H129183   5.261   3.548  15.577 -0.3298 -0.2575 -1.4482
 2564TIP3    H229184   5.136   3.621  15.533 -1.4937 -1.3356 -0.0276
 2565TIP3   OH229185   0.025   3.680  10.616  0.3923  0.4417  0.2579
 2565TIP3    H129186   0.010   3.586  10.607  0.6438  0.4112  0.1452
 2565TIP3    H229187  -0.023   3.705  10.695  0.2267  0.2412  0.2195
 2566TIP3   OH229188   3.397   2.913  15.271  0.9710  0.4127  0.0741
 2566TIP3    H129189   3.314   2.870  15.250  0.7546 -0.4164  2.3664
 2566TIP3    H229190   3.376   3.007  15.270  0.1841  0.2455 -0.0489
 2567TIP3   OH229191   0.273   6.782  12.189  0.2475  0.2402 -0.2163
 2567TIP3    H129192   0.276   6.839  12.112 -0.9986  1.2101  0.4146
 2567TIP3    H229193   0.209   6.714  12.167 -0.4734  0.7955  0.1225
 2568TIP3   OH229194   4.192   4.840   4.892  0.2607 -0.3405 -0.4794
 2568TIP3    H129195   4.213   4.774   4.958  1.5157  1.0460  0.5744
 2568TIP3    H229196   4.275   4.860   4.850 -0.5909 -1.6033 -2.9862
 2569TIP3   OH229197   1.859   1.485   6.177  0.0074  0.1434  0.3372
 2569TIP3    H129198   1.769   1.515   6.192  0.0767  0.3279  0.3846
 2569TIP3    H229199   1.853   1.389   6.181  0.0730  0.1808  1.8238
 2570TIP3   OH229200   0.726   6.248   0.393  0.0114 -0.2718  0.1919
 2570TIP3    H129201   0.654   6.294   0.350  0.8068 -1.0198 -2.1020
 2570TIP3    H229202   0.714   6.156   0.369  2.4847 -0.2438 -1.5271
 2571TIP3   OH229203   2.011   3.653   5.760 -0.4288  0.3388  0.6615
 2571TIP3    H129204   1.932   3.655   5.816 -0.1225 -0.2437  1.1239
 2571TIP3    H229205   2.046   3.565   5.772  0.2851  0.5912  0.4382
 2572TIP3   OH229206   2.476   4.580  12.489  0.4335 -0.0692  0.2236
 2572TIP3    H129207   2.437   4.492  12.494 -0.3859  0.0368 -2.6383
 2572TIP3    H229208   2.527   4.588  12.570 -0.4928 -2.6644  1.1746
 2573TIP3   OH229209   3.328   6.112   6.142  0.3024  0.1469  0.7365
 2573TIP3    H129210   3.296   6.062   6.217 -0.4289 -0.2565  0.1580
 2573TIP3    H229211   3.336   6.201   6.175 -1.6922  0.3286  0.8286
 2574TIP3   OH229212   0.629   2.205   2.813  0.0055 -0.3856 -0.5421
 2574TIP3    H129213   0.650   2.199   2.719  0.1690 -0.6247 -0.4904
 2574TIP3    H229214   0.568   2.279   2.819  1.4750  0.8964 -0.6035
 2575TIP3   OH229215   2.589   3.346   3.730 -0.2677  1.2482 -0.6721
 2575TIP3    H129216   2.599   3.368   3.823  0.3676 -2.3723  0.2699
 2575TIP3    H229217   2.679   3.341   3.697 -0.3352 -0.3687 -0.6588
 2576TIP3   OH229218   6.519   6.170  16.941 -0.6853  0.4035  0.0373
 2576TIP3    H129219   6.476   6.236  16.995 -1.7021 -0.5699  0.4470
 2576TIP3    H229220   6.454   6.101  16.931  0.7339 -1.0896  0.6305
 2577TIP3   OH229221   5.769   6.817  13.842  0.0449 -0.1854  0.2653
 2577TIP3    H129222   5.775   6.754  13.770 -0.3924  0.2492 -0.1557
 2577TIP3    H229223   5.760   6.902  13.799  1.5326  0.2719  0.8300
 2578TIP3   OH229224   4.378   3.862   5.862 -0.3041 -0.8145 -0.3640
 2578TIP3    H129225   4.405   3.771   5.853 -0.7148 -0.7221 -3.5270
 2578TIP3    H229226   4.460   3.910   5.876  0.0104 -1.5404  0.3445
 2579TIP3   OH229227   1.944   6.043  12.906 -1.2311  0.0844  0.6906
 2579TIP3    H129228   1.853   6.016  12.918 -0.6265 -1.7898  1.3491
 2579TIP3    H229229   1.995   5.962  12.915  0.4482  0.9511 -0.4719
 2580TIP3   OH229230   4.758   2.627  16.297 -0.3544  0.2221  0.6248
 2580TIP3    H129231   4.768   2.715  16.262 -0.8896 -0.0325 -0.1800
 2580TIP3    H229232   4.814   2.626  16.375 -0.1630  1.1932  0.5098
 2581TIP3   OH229233   3.726   3.757  15.733 -0.3965 -0.4363  0.2498
 2581TIP3    H129234   3.642   3.788  15.699  0.2638 -0.9726 -2.0554
 2581TIP3    H229235   3.785   3.832  15.726 -0.3369 -0.4561  0.5289
 2582TIP3   OH229236   4.911   6.556  16.167 -0.5735 -0.4399  0.4141
 2582TIP3    H129237   4.890   6.581  16.077  1.5073  0.3833  0.1095
 2582TIP3    H229238   4.837   6.501  16.194 -1.1537 -0.8833 -1.8490
 2583TIP3   OH229239   4.920   0.073   4.591 -0.0724 -0.2440 -0.2675
 2583TIP3    H129240   4.970   0.124   4.654  0.4273 -0.9451 -0.0878
 2583TIP3    H229241   4.887  -0.002   4.641 -1.4907  0.2970 -0.3247
 2584TIP3   OH229242   5.312   3.465   0.501  0.2692 -0.3256  0.2056
 2584TIP3    H129243   5.375   3.472   0.429  0.1420 -0.0236  0.1231
 2584TIP3    H229244   5.233   3.429   0.460  0.1016  0.1178  0.1347
 2585TIP3   OH229245   4.051   6.599   2.394  0.4098 -0.0206 -0.2444
 2585TIP3    H129246   4.115   6.534   2.421  0.2790 -0.8656 -1.8291
 2585TIP3    H229247   4.044   6.587   2.299 -0.8602  1.1800 -0.3288
 2586TIP3   OH229248   3.712   2.488   4.826  0.3882 -0.2006  0.2434
 2586TIP3    H129249   3.660   2.460   4.901 -0.7097 -2.5742 -1.2609
 2586TIP3    H229250   3.681   2.577   4.807 -2.0485 -0.9305  0.3918
 2587TIP3   OH229251   4.115   2.343  14.238 -0.0112 -0.0336 -0.0259
 2587TIP3    H129252   4.065   2.263  14.220 -2.0818  1.4019 -1.0636
 2587TIP3    H229253   4.171   2.354  14.162  1.1781 -1.0888  0.6628
 2588TIP3   OH229254   2.833   6.241  15.205 -0.4343 -0.1985 -0.1741
 2588TIP3    H129255   2.925   6.214  15.210 -0.2434  0.0693 -1.7394
 2588TIP3    H229256   2.834   6.334  15.229  0.2261  0.6713 -3.1577
 2589TIP3   OH229257   1.217   1.197   2.596  0.0515 -0.3237  0.6404
 2589TIP3    H129258   1.252   1.203   2.685  1.3288  2.5995  0.0561
 2589TIP3    H229259   1.260   1.268   2.548 -4.3144  1.5440 -0.9972
 2590TIP3   OH229260   3.516   1.669  15.582  0.2227 -0.3770 -0.2511
 2590TIP3    H129261   3.425   1.694  15.566  0.5807 -0.6059 -3.4839
 2590TIP3    H229262   3.557   1.750  15.614 -0.8667  0.0422  0.1445
 2591TIP3   OH229263   1.000   4.700   6.111 -0.6431  0.0466  0.2993
 2591TIP3    H129264   0.954   4.683   6.029  0.2168 -1.7888  0.1380
 2591TIP3    H229265   0.933   4.691   6.178 -1.2906  1.2536 -0.1523
 2592TIP3   OH229266   3.950   2.906   6.616 -0.5231  0.0352  0.0874
 2592TIP3    H129267   4.018   2.865   6.563  0.2325  0.4655  0.7086
 2592TIP3    H229268   3.992   2.982   6.655 -1.8896  1.4596 -1.0474
 2593TIP3   OH229269   2.896   5.682  15.233  0.3925  0.1801  0.0638
 2593TIP3    H129270   2.890   5.717  15.144 -0.5110 -0.6461 -0.2086
 2593TIP3    H229271   2.927   5.592  15.222 -0.1181 -0.0597  0.5498
 2594TIP3   OH229272   1.834   5.012   1.429 -0.5460 -0.7529  0.4076
 2594TIP3    H129273   1.876   4.981   1.510  1.3315 -0.3080 -0.3538
 2594TIP3    H229274   1.879   4.965   1.359 -3.1826 -2.3177 -0.3952
 2595TIP3   OH229275   1.187   1.731   6.290 -0.2924  0.1365 -0.1023
 2595TIP3    H129276   1.216   1.822   6.281 -0.6939  0.2004 -0.7403
 2595TIP3    H229277   1.092   1.737   6.302 -0.0706 -0.0428  2.4329
 2596TIP3   OH229278   1.159   2.863   3.670  0.1132  0.0465  0.2561
 2596TIP3    H129279   1.134   2.771   3.676  1.3686 -0.2700  1.0182
 2596TIP3    H229280   1.076   2.910   3.655 -0.8533 -1.0074  1.9849
 2597TIP3   OH229281   6.326   6.817   2.504 -0.1885 -0.2820  0.0521
 2597TIP3    H129282   6.392   6.869   2.549  0.1948 -0.3814 -0.3904
 2597TIP3    H229283   6.350   6.821   2.411 -0.0940 -1.3271  0.0183
 2598TIP3   OH229284   2.078   0.855   4.183  0.2358  0.5180 -0.0158
 2598TIP3    H129285   2.112   0.915   4.249 -0.9709  1.3721 -0.1353
 2598TIP3    H229286   1.998   0.819   4.221 -0.6719  1.2860 -1.1137
 2599TIP3   OH229287   3.476   5.284  14.651  0.1965 -0.2498  0.6860
 2599TIP3    H129288   3.469   5.332  14.734 -1.3369 -0.0122  0.4456
 2599TIP3    H229289   3.465   5.350  14.583  1.3243 -0.4648  0.2630
 2600TIP3   OH229290   4.136   3.520   1.444  0.3972 -0.1145 -0.3183
 2600TIP3    H129291   4.231   3.515   1.453  0.6135  1.5728 -1.1980
 2600TIP3    H229292   4.104   3.537   1.532  1.0632  0.7405 -0.2283
 2601TIP3   OH229293   4.282   4.022   1.271 -0.2376 -0.1507  0.4017
 2601TIP3    H129294   4.252   4.111   1.289 -0.7846  0.7004 -3.6907
 2601TIP3    H229295   4.207   3.966   1.293 -1.1519  0.8277 -0.1610
 2602TIP3   OH229296   4.554   4.971   4.996 -0.8469 -0.5761  0.6718
 2602TIP3    H129297   4.595   5.042   4.947 -3.0020 -0.0299 -0.4730
 2602TIP3    H229298   4.559   4.895   4.938 -1.7538 -0.4045  0.3533
 2603TIP3   OH229299   0.474   4.509   4.328  0.1020 -0.2941 -0.1769
 2603TIP3    H129300   0.432   4.595   4.326 -0.3330 -0.4216  1.8848
 2603TIP3    H229301   0.466   4.477   4.238 -2.4510  0.5236 -0.3245
 2604TIP3   OH229302   1.412   6.805   5.446 -0.4579  0.4824  0.2798
 2604TIP3    H129303   1.365   6.845   5.373  0.7429  0.8029 -0.3414
 2604TIP3    H229304   1.384   6.856   5.522 -1.2988  0.5027 -0.0303
 2605TIP3   OH229305   1.286   4.507  11.598 -0.7584 -0.6586  0.2953
 2605TIP3    H129306   1.199   4.546  11.598 -0.0454  1.0518 -0.3779
 2605TIP3    H229307   1.296   4.471  11.510 -0.4602 -0.0386  0.0704
 2606TIP3   OH229308   3.680   3.543   2.129  0.4843 -0.4344 -0.2061
 2606TIP3    H129309   3.625   3.620   2.140  1.0142 -0.3599  2.4098
 2606TIP3    H229310   3.758   3.577   2.085  0.2123  0.2837 -0.1568
 2607TIP3   OH229311   6.678   2.833   4.305  0.4974  0.3634 -0.0879
 2607TIP3    H129312   6.748   2.781   4.265  0.0551 -1.2820  1.1358
 2607TIP3    H229313   6.620   2.768   4.344 -2.1633  1.6285 -1.6970
 2608TIP3   OH229314   4.394   5.180  13.942  0.8299 -0.0071  0.0432
 2608TIP3    H129315   4.383   5.099  13.991  1.1601 -1.4049 -2.0742
 2608TIP3    H229316   4.382   5.249  14.007 -1.9306 -1.6616  1.5016
 2609TIP3   OH229317   6.331   0.711  12.613 -0.5029  0.2663  0.1119
 2609TIP3    H129318   6.344   0.799  12.648 -1.7557 -0.5436  2.8351
 2609TIP3    H229319   6.407   0.661  12.643  0.1700  0.3574 -1.3654
 2610TIP3   OH229320   3.930   6.443   5.005  0.1319 -0.2027 -0.8641
 2610TIP3    H129321   3.845   6.436   5.048 -0.3812 -1.8797 -2.0743
 2610TIP3    H229322   3.984   6.376   5.048  0.9843  1.0381  0.0961
 2611TIP3   OH229323   5.058   0.506  16.664 -0.1756  0.0150  0.1616
 2611TIP3    H129324   5.034   0.556  16.742  0.5383  0.3580  0.1645
 2611TIP3    H229325   5.127   0.447  16.694 -0.7000 -0.6633  0.0521
 2612TIP3   OH229326   5.280   4.142  15.423 -0.1562 -0.1322 -0.2497
 2612TIP3    H129327   5.325   4.178  15.499  3.6074 -1.3793 -1.6300
 2612TIP3    H229328   5.284   4.212  15.358 -1.0238  0.0215 -0.1547
 2613TIP3   OH229329   0.247   6.276   0.990 -0.3011 -0.1024 -0.0522
 2613TIP3    H129330   0.165   6.291   0.942 -1.2625 -0.0652  1.5073
 2613TIP3    H229331   0.313   6.267   0.923 -1.9398 -2.4734 -1.4975
 2614TIP3   OH229332   3.739   0.710  15.618 -0.2633  0.2946 -0.6606
 2614TIP3    H129333   3.680   0.678  15.686 -0.2527 -0.2822 -0.9182
 2614TIP3    H229334   3.719   0.803  15.612 -0.6853  0.2358 -0.2851
 2615TIP3   OH229335   1.720   0.244  12.922 -0.1914  0.4835 -0.1266
 2615TIP3    H129336   1.656   0.245  12.851  0.1036  1.3213 -0.3940
 2615TIP3    H229337   1.702   0.163  12.969 -1.1452  0.4783 -0.4728
 2616TIP3   OH229338   4.016   6.201   6.095 -0.6449  0.4366 -0.1416
 2616TIP3    H129339   4.071   6.244   6.160  0.7605 -0.4405 -0.6979
 2616TIP3    H229340   3.935   6.180   6.142  0.2082  0.0993  1.2457
 2617TIP3   OH229341   6.234   5.555  11.451  0.4437  0.5075 -0.2556
 2617TIP3    H129342   6.307   5.540  11.391  0.0446  0.2637 -0.6913
 2617TIP3    H229343   6.193   5.636  11.421 -1.4347 -1.0093 -2.0862
 2618TIP3   OH229344   4.723   5.280   1.860  0.0024 -0.4183 -0.1281
 2618TIP3    H129345   4.632   5.288   1.831 -0.1695 -0.0168  0.5147
 2618TIP3    H229346   4.740   5.360   1.909  0.9384 -0.1599 -0.8623
 2619TIP3   OH229347   5.332   4.655   5.449 -0.5072  0.3581  0.1201
 2619TIP3    H129348   5.375   4.675   5.532  0.8049  3.2213 -1.1433
 2619TIP3    H229349   5.342   4.560   5.440  1.0130  0.2365  2.3006
 2620TIP3   OH229350   6.804   0.634   4.147  0.5034 -0.0990  0.2664
 2620TIP3    H129351   6.802   0.712   4.203  0.3081  2.0125 -2.4626
 2620TIP3    H229352   6.713   0.612   4.132  0.3739  1.5683 -1.9257
 2621TIP3   OH229353   1.021   1.205   5.246 -0.2287  0.5424  0.0525
 2621TIP3    H129354   0.986   1.117   5.256 -2.5332  1.2906 -0.7849
 2621TIP3    H229355   1.108   1.201   5.286 -0.2946 -2.0618  0.1017
 2622TIP3   OH229356   5.228   5.080   1.892  0.0079 -0.3174 -0.2013
 2622TIP3    H129357   5.290   5.103   1.962  1.0824 -1.8588 -0.5917
 2622TIP3    H229358   5.142   5.097   1.931  0.6113  0.0681  1.0399
 2623TIP3   OH229359   3.768   2.558  10.627 -0.4391 -0.3478 -0.0032
 2623TIP3    H129360   3.745   2.526  10.540 -0.1062 -0.5495 -0.0199
 2623TIP3    H229361   3.864   2.563  10.626 -0.4830  0.9015 -0.0954
 2624TIP3   OH229362   2.794   4.446  15.324 -0.6270  0.2895 -0.8377
 2624TIP3    H129363   2.732   4.373  15.327 -0.9283  0.5482 -0.7484
 2624TIP3    H229364   2.839   4.436  15.240 -0.8822  0.1755 -0.9628
 2625TIP3   OH229365   5.855   2.576  10.365  0.1766 -0.3741  0.1782
 2625TIP3    H129366   5.909   2.636  10.417  0.5468 -0.2243 -0.3744
 2625TIP3    H229367   5.916   2.506  10.339  0.1348 -0.1520 -0.5367
 2626TIP3   OH229368   6.396   6.543   2.240 -0.4395  0.4383 -0.1566
 2626TIP3    H129369   6.328   6.546   2.307  1.3687 -0.8800  1.8760
 2626TIP3    H229370   6.455   6.473   2.268  1.4808  1.1626 -2.0651
 2627TIP3   OH229371   6.712   6.264   1.504  0.1867 -0.0293  0.2173
 2627TIP3    H129372   6.726   6.237   1.413 -1.2931  1.8549 -0.6371
 2627TIP3    H229373   6.675   6.187   1.547  1.4754 -1.1446 -0.5764
 2628TIP3   OH229374   4.839   0.816   1.415  0.0781  0.3268 -0.3664
 2628TIP3    H129375   4.866   0.725   1.402  0.0659  0.1360  0.8577
 2628TIP3    H229376   4.905   0.867   1.369  0.8803 -0.2481  0.1164
 2629TIP3   OH229377   5.338   2.662  12.296  0.2350  0.1409 -0.4335
 2629TIP3    H129378   5.405   2.595  12.280  0.0808 -0.3224  0.7772
 2629TIP3    H229379   5.370   2.739  12.248  0.9918 -0.4478 -0.9100
 2630TIP3   OH229380   0.066   0.090  12.758 -0.1213  0.1984  0.0267
 2630TIP3    H129381   0.159   0.089  12.734 -0.4901 -0.3463 -1.5150
 2630TIP3    H229382   0.066   0.078  12.853  1.4066  1.0576  0.1806
 2631TIP3   OH229383   1.286   4.080  14.583  0.1383  0.1895  0.7001
 2631TIP3    H129384   1.336   4.051  14.507  1.4143  0.5887  1.3588
 2631TIP3    H229385   1.237   4.156  14.552  0.4353  0.1858  0.2043
 2632TIP3   OH229386   3.043   2.816   3.394 -0.0360  0.4166  0.3867
 2632TIP3    H129387   3.134   2.816   3.363 -0.2361 -0.1370 -0.2400
 2632TIP3    H229388   3.001   2.885   3.343  0.2839  1.4823  1.5141
 2633TIP3   OH229389   0.438   6.528  14.972 -0.4898 -0.2693 -0.3462
 2633TIP3    H129390   0.375   6.506  14.903  0.0803  0.6344 -1.1819
 2633TIP3    H229391   0.522   6.533  14.927  0.0647 -0.7085  0.6168
 2634TIP3   OH229392   5.532   2.997  14.692  0.0909 -0.6155  0.4489
 2634TIP3    H129393   5.455   3.050  14.714  0.5217  0.0567  0.3707
 2634TIP3    H229394   5.604   3.043  14.735  0.6670 -0.3823 -0.7288
 2635TIP3   OH229395   3.192   5.589   6.286  0.1742 -0.4120  0.0864
 2635TIP3    H129396   3.121   5.584   6.349 -0.3002 -0.9214 -0.4808
 2635TIP3    H229397   3.242   5.508   6.300  0.3128 -0.3245  0.0978
 2636TIP3   OH229398   3.983   2.960  15.418 -0.3190 -0.4072  0.3533
 2636TIP3    H129399   3.997   2.948  15.512 -1.4964 -0.6002  0.5205
 2636TIP3    H229400   3.951   2.875  15.387  0.2055 -0.3899 -0.2587
 2637TIP3   OH229401   3.644   2.215   5.478 -0.2087  0.5440  0.3876
 2637TIP3    H129402   3.729   2.236   5.440  0.0535  1.2822  1.3460
 2637TIP3    H229403   3.580   2.241   5.411  0.2155  2.2569  0.6108
 2638TIP3   OH229404   3.841   0.585   3.001 -0.1548  0.3579 -0.3557
 2638TIP3    H129405   3.830   0.599   2.907 -0.9096  1.0392 -0.1841
 2638TIP3    H229406   3.849   0.674   3.037 -2.7514  0.3256  0.5259
 2639TIP3   OH229407   0.477   0.874  15.614 -0.2916 -0.1265 -0.1309
 2639TIP3    H129408   0.424   0.937  15.566  0.5042  0.6261 -0.0556
 2639TIP3    H229409   0.560   0.920  15.630 -0.4895 -0.3684  1.9013
 2640TIP3   OH229410   5.843   6.020  10.525 -0.0682  0.7583  0.6234
 2640TIP3    H129411   5.837   5.981  10.612 -0.8953  1.3360  0.8321
 2640TIP3    H229412   5.917   5.975  10.484  0.7215  0.9004  1.8422
 2641TIP3   OH229413   0.125   1.804   2.389 -0.5424  1.1464 -0.3258
 2641TIP3    H129414   0.156   1.881   2.341  0.5126 -0.4253 -2.3096
 2641TIP3    H229415   0.057   1.767   2.334 -0.6152  0.3178  0.2984
 2642TIP3   OH229416   4.885   2.654  12.517 -0.2257 -0.1309  0.1127
 2642TIP3    H129417   4.837   2.572  12.515 -0.6350  0.1181 -0.7423
 2642TIP3    H229418   4.976   2.630  12.498 -0.4441 -0.3280 -0.7156
 2643TIP3   OH229419   4.254   3.178  14.135  0.1397 -0.5455 -0.7764
 2643TIP3    H129420   4.333   3.158  14.184 -0.9108 -0.1413  1.2007
 2643TIP3    H229421   4.220   3.093  14.107  0.1980 -0.8845  0.1600
 2644TIP3   OH229422   6.771   5.275  12.267  0.0491  0.2194  0.1683
 2644TIP3    H129423   6.726   5.285  12.183  0.4197  1.7679  0.1196
 2644TIP3    H229424   6.703   5.290  12.333  0.2398  1.5258  0.1008
 2645TIP3   OH229425   2.549   0.399  15.274  0.5178 -0.1066 -0.3590
 2645TIP3    H129426   2.480   0.463  15.288 -0.4653 -0.9753 -1.0687
 2645TIP3    H229427   2.611   0.442  15.214  2.6311  2.0880  3.0882
 2646TIP3   OH229428   5.992   5.972  16.549  0.4743  0.0254 -0.5830
 2646TIP3    H129429   6.024   5.906  16.488  1.8713  1.0848 -1.0524
 2646TIP3    H229430   6.054   5.971  16.622  0.4541  0.7327 -0.5435
 2647TIP3   OH229431   6.213   6.738  15.514 -0.4556 -0.0741 -0.6806
 2647TIP3    H129432   6.210   6.684  15.436 -0.1509 -1.4677  0.2245
 2647TIP3    H229433   6.194   6.827  15.484 -2.2050 -0.8640 -2.0392
 2648TIP3   OH229434   2.087   1.690   0.978 -0.0886 -0.1471 -0.2905
 2648TIP3    H129435   2.084   1.602   1.016  1.6164  0.3778  1.2401
 2648TIP3    H229436   2.025   1.687   0.905 -0.5723 -2.4024  0.1256
 2649TIP3   OH229437   1.478   4.061  11.437 -0.0536 -0.2215 -0.0611
 2649TIP3    H129438   1.504   3.988  11.494  0.1839  1.0596  1.5454
 2649TIP3    H229439   1.536   4.133  11.462  1.3784 -0.0698 -3.2704
 2650TIP3   OH229440   0.113   3.310  11.677 -0.4381  0.0309 -0.3177
 2650TIP3    H129441   0.137   3.313  11.585  0.6260 -1.5417 -0.1251
 2650TIP3    H229442   0.094   3.218  11.694 -2.0754  0.5176  0.7001
 2651TIP3   OH229443   4.723   1.014  16.504 -0.1271  0.2734 -0.1742
 2651TIP3    H129444   4.672   0.933  16.500 -0.5216  0.5154 -0.1208
 2651TIP3    H229445   4.814   0.985  16.508 -0.3207 -0.2246  1.5179
 2652TIP3   OH229446   3.558   6.013   3.918  0.1804  0.0704  0.9069
 2652TIP3    H129447   3.557   6.106   3.942 -0.1658  0.1572  0.5580
 2652TIP3    H229448   3.644   6.000   3.878 -0.7109  0.8487 -1.3751
 2653TIP3   OH229449   0.641   2.467   3.255  0.1755  0.2905  0.1310
 2653TIP3    H129450   0.650   2.387   3.204  0.6087  0.2897  0.1992
 2653TIP3    H229451   0.638   2.537   3.189  0.2812  0.2532  0.0854
 2654TIP3   OH229452   3.491   6.732  15.893  0.1562 -0.2569  0.4074
 2654TIP3    H129453   3.463   6.681  15.817 -2.2977 -1.1138  1.7813
 2654TIP3    H229454   3.576   6.768  15.867 -0.7993 -0.0481 -2.9236
 2655TIP3   OH229455   4.305   3.081  17.027 -0.1844  0.1127  0.1960
 2655TIP3    H129456   4.253   3.004  17.005  0.2140 -0.1472  0.1553
 2655TIP3    H229457   4.343   3.060  17.113 -1.4837  0.9883  1.0146
 2656TIP3   OH229458   1.224   5.593  10.700 -0.1384  0.2026 -0.4336
 2656TIP3    H129459   1.130   5.602  10.711 -0.2975 -1.2141 -0.4650
 2656TIP3    H229460   1.235   5.570  10.608 -0.0671 -2.7409  0.2156
 2657TIP3   OH229461   3.430   2.553  15.496 -0.3554  0.3511 -0.1378
 2657TIP3    H129462   3.459   2.471  15.455 -2.9788 -0.9593  0.3779
 2657TIP3    H229463   3.438   2.618  15.426 -1.0613 -1.0163 -1.5676
 2658TIP3   OH229464   1.708   4.814  11.586  0.3916  1.2019 -0.0012
 2658TIP3    H129465   1.682   4.830  11.496  1.9820 -0.7080 -0.8663
 2658TIP3    H229466   1.786   4.868  11.598 -0.4823  2.3729  0.6714
 2659TIP3   OH229467   3.658   4.940   2.916 -0.0625 -0.3728  0.5602
 2659TIP3    H129468   3.623   4.886   2.845 -1.3872 -0.3939  1.2009
 2659TIP3    H229469   3.700   4.877   2.975 -0.6430 -0.5809  0.7567
 2660TIP3   OH229470   5.533   5.030   1.004 -0.3815  0.6122 -0.0139
 2660TIP3    H129471   5.557   5.063   1.090 -1.2513 -0.2589  0.5934
 2660TIP3    H229472   5.463   4.967   1.021  0.3624 -0.6036 -1.2188
 2661TIP3   OH229473   4.344   0.410   4.666 -0.0828 -1.1036  0.1847
 2661TIP3    H129474   4.280   0.462   4.617 -1.0807 -0.4826  2.0554
 2661TIP3    H229475   4.429   0.442   4.637 -0.6536 -0.2749 -0.6185
 2662TIP3   OH229476   3.088   2.863   0.331  0.0682  0.0320  0.4801
 2662TIP3    H129477   3.034   2.930   0.373 -0.8821  0.5621 -1.4475
 2662TIP3    H229478   3.037   2.836   0.254  2.5135  0.5605 -1.4717
 2663TIP3   OH229479   0.823   5.364   1.790 -0.4648 -0.1046  0.8929
 2663TIP3    H129480   0.739   5.406   1.807 -0.2583  0.2819  0.9537
 2663TIP3    H229481   0.803   5.270   1.788 -1.4872  0.0580 -2.1578
 2664TIP3   OH229482   3.102   2.733   6.535  0.2509 -0.6016  0.6458
 2664TIP3    H129483   3.141   2.703   6.617 -1.8231  0.1662  1.9880
 2664TIP3    H229484   3.129   2.824   6.528 -2.9550  0.6628  2.8001
 2665TIP3   OH229485   5.437   6.652   3.995 -0.1704 -0.4124 -0.2566
 2665TIP3    H129486   5.514   6.612   4.035  0.1618 -0.0010 -0.4808
 2665TIP3    H229487   5.374   6.581   3.989  0.3206 -0.8393 -0.4018
 2666TIP3   OH229488   3.924   5.926  12.266  0.6171 -0.3108  0.7959
 2666TIP3    H129489   3.899   5.869  12.193 -0.1371  0.9724 -0.0051
 2666TIP3    H229490   3.883   5.887  12.343 -0.1578 -0.6757  0.2062
 2667TIP3   OH229491   4.521   3.754   3.321  0.0998 -0.1454 -0.4712
 2667TIP3    H129492   4.603   3.797   3.299  0.6923 -1.7659 -1.5659
 2667TIP3    H229493   4.502   3.697   3.247 -2.2825  0.5152 -0.4664
 2668TIP3   OH229494   4.673   2.242  13.940  0.3563  0.3678 -0.0968
 2668TIP3    H129495   4.695   2.235  13.847  0.4303  5.3886 -0.7588
 2668TIP3    H229496   4.583   2.274  13.940 -0.5820 -1.9985  1.7972
 2669TIP3   OH229497   3.123   1.516  11.665  0.0825 -0.2179  0.5466
 2669TIP3    H129498   3.126   1.608  11.640  1.3768  0.1071  1.7531
 2669TIP3    H229499   3.042   1.483  11.627  0.7847  0.7806 -2.0591
 2670TIP3   OH229500   2.222   1.768   3.290 -0.0471  0.4524  0.2896
 2670TIP3    H129501   2.228   1.835   3.358 -0.7403  1.0330 -0.2041
 2670TIP3    H229502   2.136   1.727   3.304 -0.1476  0.5059 -0.1706
 2671TIP3   OH229503   0.216   4.204  14.098  0.3955  0.2941 -0.3244
 2671TIP3    H129504   0.289   4.186  14.158  0.7902  1.2435 -0.5021
 2671TIP3    H229505   0.149   4.139  14.122  1.4525 -0.8810 -0.4464
 2672TIP3   OH229506   4.471   4.655   1.944 -0.7316  0.0521  0.0988
 2672TIP3    H129507   4.499   4.571   1.979  1.4673 -0.2877 -2.2283
 2672TIP3    H229508   4.391   4.634   1.895  0.0167 -0.7936 -0.8004
 2673TIP3   OH229509   0.681   4.384   0.789  0.2404 -0.0234 -0.1971
 2673TIP3    H129510   0.732   4.304   0.796 -0.7767 -0.5826  1.4337
 2673TIP3    H229511   0.635   4.377   0.705  0.4507 -0.9757 -0.2411
 2674TIP3   OH229512   1.485   4.395  14.802 -0.3341 -0.3103  0.0972
 2674TIP3    H129513   1.503   4.418  14.711  0.2537  2.7649  0.8833
 2674TIP3    H229514   1.513   4.471  14.853 -0.0233 -2.1506  2.9588
 2675TIP3   OH229515   4.926   1.640   3.958  0.0166  0.2738 -0.5077
 2675TIP3    H129516   4.948   1.647   3.865  1.5581 -0.2919 -0.2216
 2675TIP3    H229517   4.847   1.693   3.968 -0.3800  0.0746 -2.1977
 2676TIP3   OH229518   2.821   3.870  12.046 -0.0918 -0.7035  0.1187
 2676TIP3    H129519   2.902   3.824  12.069 -0.7035 -1.5783  0.6139
 2676TIP3    H229520   2.800   3.838  11.958 -0.1499 -0.8530  0.1855
 2677TIP3   OH229521   2.740   1.425  12.168  0.4382 -0.2113 -0.2422
 2677TIP3    H129522   2.699   1.339  12.179  0.7112 -0.1732  1.2935
 2677TIP3    H229523   2.762   1.429  12.075  2.0357 -2.5596 -0.0607
 2678TIP3   OH229524   0.195   2.773   3.849  0.2581  0.6237  0.0321
 2678TIP3    H129525   0.279   2.734   3.872 -1.3190 -1.5807  2.7458
 2678TIP3    H229526   0.207   2.867   3.862  2.7728  0.6373 -1.6755
 2679TIP3   OH229527   5.991   5.579  16.296  0.2127 -0.1767  0.3013
 2679TIP3    H129528   6.001   5.573  16.391 -0.9671 -1.1292  0.3759
 2679TIP3    H229529   6.080   5.598  16.265  0.6809 -0.1879  1.5571
 2680TIP3   OH229530   2.061   0.607   1.234 -0.0828 -0.6931  0.0402
 2680TIP3    H129531   1.995   0.588   1.302  0.5501  2.2863  1.6384
 2680TIP3    H229532   2.010   0.618   1.154 -1.3682 -0.2000  0.8886
 2681TIP3   OH229533   2.056   3.068   0.315 -0.6021  0.1279  0.4580
 2681TIP3    H129534   2.051   2.983   0.359 -0.5882 -0.6635 -1.0005
 2681TIP3    H229535   2.012   3.054   0.231  0.2138  1.2938 -0.1946
 2682TIP3   OH229536   1.243   1.551   0.879  0.5567  0.9721  0.1462
 2682TIP3    H129537   1.273   1.606   0.806 -1.7632  0.3367 -1.3951
 2682TIP3    H229538   1.180   1.606   0.926  1.1168  0.9445  0.9471
 2683TIP3   OH229539   5.101   5.902   3.141  0.4632 -0.2000  0.2147
 2683TIP3    H129540   5.073   5.941   3.058  1.2174 -2.0550 -0.9769
 2683TIP3    H229541   5.024   5.855   3.172  0.8394 -1.4359 -0.6636
 2684TIP3   OH229542   1.641   4.307   0.718  0.3359 -0.1793  0.5107
 2684TIP3    H129543   1.546   4.302   0.731  0.3736  1.0848  1.5469
 2684TIP3    H229544   1.678   4.265   0.796  0.6868 -2.7311 -0.9333
 2685TIP3   OH229545   5.050   1.742  14.226  0.5201  0.4751 -0.4958
 2685TIP3    H129546   5.073   1.686  14.152 -0.7223 -0.3377 -0.3025
 2685TIP3    H229547   4.959   1.767  14.208 -0.1911 -0.6452  1.2857
 2686TIP3   OH229548   3.827   2.461  12.146 -0.9369  0.0473 -0.3677
 2686TIP3    H129549   3.808   2.510  12.065  0.5349  0.6485 -0.3707
 2686TIP3    H229550   3.776   2.506  12.213  1.4564  2.6053 -0.0845
 2687TIP3   OH229551   4.287   1.861  16.736 -0.0563  0.2034 -0.2162
 2687TIP3    H129552   4.318   1.806  16.664 -1.4996  1.1975 -1.6807
 2687TIP3    H229553   4.261   1.799  16.804  0.6294 -0.8028 -0.8359
 2688TIP3   OH229554   6.108   3.637   5.830 -0.1372 -0.3225 -0.7904
 2688TIP3    H129555   6.138   3.557   5.872  0.1910 -0.1108 -0.6169
 2688TIP3    H229556   6.053   3.680   5.896  0.5750  0.1300 -0.4760
 2689TIP3   OH229557   2.296   2.407  14.591 -0.3031 -0.1343 -0.7709
 2689TIP3    H129558   2.332   2.342  14.653 -0.9643 -0.7252 -0.9933
 2689TIP3    H229559   2.354   2.483  14.601  0.3874 -0.6886 -0.3763
 2690TIP3   OH229560   0.059   0.746  16.335 -0.4668 -0.2201 -0.4613
 2690TIP3    H129561   0.086   0.835  16.353 -0.7147  0.3514 -2.6098
 2690TIP3    H229562   0.139   0.702  16.305 -0.5255 -0.4746 -0.2487
 2691TIP3   OH229563   4.362   4.926  12.827 -0.0083  0.2281 -0.5920
 2691TIP3    H129564   4.349   5.004  12.773 -1.6427  0.0318 -0.5266
 2691TIP3    H229565   4.352   4.852  12.767 -0.8533  0.0280 -0.2230
 2692TIP3   OH229566   4.216   0.780   4.303  0.6979 -0.6415  0.3076
 2692TIP3    H129567   4.193   0.824   4.385  1.2725 -1.3925  0.8902
 2692TIP3    H229568   4.281   0.837   4.262  0.9926 -0.6412  0.7672
 2693TIP3   OH229569   3.745   1.408   5.967 -0.3671  0.3959  0.4508
 2693TIP3    H129570   3.840   1.399   5.958 -0.3281  1.3800 -0.2658
 2693TIP3    H229571   3.730   1.409   6.061  0.1964 -0.9858  0.5791
 2694TIP3   OH229572   0.796   5.981   5.520 -0.5843  0.5153 -0.1832
 2694TIP3    H129573   0.779   5.924   5.444 -0.4982  0.6171 -0.2783
 2694TIP3    H229574   0.733   6.052   5.511 -0.0944  0.9111 -0.5531
 2695TIP3   OH229575   0.995   5.375  12.071 -0.0295  0.0834  0.2614
 2695TIP3    H129576   1.051   5.444  12.108  0.8304 -1.1648  1.3939
 2695TIP3    H229577   1.008   5.300  12.129 -2.3413 -0.4956  0.1153
 2696TIP3   OH229578   5.168   5.387   5.980  0.4256 -0.9567  1.4036
 2696TIP3    H129579   5.106   5.319   5.954 -1.1488  0.4854  1.1857
 2696TIP3    H229580   5.198   5.360   6.067 -1.5757 -1.0676  2.1230
 2697TIP3   OH229581   5.789   5.705  15.517 -0.4127  0.2920 -0.2305
 2697TIP3    H129582   5.714   5.647  15.503 -0.1377 -0.1171 -0.0096
 2697TIP3    H229583   5.799   5.710  15.612 -0.0097  0.1508 -0.2626
 2698TIP3   OH229584   0.037   3.717   6.158  0.2596 -0.5584  0.2035
 2698TIP3    H129585   0.120   3.680   6.128  0.9759  0.5580  0.7490
 2698TIP3    H229586   0.037   3.702   6.253 -1.3371 -2.7951 -0.0768
 2699TIP3   OH229587   2.478   3.434   0.897  0.0524 -0.7433 -0.1346
 2699TIP3    H129588   2.512   3.499   0.835  1.1945 -0.9258  0.2608
 2699TIP3    H229589   2.557   3.401   0.942 -0.7419 -0.6526  1.3733
 2700TIP3   OH229590   1.841   5.859   3.269  0.4051 -0.0405  0.0340
 2700TIP3    H129591   1.861   5.792   3.203 -0.7523  0.0241 -0.3945
 2700TIP3    H229592   1.876   5.823   3.351 -0.2785 -1.2184 -0.1751
 2701TIP3   OH229593   2.480   5.829   0.330  0.3165 -0.0854 -0.9260
 2701TIP3    H129594   2.517   5.753   0.374  0.9100  1.4250  1.3827
 2701TIP3    H229595   2.557   5.877   0.297  0.0588  0.2869 -0.9903
 2702TIP3   OH229596   4.574   1.902  16.374 -0.2301  0.3291  0.2884
 2702TIP3    H129597   4.581   1.808  16.391  1.3343  0.2370 -0.6882
 2702TIP3    H229598   4.481   1.922  16.386 -0.4142 -1.1319  1.5115
 2703TIP3   OH229599   4.960   1.494   5.125 -0.2429  0.3124  0.6548
 2703TIP3    H129600   4.970   1.575   5.076  0.2615  0.3946  0.8930
 2703TIP3    H229601   5.048   1.474   5.158 -0.1065 -0.9641 -0.4025
 2704TIP3   OH229602   1.816   4.617  15.821 -0.3617  0.2160  0.1212
 2704TIP3    H129603   1.845   4.671  15.895 -0.5795  0.0458  0.3350
 2704TIP3    H229604   1.880   4.634  15.752 -0.5758  0.9535  0.0962
 2705TIP3   OH229605   4.190   5.472  16.260 -0.0121 -0.1734 -0.2006
 2705TIP3    H129606   4.242   5.397  16.291  0.5294  0.0520 -0.5449
 2705TIP3    H229607   4.127   5.433  16.199 -0.1391 -0.4273  0.0889
 2706TIP3   OH229608   0.797   3.927  13.592 -0.3781  0.6206 -0.1673
 2706TIP3    H129609   0.790   3.999  13.529 -2.2753  2.6671  2.1545
 2706TIP3    H229610   0.729   3.866  13.567 -0.4599  0.9044 -0.6634
 2707TIP3   OH229611   0.174   0.404  12.587  0.1411  0.4654  0.2421
 2707TIP3    H129612   0.114   0.397  12.661 -0.7545 -1.1531 -0.6021
 2707TIP3    H229613   0.138   0.476  12.534  0.0755  0.7927  0.7234
 2708TIP3   OH229614   5.504   6.491  16.258 -0.2020 -0.4699  0.0472
 2708TIP3    H129615   5.428   6.441  16.288  0.2647 -1.1356  0.1567
 2708TIP3    H229616   5.467   6.560  16.202 -0.9079 -0.5551  0.3908
 2709TIP3   OH229617   3.839   4.934  14.221  0.6475  0.1696 -0.4598
 2709TIP3    H129618   3.924   4.894  14.238  1.1489  0.6432 -1.7064
 2709TIP3    H229619   3.806   4.959  14.308  0.5398 -2.3910  0.3231
 2710TIP3   OH229620   4.468   3.009   2.320  0.2095 -0.3551  0.6100
 2710TIP3    H129621   4.422   2.926   2.303  0.1454 -0.1782 -0.1100
 2710TIP3    H229622   4.551   3.000   2.274 -0.0474  0.2122  0.0213
 2711TIP3   OH229623   2.744   6.174   2.151 -0.0150 -0.2646  0.5179
 2711TIP3    H129624   2.675   6.160   2.086  1.8806 -1.6508 -1.3562
 2711TIP3    H229625   2.728   6.109   2.218 -0.2178 -0.9966 -0.2215
 2712TIP3   OH229626   2.518   2.725  12.066  0.0005 -0.4338 -0.1623
 2712TIP3    H129627   2.507   2.768  11.981  0.4571 -0.3338 -0.1742
 2712TIP3    H229628   2.575   2.650  12.048  0.0648 -0.4358  0.0473
 2713TIP3   OH229629   1.939   2.968   0.105 -0.9831  0.4367  0.3794
 2713TIP3    H129630   1.926   2.873   0.109 -0.0241  0.3343  1.1815
 2713TIP3    H229631   1.952   2.985   0.012 -0.2409 -0.3452  0.3306
 2714TIP3   OH229632   1.246   1.685   3.599 -0.2066  0.3442  0.0693
 2714TIP3    H129633   1.175   1.628   3.569  1.2035 -2.5606  1.8157
 2714TIP3    H229634   1.322   1.656   3.548  0.7828 -0.1937  1.7840
 2715TIP3   OH229635   1.646   1.026   1.345  0.1432 -0.2965 -0.0233
 2715TIP3    H129636   1.580   1.022   1.415  1.2572  1.2457  1.1937
 2715TIP3    H229637   1.601   1.069   1.272  0.0137  1.6923  1.1489
 2716TIP3   OH229638   0.740   2.932   1.110 -0.4156 -0.1957 -0.3407
 2716TIP3    H129639   0.682   2.946   1.036 -0.3349  0.6941 -0.2523
 2716TIP3    H229640   0.762   3.020   1.140  0.9208 -0.5065 -0.3274
 2717TIP3   OH229641   2.447   1.767   1.240 -0.5472  0.8449  0.1446
 2717TIP3    H129642   2.542   1.764   1.251 -0.6356 -0.5906  0.6968
 2717TIP3    H229643   2.417   1.828   1.308 -0.0212  1.4773 -0.1749
 2718TIP3   OH229644   6.662   1.230   1.217  0.4045 -0.3119  0.6707
 2718TIP3    H129645   6.578   1.192   1.243  0.3439 -0.9939 -0.4636
 2718TIP3    H229646   6.652   1.250   1.124  1.8708 -1.4756  0.2309
 2719TIP3   OH229647   1.905   0.023  11.701 -0.0787  0.5373 -0.3535
 2719TIP3    H129648   1.994  -0.007  11.716 -0.7519 -0.5439  1.9424
 2719TIP3    H229649   1.883  -0.011  11.614  0.9961 -1.1190 -0.0177
 2720TIP3   OH229650   5.981   1.176  16.537 -0.6072 -0.4641  0.7564
 2720TIP3    H129651   5.909   1.199  16.480 -0.1672 -0.3674  0.2303
 2720TIP3    H229652   6.037   1.120  16.484  1.2075  1.7665  0.1611
 2721TIP3   OH229653   6.087   0.692   0.209 -0.2271  0.7468  0.0758
 2721TIP3    H129654   6.139   0.764   0.245  0.2350  1.4036 -1.8038
 2721TIP3    H229655   5.999   0.708   0.244  0.5122  0.2782  2.3455
 2722TIP3   OH229656   3.785   5.994  16.961  0.3100  0.3095  0.3145
 2722TIP3    H129657   3.738   5.916  16.992  0.9283  0.2720  1.1879
 2722TIP3    H229658   3.731   6.027  16.889  0.2700 -1.1976 -0.4040
 2723TIP3   OH229659   0.054   0.573   4.839  0.1069 -0.4251 -0.0801
 2723TIP3    H129660   0.081   0.483   4.824  0.8442 -0.2037 -0.1392
 2723TIP3    H229661  -0.019   0.588   4.779 -0.4987 -1.1992  0.4438
 2724TIP3   OH229662   5.081   5.110   5.985  0.3338  0.4089  0.0512
 2724TIP3    H129663   5.026   5.035   6.005  0.9692 -0.3643 -0.9894
 2724TIP3    H229664   5.170   5.075   5.983  0.7801  1.4516  0.8002
 2725TIP3   OH229665   2.307   0.070   4.885  0.1625 -0.9243  0.3276
 2725TIP3    H129666   2.292  -0.004   4.827  1.4781 -1.0529  0.1196
 2725TIP3    H229667   2.402   0.079   4.889  0.0716  1.5198 -0.6421
 2726TIP3   OH229668   1.864   3.613   1.363 -0.0055  0.5802  0.2586
 2726TIP3    H129669   1.779   3.571   1.351  0.2505 -0.1274  0.8565
 2726TIP3    H229670   1.895   3.582   1.448  0.2320  1.9277  0.6976
 2727TIP3   OH229671   1.387   0.504  12.707  0.1756 -0.4745 -0.2080
 2727TIP3    H129672   1.473   0.532  12.738  0.1432 -0.8640  0.2397
 2727TIP3    H229673   1.361   0.435  12.768  0.5762 -2.0262 -1.7123
 2728TIP3   OH229674   2.352   5.813  12.545  0.1470  0.0742 -0.1009
 2728TIP3    H129675   2.435   5.771  12.523  0.1138 -0.7604  1.2759
 2728TIP3    H229676   2.378   5.899  12.580  0.2441  1.0135 -2.3175
 2729TIP3   OH229677   4.535   0.577   0.594  0.1234  1.0123  0.0711
 2729TIP3    H129678   4.451   0.623   0.591 -0.7124 -0.4112  0.6336
 2729TIP3    H229679   4.575   0.606   0.676 -0.1618  1.1566  0.1628
 2730TIP3   OH229680   4.532   2.567   4.963  0.0454 -0.7580 -0.6638
 2730TIP3    H129681   4.528   2.661   4.979 -0.4439 -0.5235 -2.0739
 2730TIP3    H229682   4.440   2.539   4.966  0.2159 -1.2702  0.1121
 2731TIP3   OH229683   0.848   6.470   3.635  0.1755 -0.2304 -0.3299
 2731TIP3    H129684   0.922   6.498   3.582 -0.4542  0.8041 -0.7132
 2731TIP3    H229685   0.773   6.472   3.574 -0.0212 -2.2095 -0.2077
 2732TIP3   OH229686   0.893   2.904   4.822 -0.0250  0.2643 -0.2564
 2732TIP3    H129687   0.901   2.954   4.903  3.7679 -2.2981  1.2289
 2732TIP3    H229688   0.819   2.846   4.837 -1.9707  2.5647 -0.4314
 2733TIP3   OH229689   4.894   4.884   1.878  0.2296  0.2458 -0.5238
 2733TIP3    H129690   4.885   4.821   1.806  0.2461 -1.3714  0.8142
 2733TIP3    H229691   4.966   4.849   1.931  0.6384  1.7442 -0.0613
 2734TIP3   OH229692   1.095   6.719  13.675 -0.1218  0.4283  0.1478
 2734TIP3    H129693   1.139   6.804  13.673  0.0500  0.3256 -1.5974
 2734TIP3    H229694   1.002   6.739  13.681  0.0283  0.6539  3.4634
 2735TIP3   OH229695   0.908   5.163   2.068 -0.3094 -0.4642 -0.0684
 2735TIP3    H129696   0.886   5.119   2.150 -1.3676 -0.7910 -0.5073
 2735TIP3    H229697   0.825   5.200   2.038  0.3823  1.0803 -0.1693
 2736TIP3   OH229698   5.208   4.993   1.166  0.2304  0.0013 -0.1800
 2736TIP3    H129699   5.116   4.990   1.191  0.1618 -0.7007 -0.4998
 2736TIP3    H229700   5.245   4.910   1.195  1.3450  1.1741  2.0300
 2737TIP3   OH229701   4.190   4.167  17.013  0.2237 -0.2625  0.4667
 2737TIP3    H129702   4.095   4.163  17.023  0.0937  2.1646  0.8751
 2737TIP3    H229703   4.225   4.164  17.102  0.5865 -1.6137  0.2965
 2738TIP3   OH229704   6.766   0.101  11.672  0.0202 -0.3664 -0.4728
 2738TIP3    H129705   6.792   0.193  11.669 -2.4013  0.3992 -0.3927
 2738TIP3    H229706   6.671   0.103  11.660 -0.1428 -2.8400 -0.0742
 2739TIP3   OH229707   1.627   2.644  17.117 -1.0620  0.8046  0.5381
 2739TIP3    H129708   1.651   2.717  17.060 -0.9932  1.6111  1.5712
 2739TIP3    H229709   1.711   2.603  17.138 -1.1275  0.2147 -0.2934
 2740TIP3   OH229710   0.414   3.854  17.076  0.1181  0.2438 -0.0745
 2740TIP3    H129711   0.372   3.827  17.158 -1.9609 -0.2921 -1.2531
 2740TIP3    H229712   0.356   3.920  17.039 -0.3346 -1.2697 -2.2871
 2741TIP3   OH229713   3.816   0.606  12.837 -0.6965  0.3563 -0.5870
 2741TIP3    H129714   3.808   0.629  12.745 -0.5022 -0.2021 -0.7447
 2741TIP3    H229715   3.758   0.668  12.882 -1.2361  0.2536 -1.1339
 2742TIP3   OH229716   4.799   4.627   1.286 -0.7110 -0.8980 -0.3374
 2742TIP3    H129717   4.774   4.551   1.234 -0.7966 -1.4092  0.4465
 2742TIP3    H229718   4.750   4.699   1.247 -0.0535 -1.0790 -1.5730
 2743TIP3   OH229719   1.739   1.557   1.060 -0.4424  0.0113 -0.0599
 2743TIP3    H129720   1.785   1.514   1.132 -0.2736  1.2105  0.5655
 2743TIP3    H229721   1.808   1.599   1.009 -0.6313 -0.2093 -0.5031
 2744TIP3   OH229722   5.544   0.892   5.615 -0.4908 -0.3831 -0.1938
 2744TIP3    H129723   5.518   0.804   5.589 -0.9527 -0.0622 -0.8500
 2744TIP3    H229724   5.495   0.950   5.556 -1.9601  0.4111  1.6876
 2745TIP3   OH229725   4.331   5.520  12.132  0.7755  0.0010 -0.5408
 2745TIP3    H129726   4.369   5.557  12.052  1.4924 -1.2669 -0.8236
 2745TIP3    H229727   4.376   5.436  12.142 -1.4084 -1.2111 -0.4239
 2746TIP3   OH229728   5.555   1.836  11.086  0.3756 -0.3165 -0.4273
 2746TIP3    H129729   5.601   1.782  11.022  1.7794  1.3137 -0.8764
 2746TIP3    H229730   5.494   1.888  11.035  0.4299 -0.0800 -0.2537
 2747TIP3   OH229731   3.837   6.597  14.922 -0.1035  0.2488 -0.0515
 2747TIP3    H129732   3.798   6.583  15.008  0.3540 -1.6019 -0.1112
 2747TIP3    H229733   3.930   6.581  14.934 -0.1274 -0.7487 -1.0154
 2748TIP3   OH229734   6.214   2.001   2.783  0.9756 -0.4016  0.1703
 2748TIP3    H129735   6.128   2.024   2.817  0.0241 -0.8774 -1.8001
 2748TIP3    H229736   6.228   2.062   2.710  1.6107 -1.3355 -0.5065
 2749TIP3   OH229737   6.598   4.839  14.619 -0.2201  0.0784  0.4971
 2749TIP3    H129738   6.572   4.918  14.666  1.3888 -0.3712  2.2144
 2749TIP3    H229739   6.593   4.769  14.684  1.7018 -0.6276 -0.0615
 2750TIP3   OH229740   1.318   4.598   3.491  0.5617 -0.2690  0.4778
 2750TIP3    H129741   1.412   4.606   3.504  0.2932  0.0015  2.6631
 2750TIP3    H229742   1.284   4.686   3.510 -0.0544 -0.0824 -1.3337
 2751TIP3   OH229743   2.250   5.110   2.739 -0.5543 -0.3915 -0.3093
 2751TIP3    H129744   2.293   5.177   2.792 -0.9480  1.5757 -2.3184
 2751TIP3    H229745   2.286   5.123   2.651 -0.6789 -2.8566 -0.7905
 2752TIP3   OH229746   5.591   3.721  15.673 -0.2813  0.2938  0.4801
 2752TIP3    H129747   5.516   3.735  15.731 -0.8962 -0.2926 -0.1508
 2752TIP3    H229748   5.553   3.722  15.585  0.2252 -1.3459  0.2169
 2753TIP3   OH229749   6.014   0.993  13.641 -0.2910 -0.0378 -0.0271
 2753TIP3    H129750   6.068   0.957  13.711  0.6600  1.6991  0.1672
 2753TIP3    H229751   5.934   0.940  13.643  0.8626 -1.8667  0.4833
 2754TIP3   OH229752   2.305   3.142  12.269  0.4807  0.4019  0.0044
 2754TIP3    H129753   2.371   3.210  12.280 -0.2906  1.0170  1.0229
 2754TIP3    H229754   2.323   3.104  12.183  2.3837  0.2860  0.4234
 2755TIP3   OH229755   5.125   5.136   1.651  0.6318  0.4516  0.6994
 2755TIP3    H129756   5.162   5.107   1.734  3.1453  0.7034 -0.2462
 2755TIP3    H229757   5.030   5.136   1.665  0.7524 -2.9636  2.4076
 2756TIP3   OH229758   1.126   3.708  12.144 -0.1833 -0.0880  0.1524
 2756TIP3    H129759   1.064   3.773  12.110 -0.4160  0.6872  1.9245
 2756TIP3    H229760   1.209   3.756  12.151 -0.1860 -0.1661  0.8001
 2757TIP3   OH229761   3.575   6.430   1.247 -0.6930  0.1223  0.0834
 2757TIP3    H129762   3.650   6.482   1.278  0.0661 -0.5448 -0.5961
 2757TIP3    H229763   3.523   6.492   1.196  0.4586  0.1452 -1.1362
 2758TIP3   OH229764   3.854   0.542  12.107 -0.0663  0.0860  0.3574
 2758TIP3    H129765   3.790   0.483  12.066  1.2124 -0.5406 -0.8005
 2758TIP3    H229766   3.855   0.618  12.050 -0.2035  0.3569  0.7125
 2759TIP3   OH229767   3.137   3.867   0.700  0.3363 -0.2756 -0.4958
 2759TIP3    H129768   3.206   3.915   0.654  0.9985 -0.8996 -0.1723
 2759TIP3    H229769   3.082   3.830   0.630  0.5566 -0.0969 -0.7631
 2760TIP3   OH229770   3.481   0.998  12.617  0.1971  0.2188 -0.0075
 2760TIP3    H129771   3.486   1.009  12.712  1.9097 -0.4408  0.0143
 2760TIP3    H229772   3.542   0.927  12.597  0.6130  0.9869 -1.7052
 2761TIP3   OH229773   4.500   5.313  16.655 -0.2609  0.4858 -0.4235
 2761TIP3    H129774   4.552   5.389  16.682  0.9685 -0.6265  0.4877
 2761TIP3    H229775   4.527   5.296  16.565  1.6405 -0.5817  0.3075
 2762TIP3   OH229776   0.964   1.300  11.266 -0.7552  0.1037 -0.1621
 2762TIP3    H129777   1.020   1.329  11.338  0.5553  0.3420 -1.2321
 2762TIP3    H229778   0.879   1.340  11.283 -0.1708  1.0035  0.6927
 2763TIP3   OH229779   2.029   1.843  12.621 -0.2670 -0.0354 -0.1717
 2763TIP3    H129780   2.114   1.799  12.616  0.6465  1.6756 -0.2487
 2763TIP3    H229781   2.046   1.933  12.595 -1.8939  0.6480  0.9167
 2764TIP3   OH229782   6.607   0.213   3.923  0.4462 -0.0002 -0.5326
 2764TIP3    H129783   6.679   0.154   3.945 -0.0735 -0.6180 -0.4625
 2764TIP3    H229784   6.641   0.266   3.850  2.0693  1.8633  1.4466
 2765TIP3   OH229785   6.742   1.217   2.075  0.2233  0.1085 -0.0833
 2765TIP3    H129786   6.714   1.242   2.163  0.6362  2.1722 -0.4984
 2765TIP3    H229787   6.663   1.184   2.033 -0.3615  0.7687  0.4923
 2766TIP3   OH229788   6.548   0.712   1.901 -0.0304 -0.1731  0.1455
 2766TIP3    H129789   6.569   0.719   1.808 -1.6950 -0.0175 -0.2478
 2766TIP3    H229790   6.488   0.784   1.917 -0.6083 -0.8481  1.0846
 2767TIP3   OH229791   4.529   2.281   2.242 -0.1624 -0.1757 -0.0338
 2767TIP3    H129792   4.456   2.289   2.304 -0.5139  0.1237 -0.4795
 2767TIP3    H229793   4.583   2.358   2.258  0.8222 -1.0767  1.2482
 2768TIP3   OH229794   0.630   3.931   3.114 -0.7776 -0.5726  0.2220
 2768TIP3    H129795   0.563   3.988   3.151 -0.5453 -0.9967  1.3474
 2768TIP3    H229796   0.693   3.991   3.074 -0.6001 -0.0365  1.2832
 2769TIP3   OH229797   4.659   5.360  10.389 -0.0551  0.1062 -0.2762
 2769TIP3    H129798   4.576   5.346  10.344  0.4370 -1.7420 -0.6736
 2769TIP3    H229799   4.664   5.455  10.401 -1.0962  0.4892 -2.4330
 2770TIP3   OH229800   5.381   2.315  13.861  0.4723 -0.2503 -0.1580
 2770TIP3    H129801   5.433   2.300  13.782  0.4723 -1.9372  0.1192
 2770TIP3    H229802   5.290   2.320  13.830  0.6528  1.4546 -0.5003
 2771TIP3   OH229803   3.586   1.235   2.465  0.1329 -0.0648 -0.1708
 2771TIP3    H129804   3.527   1.184   2.410  0.9687  2.0881 -3.3031
 2771TIP3    H229805   3.670   1.231   2.420  1.4720  0.0762  2.1549
 2772TIP3   OH229806   4.031   5.723   3.254 -0.0350 -0.0990 -0.0856
 2772TIP3    H129807   4.047   5.665   3.180 -0.2157 -0.8821  0.4735
 2772TIP3    H229808   4.118   5.752   3.282  0.3192 -2.1644  1.2321
 2773TIP3   OH229809   2.526   0.509  15.962 -0.5671  0.3040  0.4549
 2773TIP3    H129810   2.454   0.565  15.935 -0.8735 -0.4699 -0.4172
 2773TIP3    H229811   2.588   0.514  15.889 -0.3668 -0.0882  0.5959
 2774TIP3   OH229812   0.995   4.866   5.266 -0.2463  0.0992 -0.1477
 2774TIP3    H129813   0.922   4.829   5.215  0.0190 -0.5606 -0.0627
 2774TIP3    H229814   0.953   4.906   5.342 -0.6513  1.1597 -0.9059
 2775TIP3   OH229815   6.346   4.234  10.690 -0.7635 -0.1733  0.3416
 2775TIP3    H129816   6.432   4.270  10.713  0.0835 -0.7431 -1.6756
 2775TIP3    H229817   6.287   4.268  10.757  0.9981  0.3600  1.7064
 2776TIP3   OH229818   5.805   6.125  17.116 -0.0282 -0.2083  0.1313
 2776TIP3    H129819   5.780   6.168  17.198  0.1609 -0.8973  0.5573
 2776TIP3    H229820   5.886   6.169  17.090 -0.4684  0.5032 -0.0757
 2777TIP3   OH229821   2.487   5.872  16.096  0.1237  0.0301  0.1636
 2777TIP3    H129822   2.459   5.944  16.039 -1.2663 -0.0195  0.7281
 2777TIP3    H229823   2.406   5.824  16.115  1.1396 -2.2022 -0.8700
 2778TIP3   OH229824   3.719   1.034   4.655 -0.1429 -0.1384  0.6537
 2778TIP3    H129825   3.713   1.004   4.746 -1.1726 -2.2641 -0.0622
 2778TIP3    H229826   3.813   1.042   4.639  0.0496  0.7958  2.0271
 2779TIP3   OH229827   3.676   2.263  12.715  0.1949 -0.8034 -0.0006
 2779TIP3    H129828   3.659   2.227  12.628  0.7394  0.1126 -0.5077
 2779TIP3    H229829   3.771   2.255  12.725  0.0787 -1.3392  0.7168
 2780TIP3   OH229830   5.483   1.563  12.932 -0.0919  0.3126  0.3495
 2780TIP3    H129831   5.558   1.613  12.965 -1.3144  1.2659  1.8601
 2780TIP3    H229832   5.521   1.483  12.895  1.7697  1.4760 -0.3851
 2781TIP3   OH229833   3.945   5.471   2.329  0.4758  0.5211  0.3943
 2781TIP3    H129834   3.932   5.385   2.289  0.8157  0.6838 -0.0611
 2781TIP3    H229835   4.023   5.507   2.287 -0.3062  1.5354 -0.2477
 2782TIP3   OH229836   2.845   1.065   3.666 -0.0834  0.3974  0.8532
 2782TIP3    H129837   2.807   1.027   3.588 -2.5785  0.2874  2.0387
 2782TIP3    H229838   2.821   1.158   3.662  2.1621  1.0330  0.1962
 2783TIP3   OH229839   4.572   5.224  16.414 -0.1072  0.1064  0.2027
 2783TIP3    H129840   4.481   5.239  16.388 -0.8975 -2.8370  0.9203
 2783TIP3    H229841   4.616   5.199  16.332 -0.7005 -1.3219  0.2802
 2784TIP3   OH229842   3.613   3.231  14.982 -0.1728 -0.5237 -0.0730
 2784TIP3    H129843   3.590   3.312  15.027  0.4283 -0.8826  0.9077
 2784TIP3    H229844   3.709   3.232  14.978 -0.1851 -0.9038 -0.5865
 2785TIP3   OH229845   0.913   6.518  11.238  0.3493  0.4577 -0.0700
 2785TIP3    H129846   0.832   6.467  11.237  0.2486  0.6209 -0.9463
 2785TIP3    H229847   0.884   6.609  11.230  0.5859  0.5777  0.3925
 2786TIP3   OH229848   4.762   6.338  12.622  0.3609  0.4512  0.2581
 2786TIP3    H129849   4.790   6.248  12.639 -0.2930  0.4033  1.1517
 2786TIP3    H229850   4.836   6.378  12.577  1.3244 -0.0539  1.3573
 2787TIP3   OH229851   0.845   2.856   0.850 -0.5318  0.3509  0.3138
 2787TIP3    H129852   0.835   2.928   0.787 -0.1974  1.0332  1.0233
 2787TIP3    H229853   0.794   2.785   0.813  1.5698 -0.1151 -1.9882
 2788TIP3   OH229854   1.589   5.214   0.473  0.0303  0.2936  0.6491
 2788TIP3    H129855   1.663   5.162   0.443  0.6431  0.8609  1.1289
 2788TIP3    H229856   1.606   5.302   0.439 -0.1040  0.5694  1.2835
 2789TIP3   OH229857   5.480   4.372   0.390 -0.0158  0.3079  0.1824
 2789TIP3    H129858   5.514   4.364   0.301  0.8518 -0.0499  0.5270
 2789TIP3    H229859   5.529   4.305   0.439 -1.3352 -0.3124  0.6798
 2790TIP3   OH229860   2.304   0.942  15.052 -0.0581 -0.5914 -0.0340
 2790TIP3    H129861   2.223   0.910  15.013 -0.9253  0.1605  1.0963
 2790TIP3    H229862   2.298   0.915  15.144  0.6631  0.0509  0.2080
 2791TIP3   OH229863   6.735   5.599  16.305 -0.6767 -0.5957  0.8051
 2791TIP3    H129864   6.710   5.595  16.398  0.4008 -0.1616  1.1350
 2791TIP3    H229865   6.828   5.576  16.305 -0.4198  0.3823 -0.0480
 2792TIP3   OH229866   3.146   1.382   4.423 -0.4360 -0.0446 -0.4511
 2792TIP3    H129867   3.192   1.319   4.368  0.4659 -0.3007  0.5632
 2792TIP3    H229868   3.155   1.465   4.376  1.7731  0.0791  0.0368
 2793TIP3   OH229869   2.187   5.058   0.275  0.1960  0.1702 -0.2656
 2793TIP3    H129870   2.111   5.089   0.325  1.3190  0.6351  1.2205
 2793TIP3    H229871   2.239   5.008   0.338  0.1733 -1.8591 -1.7578
 2794TIP3   OH229872   2.342   2.707  13.758 -0.0760 -0.0417 -0.3873
 2794TIP3    H129873   2.285   2.716  13.834  1.2927  1.4773  0.5012
 2794TIP3    H229874   2.284   2.721  13.683 -0.8898  1.4711  0.4849
 2795TIP3   OH229875   5.210   5.480  11.391 -0.3671 -0.4735  0.3624
 2795TIP3    H129876   5.189   5.410  11.329  1.0015 -0.1717 -0.4870
 2795TIP3    H229877   5.142   5.546  11.377 -1.0636 -1.1741  0.4211
 2796TIP3   OH229878   0.845   2.790   1.639  0.1064  0.4342  0.1557
 2796TIP3    H129879   0.772   2.734   1.664  0.3087  0.3415  0.5511
 2796TIP3    H229880   0.857   2.774   1.546 -0.8500  1.0032 -0.0680
 2797TIP3   OH229881   0.196   4.795   0.046 -0.1632 -0.4795 -0.3059
 2797TIP3    H129882   0.283   4.803   0.009 -0.4366  0.6223 -0.7384
 2797TIP3    H229883   0.208   4.811   0.140 -0.1174  1.3971 -0.5906
 2798TIP3   OH229884   5.768   0.230  14.552 -0.1847  0.0974  0.0305
 2798TIP3    H129885   5.831   0.160  14.572  0.3190  0.8682  1.2134
 2798TIP3    H229886   5.730   0.203  14.468  0.9177 -0.9487 -0.1762
 2799TIP3   OH229887   0.146   5.146   0.698  0.8610  0.4347 -0.1867
 2799TIP3    H129888   0.055   5.174   0.694  0.1719 -1.2111  1.6590
 2799TIP3    H229889   0.159   5.123   0.790  2.7052 -0.7196 -0.6828
 2800TIP3   OH229890   1.632   6.292  13.743 -0.1268 -0.2666 -0.7542
 2800TIP3    H129891   1.561   6.228  13.737 -1.3727  0.9924  0.1163
 2800TIP3    H229892   1.592   6.376  13.722  1.2129  0.4261 -0.6994
 2801TIP3   OH229893   0.870   0.986   5.169  0.1390  0.1043 -0.5739
 2801TIP3    H129894   0.790   1.005   5.218  0.3659 -2.2417  0.8724
 2801TIP3    H229895   0.849   0.909   5.116  1.3224 -0.3626 -0.3969
 2802TIP3   OH229896   4.878   3.701  10.948 -0.3114  0.2582  0.0683
 2802TIP3    H129897   4.912   3.701  10.858 -1.3726 -0.4089 -0.3505
 2802TIP3    H229898   4.799   3.756  10.943 -0.6232 -0.1465  0.4849
 2803TIP3   OH229899   1.803   5.440  16.619  0.2382  0.3517  0.0457
 2803TIP3    H129900   1.773   5.386  16.692 -0.3822  1.3372  0.5351
 2803TIP3    H229901   1.811   5.378  16.546 -0.7207 -0.3705  0.5214
 2804TIP3   OH229902   0.655   0.451  11.564 -0.5611  0.2514 -0.1351
 2804TIP3    H129903   0.606   0.441  11.645  0.0875  1.2415  0.3960
 2804TIP3    H229904   0.736   0.401  11.579 -1.8093 -2.3718 -1.4383
 2805TIP3   OH229905   2.819   2.314   6.002  0.2498 -0.0103  0.2205
 2805TIP3    H129906   2.747   2.314   5.938  0.2240  0.8703  0.2442
 2805TIP3    H229907   2.823   2.224   6.033 -1.4072  0.1157  0.8527
 2806TIP3   OH229908   3.363   1.254  14.262 -0.1356  0.0587  0.4386
 2806TIP3    H129909   3.400   1.174  14.299 -1.3896 -0.2505  1.1039
 2806TIP3    H229910   3.420   1.324  14.293 -0.4687 -0.3205  2.0328
 2807TIP3   OH229911   6.801   1.937  11.344 -0.1202  0.5010 -0.1806
 2807TIP3    H129912   6.760   1.975  11.422 -0.0722  3.0469 -1.2977
 2807TIP3    H229913   6.728   1.900  11.294 -0.1413 -1.2310  1.0444
 2808TIP3   OH229914   1.758   3.960   3.481 -0.6217 -0.6429 -0.5198
 2808TIP3    H129915   1.762   3.971   3.576  2.2217  1.2022 -0.7436
 2808TIP3    H229916   1.847   3.979   3.451 -1.7641  0.2698 -3.6920
 2809TIP3   OH229917   6.595   4.727  15.738  0.7154  0.1640 -0.1566
 2809TIP3    H129918   6.612   4.763  15.826  0.6683 -0.4796  0.1211
 2809TIP3    H229919   6.522   4.667  15.751  0.3502  0.4666 -0.7444
 2810TIP3   OH229920   3.081   0.516   4.817  0.0039  0.1553  0.4159
 2810TIP3    H129921   3.093   0.603   4.778  0.2428  0.2074  0.6011
 2810TIP3    H229922   3.170   0.486   4.836 -0.1197  0.1931  1.0555
 2811TIP3   OH229923   1.294   1.987  14.482  0.1998  0.4939 -0.3378
 2811TIP3    H129924   1.228   2.016  14.420  0.4428  2.1139  0.1058
 2811TIP3    H229925   1.250   1.988  14.567  0.0223 -1.1697 -0.3897
 2812TIP3   OH229926   4.705   0.056   0.501 -0.5877  0.2239  0.0068
 2812TIP3    H129927   4.762   0.046   0.577 -1.9974  0.0586  1.0997
 2812TIP3    H229928   4.719   0.147   0.472  0.8635 -0.0847 -0.3195
 2813TIP3   OH229929   3.709   6.500  12.843 -0.4980  0.2639  0.6603
 2813TIP3    H129930   3.638   6.561  12.822 -1.2305 -0.8741 -0.2673
 2813TIP3    H229931   3.776   6.517  12.777 -0.2987  0.6784  0.9615
 2814TIP3   OH229932   1.679   6.271   0.987  0.4299  0.5261 -0.4271
 2814TIP3    H129933   1.638   6.242   0.905 -0.0428 -0.5169  0.1536
 2814TIP3    H229934   1.653   6.362   0.996 -0.2716  0.3916 -0.9900
 2815TIP3   OH229935   1.858   6.687  13.830  0.7091 -0.7893  0.4094
 2815TIP3    H129936   1.835   6.712  13.920  0.3935 -1.3686  0.4977
 2815TIP3    H229937   1.953   6.688  13.828  0.7157  0.6213  0.3446
 2816TIP3   OH229938   5.180   2.735  12.992  0.0350 -0.2245  0.3344
 2816TIP3    H129939   5.162   2.720  12.900  2.6924 -0.3893 -0.2516
 2816TIP3    H229940   5.096   2.761  13.030 -0.6856  2.1093 -2.5708
 2817TIP3   OH229941   5.774   2.718   1.853  0.1036 -0.0551  0.3290
 2817TIP3    H129942   5.860   2.730   1.893  0.0743 -1.6607  0.9297
 2817TIP3    H229943   5.761   2.797   1.801  0.7645  1.4685  2.3410
 2818TIP3   OH229944   0.590   6.810  12.700  0.3004  0.3788  0.0103
 2818TIP3    H129945   0.611   6.718  12.715 -1.1153 -0.3813 -2.1275
 2818TIP3    H229946   0.540   6.837  12.777 -0.8857 -1.2251 -0.1626
 2819TIP3   OH229947   5.334   4.349   1.983  0.1043  0.4246 -0.4550
 2819TIP3    H129948   5.334   4.292   2.061  0.3312 -0.8790 -1.3629
 2819TIP3    H229949   5.325   4.437   2.018 -1.4349 -0.2383  0.9616
 2820TIP3   OH229950   6.620   5.635  15.677 -0.5884  0.0330 -0.0600
 2820TIP3    H129951   6.589   5.611  15.765  0.6075  1.9367  0.9405
 2820TIP3    H229952   6.607   5.556  15.625 -1.5069 -1.0950  1.7731
 2821TIP3   OH229953   3.642   3.693  16.326  0.4997 -0.4812 -0.4430
 2821TIP3    H129954   3.594   3.775  16.319  0.0929 -0.6082  0.7345
 2821TIP3    H229955   3.701   3.694  16.250  1.5657  1.5905  0.3220
 2822TIP3   OH229956   3.157   1.348   4.716  0.1051  0.0381 -0.4560
 2822TIP3    H129957   3.149   1.357   4.621 -1.2429 -2.1695 -0.6270
 2822TIP3    H229958   3.157   1.253   4.731 -0.3085  0.3353  1.7897
 2823TIP3   OH229959   5.068   6.387   1.128 -1.0093  0.4264  0.5735
 2823TIP3    H129960   5.005   6.379   1.056 -1.2417 -1.6966  0.9335
 2823TIP3    H229961   5.021   6.352   1.204  0.7883 -1.9958  0.6909
 2824TIP3   OH229962   2.772   0.108   2.801  0.6531  0.1816 -0.6766
 2824TIP3    H129963   2.760   0.013   2.796 -0.2853  0.3100 -1.1842
 2824TIP3    H229964   2.776   0.136   2.710 -0.3425  0.7593 -0.5601
 2825TIP3   OH229965   4.129   1.088   4.238  0.1429  0.3149  0.1464
 2825TIP3    H129966   4.219   1.110   4.215  1.0406 -1.2164  1.9280
 2825TIP3    H229967   4.088   1.066   4.155  1.9876 -0.8648 -0.5125
 2826TIP3   OH229968   6.049   2.696   2.428  0.3876  0.1530 -0.6588
 2826TIP3    H129969   6.138   2.731   2.423  0.8043 -0.9315 -1.1021
 2826TIP3    H229970   6.005   2.752   2.492  0.8623  1.8057 -1.7069
 2827TIP3   OH229971   5.027   0.082  11.847  0.5326 -0.2008 -0.3861
 2827TIP3    H129972   5.010  -0.005  11.882 -2.6707  0.1032 -0.8532
 2827TIP3    H229973   5.121   0.083  11.829  0.6750 -3.5446 -0.4319
 2828TIP3   OH229974   2.241   5.388  12.631  0.3996 -0.4656 -0.3751
 2828TIP3    H129975   2.147   5.371  12.637  0.3904 -0.8463 -1.4504
 2828TIP3    H229976   2.256   5.461  12.691 -0.7852  0.3989 -1.0951
 2829TIP3   OH229977   6.720   1.176  14.369 -0.1969  0.0668  0.0424
 2829TIP3    H129978   6.783   1.173  14.298  0.6967  0.3640  0.8078
 2829TIP3    H229979   6.693   1.085  14.381 -0.3435  0.0104 -0.6447
 2830TIP3   OH229980   4.314   5.089  16.786 -0.0811  0.7147 -0.0224
 2830TIP3    H129981   4.290   5.122  16.700  0.6935  1.3998  0.0181
 2830TIP3    H229982   4.236   5.104  16.840 -0.1270  1.4384 -0.2849
 2831TIP3   OH229983   3.694   2.371   0.747  0.0645  0.1247 -0.0469
 2831TIP3    H129984   3.715   2.370   0.840 -0.0240 -0.5866 -0.0224
 2831TIP3    H229985   3.607   2.411   0.742  0.7595  1.7010 -0.0043
 2832TIP3   OH229986   0.987   1.758  11.221  0.0748  0.1128  0.5231
 2832TIP3    H129987   0.976   1.843  11.263 -2.3839 -0.5400  1.4215
 2832TIP3    H229988   0.913   1.706  11.254  0.0997 -1.5891 -1.8775
 2833TIP3   OH229989   1.342   2.938  10.331  0.2349  0.8265 -0.1798
 2833TIP3    H129990   1.389   2.894  10.260  1.8281  0.6628  0.9315
 2833TIP3    H229991   1.409   2.957  10.396 -1.3559 -0.2249  1.9018
 2834TIP3   OH229992   1.336   6.454  13.291  0.0004 -0.2818  0.2252
 2834TIP3    H129993   1.338   6.447  13.386 -0.1081 -1.4104  0.1672
 2834TIP3    H229994   1.428   6.462  13.265 -0.0515  5.4892  0.6587
 2835TIP3   OH229995   0.817   4.965  12.118  0.2422 -0.1182  0.7215
 2835TIP3    H129996   0.780   5.040  12.072 -0.9396 -1.1252 -0.0290
 2835TIP3    H229997   0.784   4.972  12.207 -2.3553 -1.2818 -0.0520
 2836TIP3   OH229998   4.241   2.179  12.572  0.1777 -0.1884 -0.4279
 2836TIP3    H129999   4.264   2.090  12.545 -3.0030 -0.8950 -1.2191
 2836TIP3    H230000   4.231   2.174  12.667 -0.4566 -0.8167 -0.5215
 2837TIP3   OH230001   3.247   3.968  11.900 -0.8410  0.1445 -0.2978
 2837TIP3    H130002   3.191   4.045  11.908 -1.6031 -0.4080 -0.2276
 2837TIP3    H230003   3.234   3.938  11.810  0.0709  0.5532 -0.5788
 2838TIP3   OH230004   0.251   5.806  15.656 -0.0571 -0.0130 -0.2825
 2838TIP3    H130005   0.171   5.765  15.689 -0.8225  1.4153 -0.2803
 2838TIP3    H230006   0.220   5.871  15.593  1.1151  0.3858 -0.4678
 2839TIP3   OH230007   4.083   5.041   3.438 -0.6694  0.3349  0.4813
 2839TIP3    H130008   4.110   5.070   3.350 -1.5862  0.6675  0.2951
 2839TIP3    H230009   4.049   5.121   3.480 -0.6173  0.0929  0.9903
 2840TIP3   OH230010   1.241   3.223  15.687  0.0971 -0.5886  0.1396
 2840TIP3    H130011   1.306   3.264  15.744  1.3999 -1.3572 -0.7539
 2840TIP3    H230012   1.185   3.296  15.660  1.6237  0.4357 -0.4347
 2841TIP3   OH230013   3.971   5.811  11.912  0.6198 -0.6567 -0.1344
 2841TIP3    H130014   3.952   5.869  11.839  1.8246 -0.7140 -0.5161
 2841TIP3    H230015   4.065   5.823  11.929  0.5629 -1.3501  0.7752
 2842TIP3   OH230016   4.425   5.623  13.313  0.1552  0.1128 -0.8300
 2842TIP3    H130017   4.411   5.674  13.393  0.0517  0.5253 -1.1050
 2842TIP3    H230018   4.347   5.569  13.305  0.8753 -1.1223  0.2077
 2843TIP3   OH230019   3.860   3.825   5.634  0.7003 -0.3880 -0.3853
 2843TIP3    H130020   3.834   3.758   5.571  0.5529  1.8845 -2.9184
 2843TIP3    H230021   3.778   3.864   5.663  0.8393 -0.5862  0.3116
 2844TIP3   OH230022   0.300   0.147  13.270 -0.1090 -0.1858  0.2865
 2844TIP3    H130023   0.346   0.230  13.263  0.4779 -0.4710  0.5997
 2844TIP3    H230024   0.301   0.127  13.364  0.6365 -1.0096  0.1224
 2845TIP3   OH230025   6.344   1.536  10.829 -0.0506 -0.0833 -0.5141
 2845TIP3    H130026   6.295   1.585  10.896 -1.5783  1.1779 -2.4093
 2845TIP3    H230027   6.289   1.459  10.811  0.4340 -0.5018 -0.2199
 2846TIP3   OH230028   6.103   6.381  10.677  0.5669  0.6036  0.2600
 2846TIP3    H130029   6.041   6.381  10.750 -0.2388 -0.2648 -0.3834
 2846TIP3    H230030   6.179   6.333  10.710  0.1055 -0.0084  0.4626
 2847TIP3   OH230031   1.329   0.136  10.795 -0.6916  0.6804 -0.5502
 2847TIP3    H130032   1.240   0.103  10.782 -0.7611  1.3729 -2.0099
 2847TIP3    H230033   1.344   0.196  10.722  1.3502 -0.2183 -0.9427
 2848TIP3   OH230034   5.734   1.226  16.429  1.0209  0.0132 -0.6049
 2848TIP3    H130035   5.762   1.218  16.338 -0.0751  0.9458 -1.0554
 2848TIP3    H230036   5.687   1.145  16.448 -0.5293  0.6279 -1.5701
 2849TIP3   OH230037   0.760   1.988  16.780 -0.4259  0.2417  0.0401
 2849TIP3    H130038   0.767   1.951  16.692 -2.0647 -0.4940  0.2019
 2849TIP3    H230039   0.772   1.914  16.839  1.0708  0.7919  0.4856
 2850TIP3   OH230040   2.208   2.323   4.203 -0.3773 -0.1131 -0.0814
 2850TIP3    H130041   2.138   2.272   4.243  0.0654  0.1518  1.0711
 2850TIP3    H230042   2.281   2.317   4.264  1.4315 -2.1970 -2.2692
 2851TIP3   OH230043   4.437   3.723   2.199 -0.3315  0.3267 -0.3535
 2851TIP3    H130044   4.463   3.671   2.275 -0.7573 -0.0475 -0.4572
 2851TIP3    H230045   4.440   3.814   2.229 -2.6498  0.0942  0.8082
 2852TIP3   OH230046   4.417   2.868  11.446 -0.1337  0.6850  0.0106
 2852TIP3    H130047   4.358   2.843  11.517  2.4199 -0.5760  1.8526
 2852TIP3    H230048   4.455   2.951  11.475 -0.3039  1.0277 -0.7232
 2853TIP3   OH230049   1.440   5.032  11.661 -0.3967  0.0284 -0.5834
 2853TIP3    H130050   1.430   5.054  11.568  0.5420  0.3494 -0.6226
 2853TIP3    H230051   1.441   4.937  11.663  2.6644 -0.0553 -1.3196
 2854TIP3   OH230052   2.269   1.095   3.209  0.7385  0.2983 -0.0467
 2854TIP3    H130053   2.311   1.128   3.289 -1.5242  0.4833  1.1583
 2854TIP3    H230054   2.277   1.000   3.215 -0.2321  0.2585  0.9239
 2855TIP3   OH230055   2.148   4.909  16.124 -0.0391 -0.1784  0.1232
 2855TIP3    H130056   2.224   4.915  16.066 -0.3599 -0.9128 -0.3900
 2855TIP3    H230057   2.184   4.887  16.210  0.2877 -1.1722 -0.2561
 2856TIP3   OH230058   4.501   5.965   1.397  0.5017 -0.6379 -0.1251
 2856TIP3    H130059   4.555   5.934   1.324  1.4623 -2.6014  1.3213
 2856TIP3    H230060   4.452   5.887   1.424  0.0302  0.0922  1.1922
 2857TIP3   OH230061   2.847   3.418   0.592  0.1231  0.5995 -0.2890
 2857TIP3    H130062   2.785   3.477   0.635  0.0395 -0.2129  0.7389
 2857TIP3    H230063   2.816   3.330   0.614  2.0046  0.1688  0.8254
 2858TIP3   OH230064   5.725   3.257  12.708  0.1267 -0.4949 -0.0308
 2858TIP3    H130065   5.633   3.253  12.733  0.2578 -0.2827  0.4893
 2858TIP3    H230066   5.756   3.340  12.744  0.5730 -0.6610 -0.0292
 2859TIP3   OH230067   4.399   3.631  11.519 -0.2087 -0.2577  0.1683
 2859TIP3    H130068   4.320   3.582  11.541  1.1393 -1.5982  2.3472
 2859TIP3    H230069   4.417   3.609  11.428 -0.9062 -2.0438  0.4321
 2860TIP3   OH230070   1.616   4.417   4.036 -0.1075 -0.1029  0.4663
 2860TIP3    H130071   1.540   4.400   3.979  1.7886  0.0184 -2.3169
 2860TIP3    H230072   1.642   4.330   4.067 -0.2067 -0.3848 -0.2187
 2861TIP3   OH230073   4.617   1.618  12.841 -0.3545  0.5581  0.2774
 2861TIP3    H130074   4.622   1.692  12.782 -0.6090  0.9294  0.7176
 2861TIP3    H230075   4.627   1.656  12.929 -0.1086  0.0321  0.4823
 2862TIP3   OH230076   5.911   3.384   3.368  0.4630  0.2750 -0.3020
 2862TIP3    H130077   5.838   3.440   3.396  1.7695  1.1031  1.5916
 2862TIP3    H230078   5.956   3.360   3.449  1.6984 -1.0868 -1.3427
 2863TIP3   OH230079   3.409   3.646  14.988 -0.8787  0.7862 -0.7884
 2863TIP3    H130080   3.460   3.644  14.908 -0.8113 -0.6265 -0.7321
 2863TIP3    H230081   3.318   3.631  14.960 -0.7709 -0.3623 -0.5557
 2864TIP3   OH230082   5.863   3.947  14.810  0.2691 -0.0252  0.3808
 2864TIP3    H130083   5.777   3.913  14.784  0.2484 -0.2537  0.7429
 2864TIP3    H230084   5.924   3.912  14.745  0.3833 -1.4845  1.2429
 2865TIP3   OH230085   6.093   1.478  13.731  0.4315 -0.2821 -0.2724
 2865TIP3    H130086   6.089   1.404  13.669  0.2052 -0.5661  0.0749
 2865TIP3    H230087   6.171   1.527  13.705  0.1029 -0.1540 -1.0578
 2866TIP3   OH230088   2.210   0.603   5.642 -0.4109 -0.4974  0.0789
 2866TIP3    H130089   2.248   0.659   5.575  0.6146 -1.7505 -0.4237
 2866TIP3    H230090   2.160   0.663   5.698 -0.9124  0.6324 -1.5174
 2867TIP3   OH230091   3.692   6.777   1.019 -0.0605 -0.0022  0.4929
 2867TIP3    H130092   3.753   6.721   0.970  0.0145 -0.9569  1.6370
 2867TIP3    H230093   3.618   6.789   0.960  0.3975 -0.4070 -0.1825
 2868TIP3   OH230094   3.133   3.729   4.122 -0.5502  0.2575  0.2591
 2868TIP3    H130095   3.219   3.691   4.137 -0.8712 -0.8609 -0.5814
 2868TIP3    H230096   3.126   3.801   4.185  0.7814  0.0329  0.6758
 2869TIP3   OH230097   4.677   3.831  12.269 -0.0909 -0.0216  0.4520
 2869TIP3    H130098   4.645   3.768  12.204  0.1606  1.2286 -0.9176
 2869TIP3    H230099   4.638   3.801  12.351  0.9703 -2.6551  0.0858
 2870TIP3   OH230100   3.708   5.262   5.686  0.1194 -0.1732  0.0856
 2870TIP3    H130101   3.741   5.325   5.749  1.9076 -0.2018 -0.7419
 2870TIP3    H230102   3.740   5.177   5.718 -0.5174 -0.4077  0.1082
 2871TIP3   OH230103   5.093   4.921  12.492  0.5462  0.1812  0.3518
 2871TIP3    H130104   5.145   4.892  12.567 -0.4407 -2.8629 -0.0266
 2871TIP3    H230105   5.148   4.901  12.416 -0.8671 -2.8156 -0.0338
 2872TIP3   OH230106   4.243   2.294  14.485  0.5698 -0.0070  0.0609
 2872TIP3    H130107   4.211   2.285  14.396  3.2570  0.2119 -1.0273
 2872TIP3    H230108   4.240   2.388  14.503  0.0253 -0.0519  0.2218
 2873TIP3   OH230109   1.960   5.050  11.274 -0.2574 -0.0682  0.2368
 2873TIP3    H130110   2.027   4.992  11.239  0.2166  0.2307  0.6415
 2873TIP3    H230111   1.877   5.008  11.252  0.0091  0.2339 -1.5051
 2874TIP3   OH230112   3.615   3.548  13.208 -0.2330 -0.4163  0.7986
 2874TIP3    H130113   3.624   3.483  13.137  1.0169  1.6790 -1.1002
 2874TIP3    H230114   3.701   3.589  13.213 -0.8913  0.8566  2.1840
 2875TIP3   OH230115   6.816   0.849   5.057 -0.1211  0.0753  0.2664
 2875TIP3    H130116   6.836   0.943   5.060  1.0023 -0.1535  0.2079
 2875TIP3    H230117   6.880   0.809   5.115 -2.5646 -0.3781  2.9255
 2876TIP3   OH230118   0.972   5.547  12.322 -0.4003 -0.4783 -0.7658
 2876TIP3    H130119   1.039   5.575  12.259 -1.5312 -1.0683 -2.2967
 2876TIP3    H230120   1.018   5.541  12.405  1.6149 -1.5719 -1.8992
 2877TIP3   OH230121   3.882   3.013  12.973  0.1416 -0.1581  0.5742
 2877TIP3    H130122   3.971   3.045  12.957 -0.6178  1.6199 -0.4957
 2877TIP3    H230123   3.878   2.995  13.067  1.8938 -1.2019  0.4742
 2878TIP3   OH230124   2.714   0.114  16.483  0.1168 -0.3110 -0.0219
 2878TIP3    H130125   2.789   0.173  16.485 -0.3180  0.2286  1.1249
 2878TIP3    H230126   2.725   0.064  16.402  1.6984 -0.2322  0.1199
 2879TIP3   OH230127   5.122   0.739  14.723  0.3081  0.1757  0.0351
 2879TIP3    H130128   5.118   0.716  14.630 -2.0058 -1.8792  0.5230
 2879TIP3    H230129   5.062   0.812  14.732 -0.8450 -0.7469  0.1229
 2880TIP3   OH230130   3.036   0.027  11.809  0.0142  0.3021  0.7758
 2880TIP3    H130131   3.103   0.077  11.763  0.4543 -0.0776  1.0005
 2880TIP3    H230132   3.046  -0.062  11.778  0.3241  0.0360  1.6009
 2881TIP3   OH230133   0.460   2.288  10.544  0.2298  0.6765  0.2338
 2881TIP3    H130134   0.519   2.344  10.594  0.5849 -0.4273  1.0902
 2881TIP3    H230135   0.508   2.206  10.533  0.2059  0.9089 -2.0518
 2882TIP3   OH230136   5.641   1.373   4.461  0.0564 -0.2078 -0.0324
 2882TIP3    H130137   5.597   1.396   4.379 -0.7218 -0.1748  0.3925
 2882TIP3    H230138   5.575   1.327   4.512 -0.9377  3.5929  2.4502
 2883TIP3   OH230139   4.217   3.597   5.194  0.6064 -0.4641  0.5495
 2883TIP3    H130140   4.291   3.592   5.133  1.4437  0.2737  1.4905
 2883TIP3    H230141   4.156   3.657   5.151  0.5448 -1.0511 -0.2163
 2884TIP3   OH230142   5.984   0.997   1.568 -0.4063 -0.2696  0.3338
 2884TIP3    H130143   5.949   0.948   1.643  0.3719 -3.3852 -1.1480
 2884TIP3    H230144   6.065   1.036   1.601 -0.2066 -1.3607  1.2237
 2885TIP3   OH230145   1.140   6.377  15.259 -0.1785  0.3913  0.2656
 2885TIP3    H130146   1.218   6.396  15.207 -0.2734  0.2787  0.0811
 2885TIP3    H230147   1.092   6.459  15.262 -0.6905  0.1412 -0.7039
 2886TIP3   OH230148   1.952   0.252  13.322 -0.4858 -0.2158  0.0206
 2886TIP3    H130149   2.010   0.266  13.397  0.1523  1.2507 -0.7225
 2886TIP3    H230150   1.990   0.177  13.277 -0.8139 -1.0465  1.0740
 2887TIP3   OH230151   3.411   2.159   4.904 -0.0569  0.4128 -0.1903
 2887TIP3    H130152   3.324   2.119   4.901  0.8456 -1.8675  0.8594
 2887TIP3    H230153   3.450   2.124   4.985  1.0922  3.0842  0.5276
 2888TIP3   OH230154   5.537   3.083   0.206 -0.1828 -0.0290 -0.1745
 2888TIP3    H130155   5.573   3.124   0.127  0.2846 -0.2002 -0.0551
 2888TIP3    H230156   5.612   3.039   0.246 -0.4903 -0.2301  0.1841
 2889TIP3   OH230157   5.161   3.565   2.441 -0.1798  0.2677  0.3897
 2889TIP3    H130158   5.177   3.659   2.449  2.8120 -0.1645  0.5908
 2889TIP3    H230159   5.194   3.542   2.353 -0.5363 -0.6425  0.4791
 2890TIP3   OH230160   1.794   6.359   0.354  0.0809 -0.1725  0.1820
 2890TIP3    H130161   1.770   6.440   0.398  0.3590  0.0921 -0.1423
 2890TIP3    H230162   1.793   6.292   0.423  0.5560  0.2400  0.6028
 2891TIP3   OH230163   0.004   4.482  15.452 -0.6869 -0.4313  0.0356
 2891TIP3    H130164   0.036   4.570  15.431 -1.6582 -0.4010 -1.5390
 2891TIP3    H230165   0.057   4.454  15.526  0.5306  0.9670 -0.2524
 2892TIP3   OH230166   5.068   2.590   4.577  0.1644  0.1171  0.3759
 2892TIP3    H130167   5.059   2.626   4.665  0.1910  0.2615  0.3197
 2892TIP3    H230168   5.123   2.653   4.531 -1.3745  1.0223 -0.3049
 2893TIP3   OH230169   6.076   2.806  16.762  0.0506  0.2679 -0.8252
 2893TIP3    H130170   6.068   2.746  16.687 -2.2468 -0.5908  0.0147
 2893TIP3    H230171   6.143   2.869  16.735  0.8905 -1.3013 -2.6963
 2894TIP3   OH230172   0.976   1.940   0.072  0.1701  0.8016  0.0354
 2894TIP3    H130173   0.895   1.934   0.122 -0.5671 -2.4428 -1.3129
 2894TIP3    H230174   1.045   1.932   0.137 -0.5601  2.1648  1.0451
 2895TIP3   OH230175   6.829   6.622  16.003  0.8022 -0.4267 -0.5868
 2895TIP3    H130176   6.868   6.625  15.915  0.9717  0.2069 -0.4966
 2895TIP3    H230177   6.887   6.676  16.057  0.1199  0.0727 -0.3298
 2896TIP3   OH230178   5.988   5.904  14.760  0.6192  0.6574 -0.6664
 2896TIP3    H130179   5.990   5.849  14.682  1.0402  1.0172 -0.9073
 2896TIP3    H230180   5.944   5.849  14.826  0.5509  0.2344 -1.0558
 2897TIP3   OH230181   1.084   4.593  14.324  0.7248  0.0374  0.3474
 2897TIP3    H130182   0.988   4.585  14.331  0.6283 -0.4678 -1.2747
 2897TIP3    H230183   1.105   4.561  14.236  2.3683  0.4019  0.5747
 2898TIP3   OH230184   4.600   4.464  14.913  0.0929 -0.0836  0.1752
 2898TIP3    H130185   4.581   4.497  15.000 -1.2772 -1.5044  0.4640
 2898TIP3    H230186   4.515   4.456  14.871  0.7136  0.3741 -1.2262
 2899TIP3   OH230187   4.270   1.728  16.974  0.1165 -0.1508  0.0607
 2899TIP3    H130188   4.338   1.661  16.979 -0.6376 -0.9614 -0.4215
 2899TIP3    H230189   4.193   1.688  17.016 -0.6216  0.0457 -1.0645
 2900TIP3   OH230190   6.132   3.593  12.696 -0.2967 -0.2253  0.1312
 2900TIP3    H130191   6.078   3.671  12.695  0.8497  0.6139 -1.4838
 2900TIP3    H230192   6.144   3.573  12.788 -1.5261  0.8398  0.5487
 2901TIP3   OH230193   0.742   5.198  10.876  0.3765  0.1587  0.2536
 2901TIP3    H130194   0.697   5.114  10.882  0.2689  0.1649 -0.4264
 2901TIP3    H230195   0.784   5.208  10.962  1.8039 -1.4036 -0.1937
 2902TIP3   OH230196   2.597   2.017   6.275 -0.6355 -0.3754 -0.4062
 2902TIP3    H130197   2.507   2.003   6.244 -1.4315  0.5097  1.3696
 2902TIP3    H230198   2.631   1.928   6.287 -1.5575 -0.7329 -0.3166
 2903TIP3   OH230199   6.587   1.380   5.335 -0.6521 -0.0219 -0.0237
 2903TIP3    H130200   6.573   1.312   5.400 -0.7579 -1.4017 -1.4158
 2903TIP3    H230201   6.666   1.425   5.364 -1.2610  0.0776  1.5680
 2904TIP3   OH230202   3.946   4.638  13.854 -0.2226 -0.2482  0.4465
 2904TIP3    H130203   3.878   4.668  13.793 -0.6647  0.1121  1.1079
 2904TIP3    H230204   4.027   4.645  13.804 -0.2223  2.4680  0.6546
 2905TIP3   OH230205   3.573   4.739  11.845 -0.0656 -0.5898  0.1504
 2905TIP3    H130206   3.522   4.788  11.780  0.7427  0.4915  0.2964
 2905TIP3    H230207   3.528   4.755  11.928  0.6805  0.6726  0.3399
 2906TIP3   OH230208   6.387   5.762   5.661  0.2049 -0.5082 -1.0583
 2906TIP3    H130209   6.405   5.675   5.696  0.5894 -0.6823 -1.6711
 2906TIP3    H230210   6.376   5.748   5.567  3.7916  0.5452 -1.7846
 2907TIP3   OH230211   4.172   1.369  13.162  0.0214  0.2296 -0.4227
 2907TIP3    H130212   4.205   1.424  13.092  1.3972  0.8780  0.6885
 2907TIP3    H230213   4.084   1.344  13.133  0.0329  1.5723 -1.7490
 2908TIP3   OH230214   2.985   6.254   2.451  0.0359 -0.4140  0.4853
 2908TIP3    H130215   2.963   6.270   2.543 -0.3934  0.0439  0.3126
 2908TIP3    H230216   3.013   6.339   2.418 -1.1985 -0.2290 -0.1674
 2909TIP3   OH230217   5.515   5.497   5.382 -0.3625 -0.2784  0.5535
 2909TIP3    H130218   5.484   5.588   5.390  0.3227  0.1225 -1.0403
 2909TIP3    H230219   5.472   5.464   5.304 -0.7878 -1.4351  1.2560
 2910TIP3   OH230220   5.118   4.996  14.375 -0.0321  0.1698 -0.0314
 2910TIP3    H130221   5.059   5.058  14.332  1.7203  2.6935  0.9421
 2910TIP3    H230222   5.201   5.007  14.329  0.1981 -1.9636 -0.2076
 2911TIP3   OH230223   4.495   2.777  15.989 -0.1299  0.3996  0.0363
 2911TIP3    H130224   4.473   2.762  16.081 -0.8378 -1.0961 -0.3407
 2911TIP3    H230225   4.508   2.872  15.982  2.7571  0.2835  2.2386
 2912TIP3   OH230226   5.639   6.322  15.300 -0.2472 -0.1844  0.6267
 2912TIP3    H130227   5.562   6.266  15.293 -0.3100 -0.5024  3.1742
 2912TIP3    H230228   5.615   6.388  15.365  0.8824  1.0445 -0.1440
 2913TIP3   OH230229   5.976   4.613   2.864  0.2130  0.0916 -0.0147
 2913TIP3    H130230   6.033   4.600   2.789 -0.6445 -3.8947 -0.2117
 2913TIP3    H230231   6.036   4.622   2.938  1.1394 -0.7779 -0.6225
 2914TIP3   OH230232   2.940   0.683   5.960  0.5159  0.1848  0.2489
 2914TIP3    H130233   2.859   0.691   6.010  1.1587  0.7574  1.2199
 2914TIP3    H230234   2.911   0.675   5.869 -0.6502 -0.3173  0.6449
 2915TIP3   OH230235   4.093   2.036   5.043  0.0475 -1.1229  0.8297
 2915TIP3    H130236   4.017   1.980   5.031  0.4314 -1.6489  0.8029
 2915TIP3    H230237   4.111   2.071   4.956 -0.0955 -1.0890  0.8136
 2916TIP3   OH230238   0.413   5.699   1.097  0.4078 -0.2362  0.2994
 2916TIP3    H130239   0.442   5.765   1.034  0.5301 -0.8606 -0.3095
 2916TIP3    H230240   0.486   5.638   1.103 -0.1113 -0.8926  0.0543
 2917TIP3   OH230241   2.710   5.389  16.430  0.0313  0.3250 -0.0826
 2917TIP3    H130242   2.627   5.343  16.420 -0.4757  1.5737 -2.5839
 2917TIP3    H230243   2.763   5.360  16.356 -0.1953  3.3249 -1.5991
 2918TIP3   OH230244   1.522   0.654   5.108 -0.3548 -0.3310 -0.6584
 2918TIP3    H130245   1.566   0.645   5.192 -0.0166  4.0801 -0.1527
 2918TIP3    H230246   1.434   0.684   5.129 -0.5902 -0.1198 -1.8487
 2919TIP3   OH230247   2.239   1.237  11.964  0.3952  0.1896 -0.1808
 2919TIP3    H130248   2.261   1.327  11.939  1.1455  0.2599  0.6926
 2919TIP3    H230249   2.160   1.217  11.914  0.1296  1.3933 -0.2685
 2920TIP3   OH230250   4.242   5.712  12.664  0.1445 -0.1356  0.3288
 2920TIP3    H130251   4.265   5.621  12.646 -0.3595  0.0116 -1.2587
 2920TIP3    H230252   4.177   5.734  12.597 -0.2500  1.1926  1.1052
 2921TIP3   OH230253   1.214   2.944  15.624 -0.2064 -0.7747 -0.2948
 2921TIP3    H130254   1.300   2.935  15.584 -1.4896 -0.6914 -3.4058
 2921TIP3    H230255   1.198   3.038  15.626 -0.5988 -0.8232 -0.7312
 2922TIP3   OH230256   4.601   5.572  15.736  0.4036  0.5226 -0.2241
 2922TIP3    H130257   4.510   5.595  15.757  0.4568  0.5383 -0.0129
 2922TIP3    H230258   4.593   5.508  15.665  0.2402  0.8285 -0.4878
 2923TIP3   OH230259   2.060   2.426  15.671 -1.1279 -0.4641 -0.1732
 2923TIP3    H130260   2.049   2.488  15.744 -1.0209  1.3303 -1.5945
 2923TIP3    H230261   2.062   2.340  15.713  0.0918  0.5419  2.0622
 2924TIP3   OH230262   0.836   2.766  12.974 -0.0766  0.5587 -0.0626
 2924TIP3    H130263   0.765   2.708  13.000 -0.8764  1.4705 -0.1987
 2924TIP3    H230264   0.848   2.749  12.880  0.8385 -0.5873  0.2255
 2925TIP3   OH230265   3.097   0.898   4.012 -0.0233  0.3088 -0.1535
 2925TIP3    H130266   3.062   0.812   3.990 -0.8430  0.8723 -1.1753
 2925TIP3    H230267   3.192   0.886   4.014 -0.1285 -0.6063 -0.2974
 2926TIP3   OH230268   2.314   1.803  16.254 -0.5650 -0.1422  0.0393
 2926TIP3    H130269   2.261   1.771  16.181  1.9954 -2.4444 -0.9901
 2926TIP3    H230270   2.316   1.730  16.316 -0.0087  0.5257  0.8251
 2927TIP3   OH230271   4.938   2.144   1.136  0.1798  0.2329 -0.2262
 2927TIP3    H130272   4.932   2.228   1.181  0.6682  1.1681 -1.8111
 2927TIP3    H230273   4.862   2.095   1.166  0.2929  0.9428  1.2926
 2928TIP3   OH230274   1.938   0.177   3.982  0.4787 -0.3259 -0.5346
 2928TIP3    H130275   1.984   0.156   3.901 -0.0070 -0.6908 -0.7224
 2928TIP3    H230276   1.974   0.116   4.047 -0.4730 -1.3381 -0.9280
 2929TIP3   OH230277   4.027   1.873   4.499 -0.5447  0.0237  0.6028
 2929TIP3    H130278   4.020   1.968   4.484 -1.7547 -0.1596 -0.1245
 2929TIP3    H230279   4.092   1.843   4.435  0.0403  0.3909  1.0137
 2930TIP3   OH230280   1.483   3.262  13.465  0.6587  0.3353  0.3012
 2930TIP3    H130281   1.533   3.239  13.544 -0.9780 -1.9411  0.7804
 2930TIP3    H230282   1.525   3.212  13.395  0.8106  0.6987  0.1300
 2931TIP3   OH230283   6.120   3.497   1.348 -0.6266  0.8581  0.4240
 2931TIP3    H130284   6.186   3.429   1.355 -1.1186  0.5352  3.7641
 2931TIP3    H230285   6.044   3.454   1.308 -0.8251 -0.5428  2.1948
 2932TIP3   OH230286   5.253   0.814  10.369  0.1899 -0.8307  0.2655
 2932TIP3    H130287   5.316   0.873  10.410  2.1033 -1.8204 -1.1507
 2932TIP3    H230288   5.169   0.860  10.379  1.3778  1.4839  0.4316
 2933TIP3   OH230289   5.140   0.464   3.224 -0.1237 -0.5644 -0.0339
 2933TIP3    H130290   5.089   0.391   3.260 -0.4313 -1.2088 -1.6892
 2933TIP3    H230291   5.080   0.509   3.165  0.1961  0.7927  0.6442
 2934TIP3   OH230292   0.393   0.503  10.801  0.4327 -0.1053  0.5277
 2934TIP3    H130293   0.462   0.565  10.825  0.7060 -0.6946  1.3123
 2934TIP3    H230294   0.433   0.417  10.815 -0.2299 -0.4562  0.2921
 2935TIP3   OH230295   3.270   3.342   1.700  0.4619 -0.4381  0.3130
 2935TIP3    H130296   3.307   3.262   1.736  0.9257 -0.4968 -0.2659
 2935TIP3    H230297   3.244   3.318   1.611  2.4451  0.5179 -0.6026
 2936TIP3   OH230298   1.523   1.355   0.935  0.5083  0.1415  0.0689
 2936TIP3    H130299   1.607   1.398   0.949 -0.9663  3.0798  0.6312
 2936TIP3    H230300   1.458   1.422   0.954 -1.9942 -1.7898 -1.0726
 2937TIP3   OH230301   4.694   2.885  11.936  0.0318 -0.1351  0.7290
 2937TIP3    H130302   4.615   2.845  11.973 -0.0994  0.0924  0.6934
 2937TIP3    H230303   4.704   2.842  11.851 -0.8000  0.7752  0.1545
 2938TIP3   OH230304   4.448   3.643  11.254  0.5657  0.3036  0.0206
 2938TIP3    H130305   4.540   3.663  11.234  0.2603  0.4170 -1.3860
 2938TIP3    H230306   4.417   3.596  11.177 -0.4653 -0.0587  0.6392
 2939TIP3   OH230307   6.631   4.131   4.841  0.0823 -0.5554  0.6469
 2939TIP3    H130308   6.726   4.147   4.842  0.0813 -0.5072  1.6557
 2939TIP3    H230309   6.621   4.053   4.896 -0.4764 -0.4568  0.6846
 2940TIP3   OH230310   0.807   4.790  16.455 -0.2849  0.0510  0.1069
 2940TIP3    H130311   0.751   4.845  16.510 -0.9483 -0.4965 -0.0062
 2940TIP3    H230312   0.896   4.814  16.480 -0.5717  0.3636  0.8675
 2941TIP3   OH230313   5.079   5.274  11.211 -0.1409  0.2723  0.0225
 2941TIP3    H130314   5.108   5.311  11.127  0.9074  0.1444  0.3139
 2941TIP3    H230315   5.141   5.203  11.228 -0.1445  0.5135  1.0647
 2942TIP3   OH230316   4.855   4.488  16.064 -0.2054  0.0878 -0.0836
 2942TIP3    H130317   4.779   4.488  16.123  0.2878  1.6497  0.5986
 2942TIP3    H230318   4.880   4.396  16.058 -1.8506 -0.4116  0.0597
 2943TIP3   OH230319   6.472   6.058  12.626  0.3729 -0.0806  0.4682
 2943TIP3    H130320   6.437   6.112  12.696  2.1817  0.0468  1.3308
 2943TIP3    H230321   6.517   6.120  12.568 -0.4935 -0.2730 -0.4404
 2944TIP3   OH230322   5.622   0.526  12.389 -0.1527  0.2935 -0.0154
 2944TIP3    H130323   5.603   0.618  12.370 -0.0965  0.2112 -0.4782
 2944TIP3    H230324   5.684   0.500  12.321 -0.3981 -0.1714 -0.0623
 2945TIP3   OH230325   3.367   2.605   4.327 -0.4495  0.0014 -0.1089
 2945TIP3    H130326   3.339   2.692   4.299  1.1446  1.2548  1.9249
 2945TIP3    H230327   3.423   2.573   4.255 -0.9583  0.6879 -0.8195
 2946TIP3   OH230328   1.814   4.685  14.045 -0.7789  0.1348  0.4414
 2946TIP3    H130329   1.727   4.647  14.055 -1.1519  0.7957 -0.1345
 2946TIP3    H230330   1.873   4.624  14.090 -1.7367  0.5627  2.4014
 2947TIP3   OH230331   0.410   2.069  10.324  0.6425 -0.2277 -0.3116
 2947TIP3    H130332   0.494   2.110  10.349  1.4977 -1.2227 -1.4578
 2947TIP3    H230333   0.409   2.074  10.229  0.5032 -2.3003 -0.4567
 2948TIP3   OH230334   2.176   3.384   3.936 -0.2358 -0.8155  0.1581
 2948TIP3    H130335   2.140   3.369   4.023  0.2053 -1.0055  0.3130
 2948TIP3    H230336   2.269   3.402   3.952 -0.0124 -1.5154 -0.3216
 2949TIP3   OH230337   6.626   5.859  15.917  0.2551 -0.2887  0.2177
 2949TIP3    H130338   6.613   5.891  16.007 -3.7470 -0.7353 -0.0078
 2949TIP3    H230339   6.589   5.928  15.862  1.4880 -0.6056 -1.0596
 2950TIP3   OH230340   5.874   5.940  11.170 -0.3234  0.3954 -0.7324
 2950TIP3    H130341   5.860   5.953  11.076 -1.1199  1.2154 -0.5241
 2950TIP3    H230342   5.969   5.937  11.180 -0.2273 -1.0585 -1.7171
 2951TIP3   OH230343   2.981   5.987  16.671  0.8585 -0.0876  0.2144
 2951TIP3    H130344   3.052   5.973  16.733  1.9494 -1.3390 -1.2570
 2951TIP3    H230345   2.927   5.908  16.677 -0.0132  0.5351  0.7916
 2952TIP3   OH230346   2.350   5.894  15.858  0.2359  0.1808  0.0239
 2952TIP3    H130347   2.378   5.883  15.767 -0.5897  3.5929 -0.8094
 2952TIP3    H230348   2.284   5.827  15.871  0.3443 -0.3676 -1.9160
 2953TIP3   OH230349   6.839   1.865   1.311  0.4253  0.3460  0.2897
 2953TIP3    H130350   6.863   1.857   1.404 -0.7087 -1.1873  0.4774
 2953TIP3    H230351   6.753   1.907   1.312 -0.9746 -2.3397  0.1510
 2954TIP3   OH230352   1.490   0.363  10.668 -0.6683 -0.2667 -0.2862
 2954TIP3    H130353   1.475   0.384  10.576  1.9384 -0.3422 -0.7995
 2954TIP3    H230354   1.523   0.273  10.667 -1.8022 -0.7386  0.8875
 2955TIP3   OH230355   4.362   0.790  15.419 -0.4135  0.1443  0.3345
 2955TIP3    H130356   4.366   0.714  15.362  1.3923  1.1430 -0.9716
 2955TIP3    H230357   4.387   0.757  15.506 -1.3309 -1.0349  0.1597
 2956TIP3   OH230358   0.311   0.762  15.879 -0.0406 -0.5567 -0.1010
 2956TIP3    H130359   0.395   0.792  15.846  0.6747 -1.0678  1.2079
 2956TIP3    H230360   0.290   0.685  15.826  0.7234 -0.9180  0.1175
 2957TIP3   OH230361   4.905   5.029   5.376  0.1542 -0.5564  0.2094
 2957TIP3    H130362   4.876   5.016   5.286  0.0973 -1.9492  0.4054
 2957TIP3    H230363   4.828   5.061   5.422  0.1137 -0.0933 -0.1669
 2958TIP3   OH230364   5.154   5.688  15.873 -0.2677 -0.1634 -0.4236
 2958TIP3    H130365   5.183   5.740  15.798  0.4582  0.1512  0.0627
 2958TIP3    H230366   5.173   5.598  15.848 -0.4318 -0.0956 -0.7964
 2959TIP3   OH230367   0.313   6.327   1.973 -0.8241 -0.4635 -0.4416
 2959TIP3    H130368   0.314   6.415   2.010 -0.2485 -0.1630 -1.1463
 2959TIP3    H230369   0.339   6.339   1.881  1.2274 -1.5882 -0.0676
 2960TIP3   OH230370   6.063   1.836   3.340 -0.6673  0.1236 -0.3308
 2960TIP3    H130371   6.111   1.911   3.306 -0.5635  0.8109  1.2231
 2960TIP3    H230372   6.029   1.866   3.425 -1.4660 -1.2594 -0.1321
 2961TIP3   OH230373   1.125   4.538  12.498  0.3639 -0.2606  0.2021
 2961TIP3    H130374   1.092   4.624  12.473  1.0205 -0.3878 -1.2322
 2961TIP3    H230375   1.207   4.557  12.544  1.8537 -0.1219 -2.3105
 2962TIP3   OH230376   0.722   4.266  16.254 -0.0165  0.0437 -0.2022
 2962TIP3    H130377   0.797   4.295  16.305 -0.9161 -1.5567  2.1959
 2962TIP3    H230378   0.756   4.197  16.197  0.8597  1.3513 -1.3095
 2963TIP3   OH230379   0.284   2.446   3.507  0.3041 -0.5995 -0.0809
 2963TIP3    H130380   0.325   2.524   3.471  0.4711 -0.2719  0.7901
 2963TIP3    H230381   0.191   2.456   3.486  0.3669 -0.3127 -0.2302
 2964TIP3   OH230382   5.916   4.028  11.199  0.2754  0.5078  0.5650
 2964TIP3    H130383   5.952   4.105  11.155 -0.2870  1.3289  1.4830
 2964TIP3    H230384   5.839   4.005  11.148  0.1522  0.8841  0.5743
 2965TIP3   OH230385   4.967   4.577  15.515 -0.4453  0.0855 -0.0364
 2965TIP3    H130386   4.894   4.516  15.525 -0.1973 -0.2801 -0.4655
 2965TIP3    H230387   4.991   4.600  15.605 -1.0770  0.1981  0.1135
 2966TIP3   OH230388   6.664   1.479   3.057 -0.0486 -0.1859 -0.2470
 2966TIP3    H130389   6.748   1.520   3.041 -0.2835  0.3819 -0.0354
 2966TIP3    H230390   6.609   1.508   2.984 -0.1996 -0.1618 -0.1248
 2967TIP3   OH230391   5.901   3.725  14.352  0.3593  0.1893 -0.1454
 2967TIP3    H130392   5.979   3.775  14.328  0.6123 -0.1940 -0.1150
 2967TIP3    H230393   5.882   3.672  14.275  0.1159  0.2937 -0.1590
 2968TIP3   OH230394   1.580   3.653  12.895 -0.1845 -0.0165 -0.0895
 2968TIP3    H130395   1.640   3.622  12.962  0.6048  0.2228 -0.6631
 2968TIP3    H230396   1.615   3.739  12.870 -0.4894 -0.0804 -0.7641
 2969TIP3   OH230397   3.317   2.818   3.705  0.4011  0.2570 -0.0443
 2969TIP3    H130398   3.277   2.829   3.791 -1.0400 -0.9511 -0.5399
 2969TIP3    H230399   3.382   2.889   3.701 -0.8685  1.5706  1.2373
 2970TIP3   OH230400   0.444   5.994   3.652  0.2771 -0.1978 -0.4537
 2970TIP3    H130401   0.379   6.021   3.716  1.1166  2.7044 -0.7017
 2970TIP3    H230402   0.496   5.927   3.697 -0.7655 -0.1371  0.9063
 2971TIP3   OH230403   0.940   3.194  14.138  0.2846 -0.1271  0.3235
 2971TIP3    H130404   0.881   3.127  14.170 -1.4730  0.3156 -1.7809
 2971TIP3    H230405   1.010   3.146  14.093  0.3809 -0.5805  0.9432
 2972TIP3   OH230406   2.751   6.297  11.031  0.6876  0.2170  0.3216
 2972TIP3    H130407   2.768   6.332  10.944  0.9499  0.0092  0.2886
 2972TIP3    H230408   2.704   6.215  11.015  1.5450 -0.2873  0.3403
 2973TIP3   OH230409   3.081   6.042  16.964 -0.5467  0.2279 -0.2416
 2973TIP3    H130410   3.018   6.012  17.029 -0.1646 -3.9473 -1.5061
 2973TIP3    H230411   3.167   6.023  17.002 -0.2137  0.6426 -0.7621
 2974TIP3   OH230412   0.525   0.943   1.274  0.2269  0.0626  0.0953
 2974TIP3    H130413   0.542   1.027   1.232 -3.5456  1.5110  1.0231
 2974TIP3    H230414   0.499   0.885   1.202 -1.0027  0.9399 -0.2032
 2975TIP3   OH230415   0.174   0.898   1.710  0.0897 -0.0425 -0.3734
 2975TIP3    H130416   0.249   0.948   1.678 -0.0413 -1.2679 -2.8448
 2975TIP3    H230417   0.180   0.905   1.805  0.6031  3.7667 -0.5304
 2976TIP3   OH230418   5.954   6.549   4.144  1.1094 -0.1246  0.5377
 2976TIP3    H130419   5.939   6.631   4.191 -1.3020 -0.6235  0.8042
 2976TIP3    H230420   5.921   6.481   4.204 -1.7996 -0.8100 -1.5969
 2977TIP3   OH230421   2.018   2.562   4.603 -0.0946  0.0261 -0.2221
 2977TIP3    H130422   2.102   2.515   4.603 -0.3255 -0.3947 -0.5089
 2977TIP3    H230423   1.969   2.524   4.530 -0.6689  0.0302  0.1504
 2978TIP3   OH230424   0.580   6.797  15.548 -0.1885  0.1674 -0.3921
 2978TIP3    H130425   0.535   6.881  15.554  0.8826  0.8523 -1.5128
 2978TIP3    H230426   0.673   6.819  15.544  0.3038 -1.2135  1.7421
 2979TIP3   OH230427   3.064   0.310   2.813 -0.9305  0.1063 -0.5987
 2979TIP3    H130428   3.148   0.324   2.857 -0.3981  1.2143 -1.9039
 2979TIP3    H230429   3.076   0.229   2.765 -0.4427  0.4674 -1.1058
 2980TIP3   OH230430   0.404   5.890   6.057 -0.3954  0.6160  0.0580
 2980TIP3    H130431   0.405   5.958   5.989  0.7233  2.1045  1.4665
 2980TIP3    H230432   0.481   5.910   6.112  0.6229 -2.4646 -0.0562
 2981TIP3   OH230433   2.145   0.837   6.607  0.1908  0.7104 -0.7071
 2981TIP3    H130434   2.104   0.869   6.527 -2.7524 -1.6697 -0.2948
 2981TIP3    H230435   2.079   0.782   6.649  2.8758 -1.1353  1.5211
 2982TIP3   OH230436   3.281   1.917  10.898  0.2889 -0.3563  0.3318
 2982TIP3    H130437   3.247   1.984  10.958  0.9858 -0.0213  0.3645
 2982TIP3    H230438   3.373   1.941  10.885  0.2363 -0.6220 -0.6011
 2983TIP3   OH230439   2.868   1.919  16.234  0.1248 -0.4159 -0.0032
 2983TIP3    H130440   2.947   1.948  16.279  0.7329 -0.3583 -1.0637
 2983TIP3    H230441   2.891   1.832  16.200  0.8000  0.7646 -2.7930
 2984TIP3   OH230442   3.197   2.339   3.537 -0.3120  0.4578 -0.1864
 2984TIP3    H130443   3.162   2.355   3.624  1.2973  1.6175  0.2996
 2984TIP3    H230444   3.206   2.243   3.532 -0.3368  0.3813  0.9638
 2985TIP3   OH230445   1.480   1.849  15.094  0.0547  0.3461  0.5165
 2985TIP3    H130446   1.464   1.757  15.073 -0.5876  0.3001  1.1640
 2985TIP3    H230447   1.575   1.859  15.089  0.0186  0.1088 -1.3632
 2986TIP3   OH230448   4.942   3.204   4.604 -0.1454  0.2062  0.6079
 2986TIP3    H130449   4.893   3.286   4.602 -0.9127 -0.2341  0.8333
 2986TIP3    H230450   5.019   3.223   4.657 -0.2994  0.7842  0.6297
 2987TIP3   OH230451   4.407   5.456  15.217  0.3005  0.1119 -0.0649
 2987TIP3    H130452   4.379   5.400  15.145  1.6487 -0.7769  0.0643
 2987TIP3    H230453   4.493   5.422  15.242  0.2844  1.0097  1.3343
 2988TIP3   OH230454   2.110   0.340  13.547 -0.4960 -0.3833 -0.3991
 2988TIP3    H130455   2.050   0.376  13.612 -0.7191 -1.4834  0.0294
 2988TIP3    H230456   2.174   0.291  13.598  1.7934  2.1079 -0.7102
 2989TIP3   OH230457   4.719   0.223   1.629 -0.3077  0.1360 -0.3614
 2989TIP3    H130458   4.638   0.193   1.670  0.1973 -0.7235  0.0387
 2989TIP3    H230459   4.776   0.146   1.629  1.1807  1.1634  1.0468
 2990TIP3   OH230460   5.202   5.446   6.265 -0.1733 -0.3082  0.1552
 2990TIP3    H130461   5.123   5.392   6.272 -1.2564  1.3674  2.3999
 2990TIP3    H230462   5.190   5.514   6.332  3.0893  0.1615  0.4187
 2991TIP3   OH230463   2.439   3.220  16.662  0.4490  0.1489 -0.0647
 2991TIP3    H130464   2.467   3.194  16.750  0.8647  0.0246 -0.2337
 2991TIP3    H230465   2.508   3.189  16.604  1.5964  2.6743 -0.1689
 2992TIP3   OH230466   2.857   5.534   1.160 -0.3693 -0.4017 -0.3185
 2992TIP3    H130467   2.875   5.508   1.070 -1.1897  0.0122 -0.6072
 2992TIP3    H230468   2.925   5.599   1.180 -0.2625 -0.4046 -0.6766
 2993TIP3   OH230469   5.618   1.909   5.623  0.7226 -0.7862  0.0099
 2993TIP3    H130470   5.691   1.962   5.590  1.0548  0.1655  2.0845
 2993TIP3    H230471   5.584   1.864   5.546  0.6283  2.1938 -1.8463
 2994TIP3   OH230472   0.048   6.833   0.962 -0.6740 -0.0261 -0.2313
 2994TIP3    H130473   0.001   6.916   0.965 -1.7001 -0.4939 -1.8388
 2994TIP3    H230474   0.132   6.855   0.920 -0.8798  0.2404 -0.5099
 2995TIP3   OH230475   2.656   5.977  14.353  0.0393  0.3291  0.0526
 2995TIP3    H130476   2.635   5.919  14.426  0.6138  1.8648  1.4890
 2995TIP3    H230477   2.751   5.986  14.356 -0.1031  1.9410  0.3440
 2996TIP3   OH230478   1.840   5.412  10.772 -0.4793 -0.1732 -0.0999
 2996TIP3    H130479   1.881   5.365  10.845 -0.2856  0.3633  0.1391
 2996TIP3    H230480   1.901   5.482  10.750 -0.6398 -0.1962 -0.6362
 2997TIP3   OH230481   6.361   4.808  16.535  0.2741  0.1725  0.1407
 2997TIP3    H130482   6.281   4.846  16.573  0.7233  0.6797  0.5888
 2997TIP3    H230483   6.387   4.740  16.598 -0.0140 -0.2632 -0.1999
 2998TIP3   OH230484   5.203   1.862  11.432 -0.6439 -0.9591  0.3863
 2998TIP3    H130485   5.281   1.917  11.447 -2.7469  1.7776  2.3275
 2998TIP3    H230486   5.181   1.878  11.340 -1.0592  1.4700  0.8292
 2999TIP3   OH230487   4.751   0.392   3.002  0.5586  0.6383 -0.0769
 2999TIP3    H130488   4.822   0.331   3.024  0.9897  1.3952  0.7027
 2999TIP3    H230489   4.693   0.342   2.945 -0.1981 -1.1623  2.1703
 3000TIP3   OH230490   4.762   2.115   6.186  0.2950  0.0800 -0.3039
 3000TIP3    H130491   4.800   2.028   6.194  1.3955  0.4260 -1.4122
 3000TIP3    H230492   4.672   2.100   6.156  0.0244 -0.7024  0.8596
 3001TIP3   OH230493   0.888   6.249   1.023  0.3332  0.0543  0.1321
 3001TIP3    H130494   0.846   6.234   1.108 -1.3114 -0.3587 -0.7074
 3001TIP3    H230495   0.940   6.171   1.008  0.7982  0.2187  0.8414
 3002TIP3   OH230496   5.135   4.019   2.800 -0.0663  1.3707  0.2139
 3002TIP3    H130497   5.090   3.946   2.757  1.3300  0.1899  0.6678
 3002TIP3    H230498   5.123   4.093   2.741  3.3624 -0.5809 -3.3720
 3003TIP3   OH230499   0.235   5.870  13.005  0.3258  0.1799 -0.3720
 3003TIP3    H130500   0.142   5.848  13.002  0.2564  0.4286 -0.0888
 3003TIP3    H230501   0.237   5.964  13.021  0.6211  0.0221  0.5832
 3004TIP3   OH230502   5.174   1.734   1.753  0.0049 -0.2226  0.2798
 3004TIP3    H130503   5.106   1.756   1.689  0.1339  0.0885  0.2477
 3004TIP3    H230504   5.200   1.645   1.731  1.2559  0.4732 -1.1808
 3005TIP3   OH230505   2.313   2.531   4.845 -0.4896 -0.0265 -0.5156
 3005TIP3    H130506   2.340   2.538   4.753 -0.7137 -2.2169 -0.8169
 3005TIP3    H230507   2.227   2.571   4.848 -1.9420 -2.6886 -2.0790
 3006TIP3   OH230508   1.176   0.123   4.527  1.3538  0.1235  0.2971
 3006TIP3    H130509   1.115   0.140   4.599  1.1697 -0.1995  0.2169
 3006TIP3    H230510   1.170   0.201   4.472  0.5804 -0.1520 -0.0172
 3007TIP3   OH230511   0.536   5.445  15.614 -0.4705  0.0682  0.0951
 3007TIP3    H130512   0.517   5.534  15.583  1.3721 -0.0939 -1.6806
 3007TIP3    H230513   0.539   5.454  15.710 -2.0904  1.4969  0.0750
 3008TIP3   OH230514   5.433   3.027  15.957  0.2248 -0.3428 -0.4828
 3008TIP3    H130515   5.437   2.934  15.934  1.3246 -0.9080  1.7512
 3008TIP3    H230516   5.480   3.071  15.886 -3.0885 -0.9784 -3.3952
 3009TIP3   OH230517   2.549   2.926  17.096  0.4932 -0.5873 -0.1068
 3009TIP3    H130518   2.601   2.999  17.131 -0.7802  1.3539 -1.9678
 3009TIP3    H230519   2.511   2.885  17.173  0.3773  1.4667  1.0171
 3010TIP3   OH230520   2.959   6.376   4.545  0.5914  0.9498  0.0541
 3010TIP3    H130521   2.908   6.306   4.504  0.2681 -0.5320  2.7591
 3010TIP3    H230522   2.908   6.456   4.529 -0.5354  0.1267 -0.5976
 3011TIP3   OH230523   1.334   0.628  13.249  0.1670 -0.5046 -0.2672
 3011TIP3    H130524   1.395   0.662  13.183  0.0180 -1.6468 -1.0290
 3011TIP3    H230525   1.265   0.694  13.255 -1.5189 -1.7050 -3.6517
 3012TIP3   OH230526   1.795   5.483   1.280  0.0097  0.3963  0.4850
 3012TIP3    H130527   1.791   5.555   1.217 -1.5272 -0.7016 -0.7577
 3012TIP3    H230528   1.806   5.526   1.365  1.1305  1.9679 -0.4156
 3013TIP3   OH230529   4.991   2.063  13.226 -0.1070  0.0838  0.0613
 3013TIP3    H130530   4.951   2.134  13.174  1.9734 -0.4631 -2.5099
 3013TIP3    H230531   4.920   2.001  13.240 -1.0837  0.8959 -1.0421
 3014TIP3   OH230532   2.305   1.336  13.981  0.4454 -0.0584  0.1642
 3014TIP3    H130533   2.246   1.272  13.942  1.9863 -4.2911  3.8402
 3014TIP3    H230534   2.248   1.407  14.011 -2.0359 -1.5851 -0.6766
 3015TIP3   OH230535   0.752   0.055   3.169  0.1609  0.1601 -0.1073
 3015TIP3    H130536   0.836   0.011   3.152 -0.0816 -0.2799 -0.1924
 3015TIP3    H230537   0.706   0.051   3.085 -0.8812 -1.6668  0.5029
 3016TIP3   OH230538   0.408   4.586  13.610 -0.4013 -0.2002 -0.4941
 3016TIP3    H130539   0.387   4.651  13.542 -3.2201 -0.3966  0.0829
 3016TIP3    H230540   0.360   4.507  13.584 -1.8661 -0.1740  1.8305
 3017TIP3   OH230541   3.699   5.915  15.369  0.0886  0.2575 -0.5128
 3017TIP3    H130542   3.635   5.860  15.323 -0.4631  1.1972 -0.8891
 3017TIP3    H230543   3.784   5.879  15.343 -0.2681 -0.6428 -0.4684
 3018TIP3   OH230544   6.493   4.141   0.322 -0.3957  0.0638 -0.3093
 3018TIP3    H130545   6.427   4.169   0.386  0.9850  0.0679  1.1790
 3018TIP3    H230546   6.485   4.046   0.319 -0.0792  0.0084  0.3457
 3019TIP3   OH230547   1.026   2.252   2.872 -0.1065  0.2647 -0.1212
 3019TIP3    H130548   1.116   2.273   2.851  0.4559 -0.3864  1.4397
 3019TIP3    H230549   0.993   2.329   2.918  0.0847 -0.0029  0.4699
 3020TIP3   OH230550   6.563   2.111   2.128  0.1083 -0.1956  0.2439
 3020TIP3    H130551   6.492   2.070   2.079  0.0379  1.9408 -1.5986
 3020TIP3    H230552   6.612   2.037   2.165 -1.4017 -1.8139 -0.8162
 3021TIP3   OH230553   4.158   4.419  15.426 -0.3791  0.0563  0.3076
 3021TIP3    H130554   4.097   4.353  15.393  0.8576 -0.7970 -0.3251
 3021TIP3    H230555   4.216   4.438  15.352 -2.0775  3.6233 -0.3218
 3022TIP3   OH230556   1.972   0.491  16.216 -0.4711 -0.4826  0.5945
 3022TIP3    H130557   1.970   0.404  16.257  0.9961  0.9436  4.0990
 3022TIP3    H230558   1.925   0.548  16.277  0.3053  1.5777 -0.6083
 3023TIP3   OH230559   1.507   6.520   0.949 -0.3061 -0.4594  0.4321
 3023TIP3    H130560   1.566   6.483   0.883 -1.2421 -0.3304 -0.4956
 3023TIP3    H230561   1.484   6.607   0.915 -1.3815 -0.6825  0.5549
 3024TIP3   OH230562   0.602   0.532   4.984 -0.3654 -0.0629 -0.0001
 3024TIP3    H130563   0.537   0.463   4.993  0.3471 -0.8146 -0.4528
 3024TIP3    H230564   0.671   0.507   5.046  0.8732 -0.9278 -1.6436
 3025TIP3   OH230565   0.060   1.629  12.101 -0.0775  0.0101  0.0819
 3025TIP3    H130566   0.091   1.541  12.125 -1.1651 -0.1140  1.1168
 3025TIP3    H230567   0.097   1.645  12.014  1.0160 -1.0311  0.3378
 3026TIP3   OH230568   6.036   6.531  14.142 -0.0184  0.3896  0.4496
 3026TIP3    H130569   5.948   6.493  14.139 -0.6059  1.7482 -0.6253
 3026TIP3    H230570   6.026   6.617  14.101  0.8716  2.5266  4.2849
 3027TIP3   OH230571   1.080   5.576   1.781  0.3022 -0.3411  0.1978
 3027TIP3    H130572   1.035   5.530   1.710 -0.7909  0.8362  0.0935
 3027TIP3    H230573   1.123   5.649   1.738 -1.1659  0.9440  0.8279
 3028TIP3   OH230574   1.194   2.578  14.075  0.1053 -0.3594 -0.0464
 3028TIP3    H130575   1.126   2.511  14.082  1.4391 -1.7847 -0.0280
 3028TIP3    H230576   1.204   2.613  14.163 -0.9568  0.2712 -0.1564
 3029TIP3   OH230577   4.709   0.248  14.555 -0.2502 -0.4616 -0.2600
 3029TIP3    H130578   4.618   0.228  14.575 -0.2109  0.7376  1.3413
 3029TIP3    H230579   4.738   0.302  14.628  0.9279  1.5191 -2.0597
 3030TIP3   OH230580   2.612   3.360   2.558 -0.2026  0.8046 -0.3226
 3030TIP3    H130581   2.606   3.324   2.470 -2.0224  1.3987 -0.4669
 3030TIP3    H230582   2.573   3.447   2.552 -0.1512  0.9448  1.0311
 3031TIP3   OH230583   1.052   3.374   1.802  0.3256  0.3811  0.1027
 3031TIP3    H130584   1.124   3.322   1.837 -0.0668  0.5387  1.1854
 3031TIP3    H230585   1.081   3.399   1.714  1.4176  0.1134  0.3701
 3032TIP3   OH230586   3.553   3.832   5.475 -0.2990 -0.0476  0.0487
 3032TIP3    H130587   3.567   3.750   5.522  1.7036  1.0296  1.5123
 3032TIP3    H230588   3.461   3.852   5.488 -0.3079 -0.9367  1.6213
 3033TIP3   OH230589   3.679   5.291   1.308 -0.3383 -0.0107  0.3573
 3033TIP3    H130590   3.645   5.298   1.397  2.1854 -0.4914  1.4365
 3033TIP3    H230591   3.774   5.303   1.317  0.1447 -1.3089 -2.1097
 3034TIP3   OH230592   4.006   5.047   6.108  0.1142  0.8855  0.7813
 3034TIP3    H130593   4.002   5.101   6.029  1.8765  0.9299  0.6791
 3034TIP3    H230594   4.037   4.962   6.078 -1.2203  0.2414  1.1535
 3035TIP3   OH230595   2.088   1.061   3.717  0.3692 -0.3317 -0.4208
 3035TIP3    H130596   2.092   0.993   3.784 -1.0058  0.0941  0.1263
 3035TIP3    H230597   1.998   1.092   3.719 -0.1560 -1.3181 -3.5002
 3036TIP3   OH230598   4.490   5.278  12.192 -0.1298  0.5803 -0.1448
 3036TIP3    H130599   4.459   5.197  12.234 -2.3257  2.0666  1.3384
 3036TIP3    H230600   4.541   5.322  12.260 -0.0767  1.0438 -0.4858
 3037TIP3   OH230601   0.585   3.629   4.552 -0.5160  0.4865  0.7271
 3037TIP3    H130602   0.534   3.677   4.617  0.8887 -0.2716  2.4633
 3037TIP3    H230603   0.536   3.548   4.538 -1.4939  1.2068 -0.1885
 3038TIP3   OH230604   4.900   4.182   4.617  0.2739  0.0124  0.4491
 3038TIP3    H130605   4.870   4.209   4.704 -2.2951 -2.4676  0.4660
 3038TIP3    H230606   4.821   4.178   4.564  1.5397 -0.2834 -1.5404
 3039TIP3   OH230607   5.149   0.841  16.128  0.1269  0.6909  0.1949
 3039TIP3    H130608   5.061   0.820  16.160  0.4512 -0.9973  0.0469
 3039TIP3    H230609   5.189   0.891  16.199 -0.0460 -0.7956  1.3940
 3040TIP3   OH230610   1.625   3.210   1.466 -0.0591  0.1155 -0.4735
 3040TIP3    H130611   1.689   3.237   1.400  0.3398  0.0388 -0.1223
 3040TIP3    H230612   1.543   3.250   1.438  0.5929  2.0593  0.2423
 3041TIP3   OH230613   4.103   2.584   0.667 -0.0093  0.0508 -0.2656
 3041TIP3    H130614   4.089   2.670   0.627 -1.1799 -0.6160 -1.3673
 3041TIP3    H230615   4.058   2.523   0.609 -0.1528 -1.1903  1.0966
 3042TIP3   OH230616   3.462   2.374  15.927  0.0621 -0.2772  0.3423
 3042TIP3    H130617   3.468   2.417  16.012  1.2762 -0.1188  0.1951
 3042TIP3    H230618   3.481   2.443  15.864  0.0659 -0.5931 -0.0031
 3043TIP3   OH230619   1.613   4.489  12.352 -0.0662  0.4501 -0.0023
 3043TIP3    H130620   1.704   4.469  12.328  0.0199  0.3500  0.3983
 3043TIP3    H230621   1.620   4.538  12.434 -0.2916  1.8491 -0.7835
 3044TIP3   OH230622   6.672   4.454   4.339  0.5607 -0.2892  0.0346
 3044TIP3    H130623   6.656   4.548   4.343 -1.1272 -0.4642 -1.3103
 3044TIP3    H230624   6.767   4.446   4.333  0.7487  1.3141  0.4417
 3045TIP3   OH230625   1.475   1.382  11.634 -0.1140 -0.0778 -0.1478
 3045TIP3    H130626   1.392   1.348  11.666 -0.0825  0.0307  0.0520
 3045TIP3    H230627   1.464   1.388  11.539 -0.1757 -0.4877 -0.1660
 3046TIP3   OH230628   2.599   2.941   5.699  0.1325  0.2920 -0.1641
 3046TIP3    H130629   2.620   2.912   5.788  0.4769 -1.3387 -0.7405
 3046TIP3    H230630   2.533   2.879   5.669  1.4367 -0.3998 -1.7340
 3047TIP3   OH230631   4.687   3.557  13.359 -0.1763 -0.2527  0.5879
 3047TIP3    H130632   4.650   3.531  13.275  0.4307 -0.0718  0.2536
 3047TIP3    H230633   4.696   3.476  13.408  1.7854 -0.7403 -0.4761
 3048TIP3   OH230634   2.883   1.305  12.800 -0.0672  0.4376  0.5895
 3048TIP3    H130635   2.929   1.358  12.865 -1.4938  1.8920  0.4749
 3048TIP3    H230636   2.792   1.333  12.807 -0.2596  0.6718 -2.0556
 3049TIP3   OH230637   5.410   0.801   4.235  0.2619  0.0143 -0.1211
 3049TIP3    H130638   5.335   0.802   4.293 -0.8331 -0.7098 -1.4506
 3049TIP3    H230639   5.478   0.754   4.284  0.4197  1.9694  1.6837
 3050TIP3   OH230640   5.510   2.228  16.945 -0.3200  0.0280  0.3844
 3050TIP3    H130641   5.429   2.253  16.990 -1.0067  0.6593 -1.1491
 3050TIP3    H230642   5.565   2.306  16.950 -1.1750  0.8104 -1.5282
 3051TIP3   OH230643   2.687   1.788   1.709 -0.0402  0.3285 -0.9149
 3051TIP3    H130644   2.744   1.739   1.768 -1.5133  2.6188  2.7849
 3051TIP3    H230645   2.609   1.733   1.701  0.3526 -0.2038 -1.1349
 3052TIP3   OH230646   5.043   5.889   3.522 -0.2430 -0.0636 -0.5297
 3052TIP3    H130647   5.102   5.907   3.595 -0.0241  4.0581 -1.4555
 3052TIP3    H230648   4.960   5.929   3.548 -0.5259  0.3661 -1.9981
 3053TIP3   OH230649   2.323   2.825   3.287 -0.2697 -0.0390  0.3594
 3053TIP3    H130650   2.279   2.869   3.215  0.8775  1.8574  0.7411
 3053TIP3    H230651   2.336   2.735   3.257 -2.5150 -0.1193 -0.5359
 3054TIP3   OH230652   1.218   0.128   1.783 -0.4502 -0.3275 -0.1853
 3054TIP3    H130653   1.158   0.069   1.829 -0.3540 -0.4616 -0.2341
 3054TIP3    H230654   1.177   0.143   1.698  0.0837 -1.2226 -0.6105
 3055TIP3   OH230655   2.768   3.962  12.503  0.2125 -0.4441 -0.0571
 3055TIP3    H130656   2.862   3.946  12.491  0.4137  1.6317 -1.9607
 3055TIP3    H230657   2.758   3.976  12.597  1.6803 -1.3325  0.2659
 3056TIP3   OH230658   2.024   1.311  10.597 -0.3663 -0.4202  0.4464
 3056TIP3    H130659   2.016   1.239  10.534 -0.0470  0.2544 -0.3715
 3056TIP3    H230660   1.936   1.320  10.634 -0.9965  0.2582 -1.1201
 3057TIP3   OH230661   4.700   6.670  16.349 -0.1431  0.1730  0.0783
 3057TIP3    H130662   4.648   6.727  16.293 -1.6036  3.0904  3.9724
 3057TIP3    H230663   4.636   6.625  16.404  1.2416  0.1058  1.7251
 3058TIP3   OH230664   3.224   0.421  17.097 -0.2399 -0.2210  0.1324
 3058TIP3    H130665   3.229   0.450  17.188  1.0203 -0.7566  0.2425
 3058TIP3    H230666   3.229   0.502  17.046  4.4255 -0.1009  0.3965
 3059TIP3   OH230667   0.842   3.546  13.864 -0.3832  0.2304 -0.4194
 3059TIP3    H130668   0.909   3.556  13.931  1.2050  0.7495 -2.0190
 3059TIP3    H230669   0.888   3.561  13.782 -2.0478 -1.4057 -1.7105
 3060TIP3   OH230670   4.302   0.041  13.252 -0.0798 -0.6251 -0.1249
 3060TIP3    H130671   4.227   0.088  13.288  0.1862  0.4801 -0.9722
 3060TIP3    H230672   4.374   0.063  13.311 -0.5826 -2.4558  1.2504
 3061TIP3   OH230673   6.686   4.558   5.149  0.3338 -0.1522  0.3342
 3061TIP3    H130674   6.728   4.475   5.128  0.5368 -0.6365  2.4600
 3061TIP3    H230675   6.612   4.535   5.204  0.2376  1.0570  0.7423
 3062TIP3   OH230676   4.086   4.625  12.398  0.7360  0.4626 -0.5268
 3062TIP3    H130677   4.167   4.628  12.347  2.9541 -0.1366  2.6758
 3062TIP3    H230678   4.084   4.537  12.435 -0.5604  0.9564  0.6797
 3063TIP3   OH230679   1.513   3.015   0.816  0.4489  0.2154 -0.0793
 3063TIP3    H130680   1.594   2.989   0.773  0.9749  3.7028 -1.5876
 3063TIP3    H230681   1.447   3.012   0.747 -0.0731  0.1160  0.4163
 3064TIP3   OH230682   4.359   5.978  16.270  0.6086  0.6792 -0.0171
 3064TIP3    H130683   4.429   5.981  16.206 -0.4865 -0.5343 -1.3527
 3064TIP3    H230684   4.335   5.885  16.275 -0.9713  1.0671  0.2796
 3065TIP3   OH230685   1.087   2.888  13.035 -0.2194 -0.6066 -0.2808
 3065TIP3    H130686   1.034   2.931  13.102  0.5942 -1.2031  0.7810
 3065TIP3    H230687   1.032   2.816  13.003 -0.3448 -0.7636  0.2783
 3066TIP3   OH230688   5.601   6.326   6.137 -0.0790 -0.1923  0.0580
 3066TIP3    H130689   5.613   6.283   6.221  1.2276  1.6287  0.8669
 3066TIP3    H230690   5.558   6.408   6.158 -1.2040 -0.4062 -1.2695
 3067TIP3   OH230691   0.565   0.104  12.466  0.1396  0.2473  0.0229
 3067TIP3    H130692   0.646   0.144  12.436 -0.3550  0.0110 -1.7207
 3067TIP3    H230693   0.590   0.055  12.544  1.0690  2.5284  1.2538
 3068TIP3   OH230694   0.059   3.130   3.498 -0.3644  0.2729 -0.4772
 3068TIP3    H130695   0.058   3.204   3.437  1.2217 -0.1807 -1.1186
 3068TIP3    H230696   0.129   3.074   3.466  0.3227 -0.1414  1.5798
 3069TIP3   OH230697   2.111   5.833  14.384 -0.0651 -0.0261  0.2793
 3069TIP3    H130698   2.032   5.823  14.330 -0.2960 -0.3483  0.6668
 3069TIP3    H230699   2.171   5.884  14.330 -1.2139  1.8313  0.6708
 3070TIP3   OH230700   3.029   6.616   2.094  0.3426 -0.1670  0.6730
 3070TIP3    H130701   3.070   6.571   2.019  0.5853 -0.3317  0.9042
 3070TIP3    H230702   3.066   6.704   2.091  1.4571 -0.5846  1.4399
 3071TIP3   OH230703   0.471   0.115   3.575 -0.1264  0.0680  0.5070
 3071TIP3    H130704   0.527   0.089   3.501  0.5604  1.0190  0.6773
 3071TIP3    H230705   0.383   0.088   3.548  0.1270  0.2933 -0.6164
 3072TIP3   OH230706   4.953   1.327  15.620  0.0400 -0.4750  0.0705
 3072TIP3    H130707   4.888   1.355  15.555  0.8700 -0.2584 -0.6847
 3072TIP3    H230708   4.902   1.306  15.698 -0.6500  4.0414  1.0986
 3073TIP3   OH230709   3.206   3.036  15.578  0.1363  0.3519  0.1279
 3073TIP3    H130710   3.135   2.992  15.626  2.4518 -1.5913  1.9882
 3073TIP3    H230711   3.196   3.004  15.488 -0.5986 -0.9343  0.6231
 3074TIP3   OH230712   5.364   2.748  15.044 -0.3594  0.3205 -0.3416
 3074TIP3    H130713   5.434   2.713  14.988 -0.4133  0.3566 -0.4326
 3074TIP3    H230714   5.360   2.841  15.022 -1.0373  0.1483 -0.9953
 3075TIP3   OH230715   1.188   1.414  12.873 -0.0578 -0.3245  0.0819
 3075TIP3    H130716   1.127   1.424  12.800  2.1288  1.4954 -1.6306
 3075TIP3    H230717   1.271   1.391  12.833  1.3993  1.3556  1.8796
 3076TIP3   OH230718   3.778   6.338   2.164 -0.7380 -0.1128 -0.1257
 3076TIP3    H130719   3.868   6.365   2.182 -0.8901  0.6096 -0.4078
 3076TIP3    H230720   3.783   6.291   2.081 -0.5623 -0.4298  0.0623
 3077TIP3   OH230721   6.277   3.695   5.615  0.0299 -0.6063 -0.3288
 3077TIP3    H130722   6.297   3.603   5.595  1.7331 -0.4875  0.6840
 3077TIP3    H230723   6.231   3.691   5.699 -0.1161 -0.5507 -0.4068
 3078TIP3   OH230724   1.105   4.952  16.776  0.1071  0.4933 -0.1569
 3078TIP3    H130725   1.125   5.038  16.739  1.1931  0.9710  1.4038
 3078TIP3    H230726   1.067   4.971  16.862  1.2793 -0.5470  0.6403
 3079TIP3   OH230727   4.451   1.879   3.988  0.2282  0.8057  0.8719
 3079TIP3    H130728   4.429   1.861   3.897  1.3121  1.3302  0.4894
 3079TIP3    H230729   4.384   1.833   4.038 -2.2836  3.0855 -0.2031
 3080TIP3   OH230730   2.509   5.869   1.450  0.0171  0.1389  0.4509
 3080TIP3    H130731   2.487   5.933   1.382 -0.0522 -1.0723 -0.7181
 3080TIP3    H230732   2.555   5.799   1.403  1.7400  0.1600  1.9919
 3081TIP3   OH230733   1.847   2.750  14.111  0.5071 -0.3989 -0.9423
 3081TIP3    H130734   1.868   2.696  14.034  0.2855 -0.8651 -0.6801
 3081TIP3    H230735   1.930   2.761  14.157  0.5364 -0.5930 -0.9496
 3082TIP3   OH230736   1.032   1.238   2.096  0.1944  0.5246 -0.1161
 3082TIP3    H130737   1.126   1.228   2.104  0.1356 -0.3428 -0.3407
 3082TIP3    H230738   1.015   1.229   2.002  0.0020  1.8266 -0.2127
 3083TIP3   OH230739   5.703   1.239  14.983 -0.4092 -0.0747 -0.6724
 3083TIP3    H130740   5.608   1.233  14.974 -0.3211 -0.1280 -1.7565
 3083TIP3    H230741   5.734   1.151  14.961 -0.0558  0.2325 -1.4640
 3084TIP3   OH230742   2.707   6.289   0.766 -0.2349 -0.0889  0.5069
 3084TIP3    H130743   2.756   6.316   0.844  0.5513 -0.6395  0.2170
 3084TIP3    H230744   2.660   6.210   0.792  0.0057 -0.2568  0.4364
 3085TIP3   OH230745   3.046   1.719   4.194 -0.0014  0.0812  0.0945
 3085TIP3    H130746   3.057   1.794   4.135 -2.0592  0.7349  0.4705
 3085TIP3    H230747   2.952   1.702   4.194  0.2981 -1.8368  0.8764
 3086TIP3   OH230748   4.395   6.745  15.410 -0.1957  0.0163 -0.3664
 3086TIP3    H130749   4.390   6.804  15.485 -0.5928 -1.3387  0.7061
 3086TIP3    H230750   4.488   6.739  15.391  0.0717 -0.9206  1.1021
 3087TIP3   OH230751   1.322   4.276   0.647  0.0753 -0.0768 -0.3879
 3087TIP3    H130752   1.316   4.230   0.563  0.9842  1.7712 -1.5388
 3087TIP3    H230753   1.273   4.357   0.633  1.1521  0.7521  0.4905
 3088TIP3   OH230754   2.771   4.772  16.596 -0.2509  0.0426 -0.6492
 3088TIP3    H130755   2.690   4.735  16.632 -0.0251 -0.5621 -0.7574
 3088TIP3    H230756   2.804   4.705  16.537 -0.6464  1.0416 -2.0678
 3089TIP3   OH230757   3.747   3.029  11.597 -0.1151 -0.7490 -0.2842
 3089TIP3    H130758   3.712   3.115  11.620  1.4539 -0.3018  0.5948
 3089TIP3    H230759   3.685   2.994  11.533 -1.0416  0.8253 -0.3003
 3090TIP3   OH230760   1.645   5.003  10.758 -0.1299  0.3091 -0.5056
 3090TIP3    H130761   1.675   4.915  10.735 -1.2171 -0.2299  0.0521
 3090TIP3    H230762   1.646   5.050  10.674  1.2254  0.0213 -0.6708
 3091TIP3   OH230763   4.938   0.541   3.754  0.5514  0.1589 -0.3474
 3091TIP3    H130764   4.979   0.564   3.837 -0.0072 -0.0029 -0.0260
 3091TIP3    H230765   4.968   0.451   3.737 -0.6332 -0.4323  0.5110
 3092TIP3   OH230766   5.238   2.795  15.298 -0.2236  0.4500 -0.6060
 3092TIP3    H130767   5.274   2.786  15.210 -2.1339  0.4485 -1.4355
 3092TIP3    H230768   5.144   2.803  15.285 -0.5544  0.5186  1.4479
 3093TIP3   OH230769   6.453   6.063   3.533  0.5772 -0.3708  0.0563
 3093TIP3    H130770   6.431   5.978   3.571 -0.1506  0.9087  2.7615
 3093TIP3    H230771   6.379   6.084   3.477  0.0968 -0.9258  0.4707
 3094TIP3   OH230772   4.471   4.751  15.813  0.3987  0.2873 -0.6856
 3094TIP3    H130773   4.447   4.682  15.874  1.0727  1.2172  0.6740
 3094TIP3    H230774   4.406   4.820  15.827  1.1049  0.8922 -0.3351
 3095TIP3   OH230775   1.321   4.264   4.586 -0.7722 -1.1069 -0.0180
 3095TIP3    H130776   1.405   4.226   4.612  0.0301 -0.1933 -1.1569
 3095TIP3    H230777   1.330   4.278   4.491 -1.5767  0.5029  0.1137
 3096TIP3   OH230778   0.809   3.292   6.143 -0.2989  0.1483 -0.2201
 3096TIP3    H130779   0.771   3.215   6.101 -2.4213  0.9311  0.1241
 3096TIP3    H230780   0.753   3.365   6.115  1.2006  1.4738  0.0515
 3097TIP3   OH230781   4.774   2.347  15.243 -0.5416  0.5830 -0.7495
 3097TIP3    H130782   4.711   2.415  15.268  0.5635  1.4450 -0.2266
 3097TIP3    H230783   4.789   2.361  15.150 -2.7496 -1.0366 -1.4453
 3098TIP3   OH230784   5.817   2.835  14.984 -0.0257  0.2841  0.4583
 3098TIP3    H130785   5.890   2.870  14.934  1.5497 -1.6041  1.3111
 3098TIP3    H230786   5.814   2.887  15.064  0.3634  0.3767  0.4102
 3099TIP3   OH230787   1.851   1.177   0.340  0.1801 -0.8146 -0.3282
 3099TIP3    H130788   1.861   1.199   0.248 -1.6328 -0.9128 -0.5802
 3099TIP3    H230789   1.938   1.194   0.378  0.4325  1.1534 -1.6353
 3100TIP3   OH230790   1.294   3.002  15.242  0.1389 -0.0885 -0.2093
 3100TIP3    H130791   1.317   3.088  15.207  0.2164 -0.2886 -0.6504
 3100TIP3    H230792   1.200   3.006  15.254  0.1130 -0.0144 -0.4270
 3101TIP3   OH230793   2.081   4.721  12.299  0.3572  0.2050 -0.4970
 3101TIP3    H130794   2.007   4.726  12.239 -1.2207 -2.9696  0.9299
 3101TIP3    H230795   2.069   4.795  12.359 -1.2320  0.1735 -0.7425
 3102TIP3   OH230796   2.285   1.946   4.185 -0.4193 -0.6319  0.7925
 3102TIP3    H130797   2.214   2.008   4.168  0.4931  0.2479  0.0956
 3102TIP3    H230798   2.348   1.962   4.115  1.2247 -0.2791  2.2947
 3103TIP3   OH230799   2.302   1.851   2.516 -0.1909 -0.3478  0.2889
 3103TIP3    H130800   2.288   1.790   2.443  0.8959  0.6382 -0.7869
 3103TIP3    H230801   2.240   1.822   2.583 -0.4539 -1.9594 -0.5968
 3104TIP3   OH230802   0.221   1.884   2.927  0.3377  0.0927 -0.0469
 3104TIP3    H130803   0.186   1.847   2.846 -0.0896  0.8972 -0.2385
 3104TIP3    H230804   0.245   1.974   2.904 -1.4554  0.9454  1.1491
 3105TIP3   OH230805   6.662   3.468  13.115  0.6697 -0.0245 -0.3829
 3105TIP3    H130806   6.668   3.377  13.084 -0.5926 -0.8876  1.7128
 3105TIP3    H230807   6.625   3.461  13.202 -2.5614  2.7104 -1.3417
 3106TIP3   OH230808   6.689   5.785   0.458  0.2918  0.3082  0.3431
 3106TIP3    H130809   6.749   5.719   0.493  0.5634  0.4375  0.1188
 3106TIP3    H230810   6.625   5.735   0.407  0.1313  0.1583  0.6901
 3107TIP3   OH230811   3.920   4.292   1.792  0.4030 -0.5662 -0.1372
 3107TIP3    H130812   3.941   4.359   1.857 -0.6131 -1.2121  0.8857
 3107TIP3    H230813   4.006   4.259   1.764  0.8868 -1.0826  1.7586
 3108TIP3   OH230814   3.385   6.031   0.414  0.5500 -0.2127  0.5460
 3108TIP3    H130815   3.334   6.063   0.488  1.1337 -1.2439  1.4273
 3108TIP3    H230816   3.322   5.983   0.360  0.3577 -0.4604  0.9923
 3109TIP3   OH230817   4.574   5.819   3.774 -0.8743 -0.5282  0.2321
 3109TIP3    H130818   4.664   5.796   3.749 -0.2881 -0.5509  2.2515
 3109TIP3    H230819   4.545   5.747   3.830 -1.9112 -0.1641  0.1832
 3110TIP3   OH230820   6.517   2.365   5.404  0.0705 -0.1829  0.2788
 3110TIP3    H130821   6.490   2.282   5.445  1.2887 -0.4935  0.5030
 3110TIP3    H230822   6.560   2.339   5.323  0.3161  0.2371  0.2712
 3111TIP3   OH230823   3.489   5.184  17.049 -0.7266 -0.4763  0.2563
 3111TIP3    H130824   3.487   5.221  16.961 -0.0505 -0.8222  0.0871
 3111TIP3    H230825   3.435   5.105  17.044  1.1955 -1.8325 -0.5050
 3112TIP3   OH230826   6.392   3.195  12.810 -0.1807  0.3242  0.2177
 3112TIP3    H130827   6.399   3.290  12.802 -0.3896  0.4205  1.0275
 3112TIP3    H230828   6.333   3.182  12.885  1.0658 -0.4333  1.1038
 3113TIP3   OH230829   3.071   4.401  11.111  0.0378  0.2704 -0.7384
 3113TIP3    H130830   3.099   4.344  11.039 -1.1503 -0.0339 -0.9760
 3113TIP3    H230831   3.093   4.489  11.081 -0.2268  0.1263 -1.3874
 3114TIP3   OH230832   4.935   3.721   2.317 -0.5668 -0.3552 -0.7726
 3114TIP3    H130833   4.926   3.627   2.305  2.2644 -0.7711 -0.2509
 3114TIP3    H230834   5.006   3.746   2.258  1.3016  0.7416  1.7659
 3115TIP3   OH230835   2.424   4.815  13.368  0.9817 -0.1137 -0.1089
 3115TIP3    H130836   2.419   4.901  13.325  1.2114 -0.4903 -0.9162
 3115TIP3    H230837   2.345   4.812  13.422  1.5557  1.0689  0.8492
 3116TIP3   OH230838   5.805   1.252  11.202  0.0276  0.3761 -0.2603
 3116TIP3    H130839   5.723   1.253  11.153  0.2865  0.3092 -0.6969
 3116TIP3    H230840   5.864   1.310  11.153 -0.4165  2.1863  1.2158
 3117TIP3   OH230841   0.502   1.332   3.454  0.5797 -0.1287  0.6190
 3117TIP3    H130842   0.409   1.347   3.475  0.1576 -0.5769 -0.8143
 3117TIP3    H230843   0.502   1.257   3.396  1.8386 -0.0005  0.4210
 3118TIP3   OH230844   1.021   0.185  15.541 -0.4122 -0.2040 -0.0505
 3118TIP3    H130845   1.071   0.260  15.512 -2.1050  0.0215 -2.7578
 3118TIP3    H230846   0.973   0.216  15.618 -0.4387  1.2408 -0.6215
 3119TIP3   OH230847   5.517   4.494  13.543 -0.0643  0.4911  0.3039
 3119TIP3    H130848   5.446   4.556  13.554 -0.3577  0.1084  0.5697
 3119TIP3    H230849   5.482   4.410  13.573  0.9220  0.5537  1.7198
 3120TIP3   OH230850   6.501   3.115   4.719  0.2376  0.1949  0.2886
 3120TIP3    H130851   6.525   3.024   4.700 -1.0829  0.4350 -3.3151
 3120TIP3    H230852   6.583   3.164   4.711  0.6825 -0.4612  0.7208
 3121TIP3   OH230853   2.671   6.536   5.429  0.5767  0.1494 -0.0637
 3121TIP3    H130854   2.644   6.496   5.512  0.8061 -2.7166 -1.2667
 3121TIP3    H230855   2.766   6.545   5.438  0.7420 -1.1221 -0.3564
 3122TIP3   OH230856   3.209   0.579  15.321 -0.5952 -0.1494  0.1335
 3122TIP3    H130857   3.273   0.580  15.392 -1.3346 -0.9624  0.8307
 3122TIP3    H230858   3.205   0.670  15.292 -0.6036  0.2855  1.4287
 3123TIP3   OH230859   6.538   3.734  13.561  0.6305  0.2297 -0.2240
 3123TIP3    H130860   6.487   3.801  13.608  1.6590  0.7267  0.2249
 3123TIP3    H230861   6.544   3.661  13.623  1.7842  0.7921  0.3611
 3124TIP3   OH230862   0.959   4.975   2.838 -0.5647  0.1669  0.6148
 3124TIP3    H130863   0.941   5.054   2.889 -0.9556  0.0934  0.5890
 3124TIP3    H230864   1.055   4.968   2.839 -0.5114  0.8053  0.3670
 3125TIP3   OH230865   1.795   2.400  14.186  0.2173  0.5206 -0.5252
 3125TIP3    H130866   1.835   2.433  14.267 -0.9032 -1.3034  0.8677
 3125TIP3    H230867   1.701   2.402  14.203 -0.0585  0.3096 -1.8898
 3126TIP3   OH230868   6.700   1.826   0.698  0.2182  0.2264 -0.7090
 3126TIP3    H130869   6.717   1.895   0.634  0.5743 -0.6416 -1.5850
 3126TIP3    H230870   6.772   1.834   0.761 -0.8050  1.8658  0.3045
 3127TIP3   OH230871   4.274   5.018   5.377 -0.2950 -0.2899 -0.5665
 3127TIP3    H130872   4.308   4.969   5.453 -2.2576  0.5639  0.9681
 3127TIP3    H230873   4.291   4.960   5.302 -0.2797 -2.1999  0.8246
 3128TIP3   OH230874   1.127   5.930   2.399  0.0934  0.7879  0.0523
 3128TIP3    H130875   1.140   5.925   2.493 -0.3671  1.6355  0.1729
 3128TIP3    H230876   1.193   5.993   2.369  0.8088 -0.1192 -0.3238
 3129TIP3   OH230877   4.865   5.347   5.752 -0.3361 -0.5041 -0.7847
 3129TIP3    H130878   4.837   5.397   5.828 -1.0262 -0.0755 -1.2990
 3129TIP3    H230879   4.867   5.412   5.681  2.0891 -0.4970 -0.7760
 3130TIP3   OH230880   5.870   2.514  16.238 -0.3169 -0.2243 -0.2119
 3130TIP3    H130881   5.795   2.503  16.180 -0.1785  0.0903 -0.4452
 3130TIP3    H230882   5.944   2.477  16.189 -0.4589 -1.2987  0.3440
 3131TIP3   OH230883   2.532   0.302   5.226  0.4284 -0.4086  0.1541
 3131TIP3    H130884   2.626   0.283   5.228  0.7725  1.1339  1.6685
 3131TIP3    H230885   2.493   0.239   5.286  0.2972 -1.7763 -1.3133
 3132TIP3   OH230886   1.778   0.348  14.391 -0.2203 -0.5179 -0.1438
 3132TIP3    H130887   1.750   0.439  14.382  1.4202  0.1930  1.1882
 3132TIP3    H230888   1.713   0.308  14.448 -0.5706  0.0254 -0.1589
 3133TIP3   OH230889   6.161   4.845   3.058 -0.3283  0.7434 -0.2865
 3133TIP3    H130890   6.155   4.755   3.089  3.3015  0.5184  0.2208
 3133TIP3    H230891   6.076   4.862   3.017 -0.2859 -3.8454 -2.9541
 3134TIP3   OH230892   5.766   0.196  13.642  0.1920  0.4162  0.5370
 3134TIP3    H130893   5.764   0.270  13.704  0.0421  1.2221 -0.4057
 3134TIP3    H230894   5.697   0.215  13.579  2.7485  1.6610 -2.1341
 3135TIP3   OH230895   4.122   3.597   3.771 -0.2019  0.2442  0.0079
 3135TIP3    H130896   4.031   3.593   3.800 -0.2034 -0.1938 -0.0576
 3135TIP3    H230897   4.164   3.523   3.815 -0.1474 -0.2884 -0.9288
 3136TIP3   OH230898   4.700   1.009  16.181  0.3761 -0.1074 -0.0024
 3136TIP3    H130899   4.629   1.044  16.236 -1.4966 -1.1112 -1.6340
 3136TIP3    H230900   4.718   0.923  16.218 -1.2788 -1.0185 -1.2011
 3137TIP3   OH230901   3.255   1.131  17.069 -0.1010 -0.4357 -0.4279
 3137TIP3    H130902   3.235   1.093  17.155  0.2180 -1.3735 -0.7564
 3137TIP3    H230903   3.347   1.107  17.054  0.8803  2.3851  0.3386
 3138TIP3   OH230904   1.928   2.087  15.567  0.0938  0.0169  0.3402
 3138TIP3    H130905   1.874   2.135  15.630  1.1418  0.5369  0.8581
 3138TIP3    H230906   1.897   1.996  15.572 -0.8128  0.3264  0.5258
 3139TIP3   OH230907   2.838   0.010   4.726 -0.0531  0.0327 -0.1189
 3139TIP3    H130908   2.883  -0.050   4.785 -0.4787 -0.7266 -0.5514
 3139TIP3    H230909   2.754  -0.032   4.707 -0.3829  0.7826 -0.4038
 3140TIP3   OH230910   5.417   6.036  12.724  0.2577  0.3334 -0.0428
 3140TIP3    H130911   5.327   6.011  12.707 -0.2769  2.1105 -0.0678
 3140TIP3    H230912   5.411   6.108  12.787  1.8123 -1.1354  1.9050
 3141TIP3   OH230913   5.300   0.658  12.642 -0.1254  0.3299  0.6963
 3141TIP3    H130914   5.278   0.719  12.571  1.6037  0.2562  0.0341
 3141TIP3    H230915   5.263   0.574  12.614 -1.3637  0.7644  0.9712
 3142TIP3   OH230916   0.937   3.688  12.371 -0.3010  0.3611  0.1489
 3142TIP3    H130917   1.025   3.719  12.351 -0.3611 -0.4443 -1.5378
 3142TIP3    H230918   0.912   3.636  12.295 -1.3305 -1.3710  1.5907
 3143TIP3   OH230919   0.827   0.833  10.396  0.2173 -0.6142  0.4860
 3143TIP3    H130920   0.757   0.835  10.331 -2.6179 -0.5168  3.2786
 3143TIP3    H230921   0.897   0.886  10.358 -1.5046 -0.0855 -2.1967
 3144TIP3   OH230922   1.360   5.630   1.031 -0.4851 -0.1970  0.0812
 3144TIP3    H130923   1.396   5.716   1.011  1.4338 -1.0633 -0.4558
 3144TIP3    H230924   1.330   5.636   1.122 -1.4704  1.3453 -0.3131
 3145TIP3   OH230925   0.127   3.659  16.738 -0.3150  0.1296 -0.5262
 3145TIP3    H130926   0.081   3.662  16.654 -0.5176  0.9067 -0.3954
 3145TIP3    H230927   0.220   3.664  16.715 -0.3481 -0.1441 -0.7241
 3146TIP3   OH230928   0.741   3.603   1.245 -0.2623 -0.4790  0.0625
 3146TIP3    H130929   0.828   3.640   1.258 -0.7220  0.1869  1.4260
 3146TIP3    H230930   0.754   3.533   1.181  1.4353 -1.0226  0.9447
 3147TIP3   OH230931   1.968   0.396   1.827 -0.0787  0.1825  0.1631
 3147TIP3    H130932   1.941   0.310   1.859  0.6862 -0.0989  0.0587
 3147TIP3    H230933   1.933   0.458   1.891  1.2985 -0.3557  1.4849
 3148TIP3   OH230934   2.362   1.794  13.874 -0.1926  0.0885  0.3537
 3148TIP3    H130935   2.292   1.740  13.909 -0.3003 -0.6759 -0.9627
 3148TIP3    H230936   2.409   1.825  13.951 -1.9556  0.6203  1.2693
 3149TIP3   OH230937   6.687   0.982  10.642 -0.2038  0.5636  0.6832
 3149TIP3    H130938   6.703   1.012  10.552  0.5796 -2.3306 -0.2756
 3149TIP3    H230939   6.598   0.948  10.640  0.0144 -0.0235  0.8226
 3150TIP3   OH230940   1.386   4.926  14.429  0.3006 -0.0565  0.6408
 3150TIP3    H130941   1.312   4.891  14.380  0.1976 -0.1166  0.8408
 3150TIP3    H230942   1.437   4.974  14.364 -0.7241  1.3066  0.8175
 3151TIP3   OH230943   3.419   6.577  13.976  0.6071 -0.1381 -0.1095
 3151TIP3    H130944   3.371   6.634  14.035  1.9135 -1.1898  2.1257
 3151TIP3    H230945   3.356   6.552  13.909 -0.4340  2.5454 -0.2156
 3152TIP3   OH230946   3.116   6.025  11.313 -0.6169 -0.4695 -0.2308
 3152TIP3    H130947   3.189   6.067  11.358  0.2509 -0.5878 -1.4704
 3152TIP3    H230948   3.059   6.098  11.287 -1.9734 -0.5009  2.3759
 3153TIP3   OH230949   3.880   6.192   3.767  0.0080  0.1653 -0.3365
 3153TIP3    H130950   3.847   6.105   3.791 -0.2778  0.2086 -0.5698
 3153TIP3    H230951   3.939   6.216   3.838  0.7574 -0.5887 -0.6908
 3154TIP3   OH230952   3.336   2.448  10.586 -0.0626 -0.5761  0.6361
 3154TIP3    H130953   3.241   2.460  10.594 -0.3022 -1.0628 -1.0679
 3154TIP3    H230954   3.361   2.505  10.513  0.8587 -0.9116  0.6815
 3155TIP3   OH230955   4.890   1.264  11.400 -0.1526 -0.2438 -0.4580
 3155TIP3    H130956   4.875   1.357  11.417  1.9443  0.2186 -0.9425
 3155TIP3    H230957   4.884   1.255  11.305 -1.9433 -0.9491 -0.3206
 3156TIP3   OH230958   1.924   0.575   0.240 -0.2569 -0.5672  0.2049
 3156TIP3    H130959   1.889   0.581   0.329 -2.7011  0.6255 -0.7508
 3156TIP3    H230960   1.890   0.492   0.206 -0.6619 -0.2701 -0.1269
 3157TIP3   OH230961   6.828   1.706  12.847  0.2120  0.0998 -0.0585
 3157TIP3    H130962   6.802   1.729  12.936  0.6438  1.1251 -0.1879
 3157TIP3    H230963   6.855   1.789  12.807 -1.1114 -0.1290 -1.5364
 3158TIP3   OH230964   1.549   6.643  12.463  0.3550 -0.0315  0.4140
 3158TIP3    H130965   1.470   6.655  12.409 -0.8645 -2.3132  1.5134
 3158TIP3    H230966   1.617   6.621  12.400 -0.5712 -0.7007 -0.3950
 3159TIP3   OH230967   1.445   1.833  11.748 -0.5673  0.0273 -0.1168
 3159TIP3    H130968   1.431   1.926  11.765 -2.1854 -0.5249  2.1214
 3159TIP3    H230969   1.492   1.802  11.826  0.5547 -0.9117 -1.1398
 3160TIP3   OH230970   4.013   0.156   0.349  0.2941  0.2416 -0.4337
 3160TIP3    H130971   4.098   0.201   0.349  1.6844 -2.1988  1.1949
 3160TIP3    H230972   3.975   0.177   0.434 -0.2379  0.3545 -0.6921
 3161TIP3   OH230973   2.655   4.330   4.223  0.1571 -0.1084  0.7322
 3161TIP3    H130974   2.714   4.356   4.152 -1.4121 -1.5699 -1.2260
 3161TIP3    H230975   2.585   4.396   4.221 -0.6604 -0.9691 -0.1387
 3162TIP3   OH230976   3.477   2.453  16.237 -0.2185  0.4514  0.2858
 3162TIP3    H130977   3.405   2.501  16.279 -0.3924  0.6576 -0.2455
 3162TIP3    H230978   3.545   2.449  16.304  0.3309  2.6272 -0.0731
 3163TIP3   OH230979   2.730   1.845   4.794 -0.3966  0.1018  0.5051
 3163TIP3    H130980   2.781   1.836   4.875  1.8639  2.1999 -0.5484
 3163TIP3    H230981   2.770   1.783   4.734 -1.0013 -0.2974  0.5131
 3164TIP3   OH230982   2.498   4.751  15.413  0.3662 -1.0813  0.6980
 3164TIP3    H130983   2.584   4.731  15.449  1.1485 -0.3900 -0.6865
 3164TIP3    H230984   2.500   4.716  15.324 -1.2277 -2.0725  1.0089
 3165TIP3   OH230985   6.115   3.190   0.077 -0.1550  0.1298  0.0714
 3165TIP3    H130986   6.202   3.184   0.117 -0.6652 -0.1681  1.1466
 3165TIP3    H230987   6.083   3.100   0.076 -1.2637  0.4741  1.5339
 3166TIP3   OH230988   6.111   4.818  15.882  0.1305 -0.3775 -0.2681
 3166TIP3    H130989   6.039   4.777  15.834  0.5132  0.2076 -1.3763
 3166TIP3    H230990   6.138   4.892  15.827  1.2764 -0.3136  0.3456
 3167TIP3   OH230991   1.641   2.461   4.400 -0.2488 -0.1200 -0.0280
 3167TIP3    H130992   1.567   2.496   4.450 -1.2760 -0.0368 -1.5348
 3167TIP3    H230993   1.659   2.376   4.439  0.6628  0.9866  2.0945
 3168TIP3   OH230994   1.585   6.675  14.428 -0.0247 -0.1251  0.3779
 3168TIP3    H130995   1.632   6.755  14.449  0.0623  0.0103 -0.3069
 3168TIP3    H230996   1.515   6.670  14.493  0.4571  0.0767  0.9243
 3169TIP3   OH230997   1.685   5.747   2.348 -0.1868 -0.6810  0.2677
 3169TIP3    H130998   1.594   5.725   2.365 -0.3506 -1.9097 -1.8603
 3169TIP3    H230999   1.695   5.736   2.253  2.0007  0.0762  0.3589
 3170TIP3   OH231000   2.881   3.858   3.974 -0.1649  0.2511  0.3093
 3170TIP3    H131001   2.882   3.952   3.992  0.4971  0.2849  0.1253
 3170TIP3    H231002   2.961   3.825   4.015 -0.4061 -0.2335  0.3924
 3171TIP3   OH231003   2.272   0.599  16.641 -0.5904 -0.0058 -0.1418
 3171TIP3    H131004   2.239   0.640  16.721 -1.6527 -1.1711  0.0435
 3171TIP3    H231005   2.353   0.556  16.669 -0.2927  0.6240  0.0041
 3172TIP3   OH231006   4.036   2.380  15.743 -0.2149  0.0610 -0.2399
 3172TIP3    H131007   4.083   2.297  15.750 -0.3673 -0.0229 -0.2040
 3172TIP3    H231008   3.943   2.355  15.742 -0.2343  0.1145 -1.7498
 3173TIP3   OH231009   6.544   1.260  13.219  0.2391  0.3831  0.3068
 3173TIP3    H131010   6.610   1.203  13.181  0.8234  1.5532 -0.4794
 3173TIP3    H231011   6.496   1.296  13.144 -1.4522 -0.5889  0.8580
 3174TIP3   OH231012   4.971   6.229   4.108 -0.1296 -0.5695 -0.3473
 3174TIP3    H131013   4.954   6.323   4.113  1.6634 -0.2198  0.0022
 3174TIP3    H231014   4.929   6.193   4.186 -1.3808 -0.1684 -0.8151
 3175TIP3   OH231015   0.015   5.502   5.802 -0.2519 -0.4078  0.1692
 3175TIP3    H131016  -0.069   5.492   5.847  0.1565 -0.0008  1.0442
 3175TIP3    H231017  -0.003   5.474   5.712 -1.3067 -0.3841  0.3551
 3176TIP3   OH231018   1.823   3.257   0.383  0.2152 -0.3273  0.0446
 3176TIP3    H131019   1.802   3.291   0.296  0.0660 -2.4337 -0.8005
 3176TIP3    H231020   1.904   3.208   0.371 -1.1302 -2.8119  0.4436
 3177TIP3   OH231021   2.216   0.909   0.194  0.3961  0.3607  0.0191
 3177TIP3    H131022   2.262   0.989   0.220  2.2887  0.9624 -4.3244
 3177TIP3    H231023   2.281   0.840   0.202 -0.4514 -0.3289  1.2842
 3178TIP3   OH231024   0.354   5.268   3.973 -0.3304 -0.2148 -0.5601
 3178TIP3    H131025   0.274   5.314   3.946 -0.0518  0.3268 -0.4702
 3178TIP3    H231026   0.357   5.280   4.068  0.6143  1.0227 -0.7139
 3179TIP3   OH231027   3.237   5.577   1.097  0.5682 -0.5787  0.6991
 3179TIP3    H131028   3.304   5.540   1.154  0.0892 -2.3326  0.1900
 3179TIP3    H231029   3.190   5.501   1.063 -0.1654  0.4902 -0.7944
 3180TIP3   OH231030   6.126   5.098  12.926  0.2984 -0.0387  0.2494
 3180TIP3    H131031   6.075   5.038  12.872 -2.1169  1.7265  0.3809
 3180TIP3    H231032   6.160   5.163  12.865  1.8151 -0.7753  0.2706
 3181TIP3   OH231033   2.600   6.597   2.791 -0.3732  0.5725 -0.3418
 3181TIP3    H131034   2.619   6.503   2.796  0.0315  0.5564 -1.9085
 3181TIP3    H231035   2.616   6.629   2.880  2.4368 -0.3295 -0.4337
 3182TIP3   OH231036   6.488   3.836   3.073 -0.2950  0.2622  0.4215
 3182TIP3    H131037   6.457   3.872   2.990 -1.0442 -0.9379  0.1475
 3182TIP3    H231038   6.411   3.793   3.110  0.2559  0.0244  1.3114
 3183TIP3   OH231039   3.757   1.160  11.654  0.3938 -0.3847  0.4302
 3183TIP3    H131040   3.698   1.232  11.633  0.9029  0.1032  0.6251
 3183TIP3    H231041   3.723   1.123  11.735 -0.0670 -0.5848  0.1457
 3184TIP3   OH231042   1.569   2.506   1.827  0.0881 -0.8302 -0.5429
 3184TIP3    H131043   1.559   2.488   1.920 -1.9017 -0.1858 -0.5948
 3184TIP3    H231044   1.553   2.600   1.818  2.6549 -0.3946 -1.2634
 3185TIP3   OH231045   6.331   4.692   5.065 -0.4476 -0.1415  0.1819
 3185TIP3    H131046   6.308   4.782   5.043 -1.8081 -0.7030 -0.8461
 3185TIP3    H231047   6.371   4.656   4.985  0.7825 -0.2531  0.8191
 3186TIP3   OH231048   5.776   3.567   1.375 -0.4896  0.5144  0.1853
 3186TIP3    H131049   5.752   3.550   1.466  0.2311  0.4881  0.3773
 3186TIP3    H231050   5.765   3.483   1.331 -0.5282  0.4492  0.3173
 3187TIP3   OH231051   4.202   6.651   5.015 -0.5214  0.1707  0.0693
 3187TIP3    H131052   4.274   6.643   4.953 -1.8240 -3.8951 -1.2824
 3187TIP3    H231053   4.124   6.655   4.960 -1.5464  0.2246  1.4840
 3188TIP3   OH231054   0.139   4.846   6.321 -0.4216  0.7131  0.6678
 3188TIP3    H131055   0.182   4.784   6.262 -3.3166 -0.4442 -0.3783
 3188TIP3    H231056   0.126   4.797   6.402  1.3140  1.5111  1.4934
 3189TIP3   OH231057   6.464   6.101  14.855  0.1073 -0.1681 -0.3527
 3189TIP3    H131058   6.546   6.054  14.872  0.6185 -0.1205 -2.4173
 3189TIP3    H231059   6.426   6.114  14.941  0.7648 -2.8761  0.4539
 3190TIP3   OH231060   4.282   5.704  15.193  0.8701  0.2444 -0.1885
 3190TIP3    H131061   4.355   5.758  15.223  0.6736  0.0831  0.5861
 3190TIP3    H231062   4.319   5.617  15.183  1.4676  0.6932 -2.5031
 3191TIP3   OH231063   5.736   5.514  14.755  0.4411 -0.6579 -0.0511
 3191TIP3    H131064   5.830   5.532  14.757  0.2730  0.3010  0.9461
 3191TIP3    H231065   5.696   5.599  14.777 -0.6432 -1.0792 -0.3639
 3192TIP3   OH231066   2.286   4.097  16.657 -0.1703  0.0344 -0.3246
 3192TIP3    H131067   2.314   4.176  16.705  0.1124 -0.8906  1.1035
 3192TIP3    H231068   2.221   4.057  16.714 -0.2689 -0.8040 -1.0145
 3193TIP3   OH231069   0.823   4.648  14.281  0.5979  0.1991 -0.1003
 3193TIP3    H131070   0.756   4.714  14.295 -0.3550 -0.6649 -0.4175
 3193TIP3    H231071   0.798   4.606  14.198  1.4925 -0.1743 -0.1889
 3194TIP3   OH231072   5.018   4.526   5.961 -0.0879 -0.1841 -0.7183
 3194TIP3    H131073   5.085   4.495   5.900  0.8621 -0.0120  0.2070
 3194TIP3    H231074   4.980   4.446   5.999 -0.4688 -0.2830 -1.2976
 3195TIP3   OH231075   2.553   0.130  16.884 -0.1934 -0.2253  0.1704
 3195TIP3    H131076   2.618   0.200  16.890 -0.1615  0.3160 -3.7017
 3195TIP3    H231077   2.479   0.170  16.839 -1.2157 -2.0613  0.1455
 3196TIP3   OH231078   1.190   5.569  12.136  0.8077  0.0250  0.3376
 3196TIP3    H131079   1.155   5.629  12.071  1.1709 -0.3010 -0.1634
 3196TIP3    H231080   1.283   5.589  12.140  0.8705 -0.2727  0.4179
 3197TIP3   OH231081   1.238   3.643  15.837  0.8600  0.4083 -0.1197
 3197TIP3    H131082   1.167   3.707  15.834  1.1186  0.8671  1.8617
 3197TIP3    H231083   1.307   3.682  15.784  0.8751  1.6246  0.7464
 3198TIP3   OH231084   4.506   1.411   4.021  0.7065 -0.7983 -0.1443
 3198TIP3    H131085   4.533   1.404   4.112  0.5923  1.1561  0.0850
 3198TIP3    H231086   4.577   1.460   3.979 -0.1491  0.0616 -0.6305
 3199TIP3   OH231087   6.422   2.046   4.088 -0.0207  0.4692  0.2193
 3199TIP3    H131088   6.501   2.099   4.077  1.3590 -1.1335  1.6909
 3199TIP3    H231089   6.390   2.030   3.999  1.0663  1.5111 -0.3754
 3200TIP3   OH231090   0.115   0.561  11.429  0.0626  0.2014  0.1607
 3200TIP3    H131091   0.114   0.657  11.421 -0.5333  0.1649 -0.2250
 3200TIP3    H231092   0.053   0.531  11.362  0.8675 -0.4955 -0.2874
 3201TIP3   OH231093   1.892   0.877  13.034  0.5902  0.3640 -0.3931
 3201TIP3    H131094   1.855   0.869  13.122 -0.9210  1.3957 -0.8922
 3201TIP3    H231095   1.816   0.874  12.976  1.4913  0.4591 -1.6169
 3202TIP3   OH231096   4.498   0.184  12.638 -0.4077 -0.0382 -0.1227
 3202TIP3    H131097   4.506   0.089  12.641  0.4319  0.0519  1.5241
 3202TIP3    H231098   4.584   0.216  12.666 -0.6238  1.2122 -0.8142
 3203TIP3   OH231099   3.397   1.157   0.301 -0.0277  0.4302 -0.3919
 3203TIP3    H131100   3.479   1.116   0.328  0.4265  1.5272 -0.0333
 3203TIP3    H231101   3.329   1.094   0.324  0.5515  0.3470  1.2071
 3204TIP3   OH231102   6.741   1.938   1.748 -0.3949  0.7035 -0.1133
 3204TIP3    H131103   6.822   1.920   1.699 -0.1504 -3.4123  1.3660
 3204TIP3    H231104   6.671   1.924   1.684  0.0151 -0.3736 -0.3513
 3205TIP3   OH231105   1.305   6.193   0.338  0.3881 -0.0635 -0.4727
 3205TIP3    H131106   1.355   6.122   0.379  1.3250  0.7202 -0.2241
 3205TIP3    H231107   1.335   6.272   0.383  0.5218  0.6734 -1.8137
 3206TIP3   OH231108   2.912   3.304   2.740  0.2965 -1.2891  0.1207
 3206TIP3    H131109   2.922   3.291   2.646 -0.0657  0.7368 -0.2205
 3206TIP3    H231110   2.826   3.266   2.761 -0.1756 -0.6396 -0.6003
 3207TIP3   OH231111   4.981   4.684   4.371  0.3768  0.1491  0.9621
 3207TIP3    H131112   5.053   4.632   4.404  1.2107  1.8812  1.9940
 3207TIP3    H231113   4.990   4.769   4.413 -3.2173 -0.0017  2.4346
 3208TIP3   OH231114   4.175   4.292   1.422  0.3911  0.2281  0.2370
 3208TIP3    H131115   4.180   4.291   1.518  0.5185  1.7544  0.2693
 3208TIP3    H231116   4.097   4.345   1.403  1.0095  0.8836 -0.5120
 3209TIP3   OH231117   6.186   3.594   0.604 -0.2851 -0.0001  0.2821
 3209TIP3    H131118   6.173   3.553   0.518  0.7397 -0.6151  0.4079
 3209TIP3    H231119   6.109   3.568   0.655 -0.4826 -0.3391 -0.1859
 3210TIP3   OH231120   3.919   3.818   3.942  0.1972  0.2569  0.3992
 3210TIP3    H131121   3.893   3.900   3.983 -0.0661  1.1060 -1.3778
 3210TIP3    H231122   3.962   3.768   4.012  0.1667  1.8040  1.5614
 3211TIP3   OH231123   2.898   3.074   2.512  0.3869 -0.0992 -0.1207
 3211TIP3    H131124   2.981   3.027   2.517  2.0076  2.6659  2.1784
 3211TIP3    H231125   2.894   3.105   2.421  0.7262 -2.0194 -0.8436
 3212TIP3   OH231126   6.033   6.739  16.063  0.5909  0.1121 -0.1038
 3212TIP3    H131127   6.035   6.697  16.149  0.9684 -0.2741 -0.3000
 3212TIP3    H231128   6.010   6.668  16.003  0.0327  0.4438 -0.2871
 3213TIP3   OH231129   5.769   6.756  12.624 -0.0434  0.1458  0.3469
 3213TIP3    H131130   5.774   6.661  12.636 -2.2255 -0.1251 -0.3109
 3213TIP3    H231131   5.688   6.781  12.670  0.7452  1.7764  0.9041
 3214TIP3   OH231132   1.428   2.596  12.859  0.0941  0.0099 -0.1004
 3214TIP3    H131133   1.342   2.568  12.829 -0.1227 -0.0701  0.5671
 3214TIP3    H231134   1.428   2.691  12.850  0.3837 -0.0865 -1.2334
 3215TIP3   OH231135   4.404   1.757  14.662  0.2366  0.2458 -0.0406
 3215TIP3    H131136   4.346   1.791  14.594 -1.9223 -1.0084  1.0513
 3215TIP3    H231137   4.374   1.800  14.743  1.6065  0.4046  0.4165
 3216TIP3   OH231138   2.119   2.603   3.908  0.0051  0.5461  0.5026
 3216TIP3    H131139   2.201   2.640   3.941 -0.2123  0.2352  1.4201
 3216TIP3    H231140   2.074   2.570   3.986 -0.8814  0.4834 -0.0154
 3217TIP3   OH231141   3.335   1.106  16.522 -0.2336  0.0713 -0.4253
 3217TIP3    H131142   3.397   1.175  16.548 -0.7518  0.6968 -0.7932
 3217TIP3    H231143   3.254   1.154  16.503 -1.0513 -0.8088  0.7423
 3218TIP3   OH231144   1.602   6.253   0.734  0.1370  0.7936  0.1658
 3218TIP3    H131145   1.688   6.237   0.695  0.6219  1.4183  0.9451
 3218TIP3    H231146   1.540   6.217   0.671  1.0173 -1.1099  0.3346
 3219TIP3   OH231147   6.435   4.152   2.291 -0.3701 -0.1215 -0.3444
 3219TIP3    H131148   6.417   4.073   2.342  0.1055  0.1783  0.3062
 3219TIP3    H231149   6.488   4.207   2.350 -1.2035  0.9456 -0.5503
 3220TIP3   OH231150   6.048   6.352   0.980  0.3085  0.2325 -0.5415
 3220TIP3    H131151   5.988   6.383   1.048 -0.3283 -1.5000 -0.2773
 3220TIP3    H231152   6.112   6.299   1.027  0.6754  0.1527 -1.1241
 3221TIP3   OH231153   0.186   0.707  12.383 -0.1515 -0.1925 -0.4544
 3221TIP3    H131154   0.226   0.730  12.299 -1.2262  0.8682 -0.7012
 3221TIP3    H231155   0.106   0.660  12.358 -1.5102  1.8118 -0.1241
 3222TIP3   OH231156   0.557   2.369  13.398  0.1343 -0.0343 -0.1344
 3222TIP3    H131157   0.468   2.336  13.414 -0.1478  0.8070  0.0639
 3222TIP3    H231158   0.602   2.356  13.481  0.5729 -1.5605 -0.5682
 3223TIP3   OH231159   1.239   6.545  11.950 -0.1460  0.2438  0.0390
 3223TIP3    H131160   1.253   6.635  11.920  1.1535  0.6573  1.7862
 3223TIP3    H231161   1.278   6.491  11.881 -0.3394  1.0083 -0.6938
 3224TIP3   OH231162   3.608   1.166   1.599 -0.4770  0.0600 -0.0939
 3224TIP3    H131163   3.613   1.073   1.620  0.1154  0.3790  1.2964
 3224TIP3    H231164   3.518   1.179   1.567 -0.8137 -0.8422  0.4482
 3225TIP3   OH231165   5.425   1.288   0.707 -0.0070  0.2831  0.0650
 3225TIP3    H131166   5.404   1.378   0.730 -1.3450 -0.5823  2.5346
 3225TIP3    H231167   5.344   1.240   0.721  0.6510 -1.3319 -1.3044
 3226TIP3   OH231168   4.508   1.853   3.074 -0.1592  0.0007 -0.3758
 3226TIP3    H131169   4.474   1.938   3.048 -0.6338 -0.6872 -2.1455
 3226TIP3    H231170   4.462   1.790   3.018 -0.3147 -1.4972  1.3230
 3227TIP3   OH231171   4.903   6.339   0.575  0.3406 -0.2334 -0.2381
 3227TIP3    H131172   4.923   6.302   0.661  0.4192 -0.1825 -0.2335
 3227TIP3    H231173   4.807   6.343   0.572  0.3349  1.5496  0.6404
 3228TIP3   OH231174   3.778   1.433  13.345  0.9209  0.2496  0.4977
 3228TIP3    H131175   3.803   1.456  13.434  1.9391  1.4395 -0.0726
 3228TIP3    H231176   3.698   1.483  13.329  1.3089  0.8490  0.4007
 3229TIP3   OH231177   5.627   5.552  13.452 -0.2010 -0.1108 -0.4902
 3229TIP3    H131178   5.642   5.461  13.477 -3.1474 -0.7186 -0.5452
 3229TIP3    H231179   5.596   5.594  13.532 -0.4951  0.4088 -0.8704
 3230TIP3   OH231180   1.327   4.732   6.137  0.4671 -0.0903 -0.3964
 3230TIP3    H131181   1.409   4.754   6.093  0.2270  1.5276 -0.0789
 3230TIP3    H231182   1.264   4.721   6.065  0.7271 -0.3697 -0.5861
 3231TIP3   OH231183   0.077   2.944  15.659  0.1190 -0.1619 -0.2651
 3231TIP3    H131184   0.125   3.022  15.631 -0.5797 -0.6336 -3.0060
 3231TIP3    H231185   0.116   2.872  15.610 -1.8142 -0.9001 -0.8302
 3232TIP3   OH231186   2.684   1.482  12.459 -0.3121 -0.8156  0.0400
 3232TIP3    H131187   2.702   1.468  12.366 -0.2233  0.4907 -0.1449
 3232TIP3    H231188   2.758   1.533  12.490 -0.1237 -1.6158  0.9480
 3233TIP3   OH231189   1.517   4.776   4.071  0.1675  0.2938 -0.2973
 3233TIP3    H131190   1.590   4.717   4.053 -1.4273 -1.7415 -0.4748
 3233TIP3    H231191   1.530   4.804   4.161 -0.1424 -2.1206  0.5654
 3234TIP3   OH231192   1.176   5.791   2.096  0.0516  0.1213 -0.3498
 3234TIP3    H131193   1.119   5.782   2.172  0.1534  1.7276 -0.0422
 3234TIP3    H231194   1.257   5.748   2.121 -0.3319 -0.4105 -0.0163
 3235TIP3   OH231195   3.123   4.331   3.755 -0.0808  0.0956 -0.5486
 3235TIP3    H131196   3.043   4.286   3.729  0.4912 -0.2789 -1.7798
 3235TIP3    H231197   3.172   4.266   3.805 -1.1322  0.7749  1.4303
 3236TIP3   OH231198   6.245   3.282   2.629 -0.4577 -0.1485 -0.2238
 3236TIP3    H131199   6.195   3.358   2.657  0.0129 -0.0417  0.3547
 3236TIP3    H231200   6.180   3.219   2.599 -0.7951  0.9343 -1.8732
 3237TIP3   OH231201   0.417   0.473  17.141  0.1170 -0.4372  0.3458
 3237TIP3    H131202   0.485   0.536  17.116 -0.4489  0.3024  0.6584
 3237TIP3    H231203   0.461   0.388  17.135  1.2367  0.0611  1.0542
 3238TIP3   OH231204   0.732   2.646  11.589  0.1090  0.7697 -0.3097
 3238TIP3    H131205   0.822   2.614  11.581  0.1438  0.1934  1.7402
 3238TIP3    H231206   0.730   2.724  11.534  2.4546  1.8901  1.0112
 3239TIP3   OH231207   3.285   0.670  16.398  0.0644 -0.0459 -0.5304
 3239TIP3    H131208   3.370   0.647  16.437  0.2193 -1.4721 -1.6635
 3239TIP3    H231209   3.234   0.590  16.402 -0.7268  0.4131 -1.1769
 3240TIP3   OH231210   3.412   3.836  11.132  0.4676 -0.3647  0.0755
 3240TIP3    H131211   3.447   3.833  11.043  1.7604  1.9026  0.4181
 3240TIP3    H231212   3.439   3.753  11.171  1.6680 -0.5394 -1.0501
 3241TIP3   OH231213   3.851   5.769  13.853 -0.1092 -0.4225  0.5710
 3241TIP3    H131214   3.851   5.708  13.926 -3.3048 -1.1010  0.1658
 3241TIP3    H231215   3.772   5.822  13.866  1.2226  1.9404 -0.4599
 3242TIP3   OH231216   2.456   5.429  12.136  0.6184  0.4480  0.2203
 3242TIP3    H131217   2.398   5.431  12.211 -0.2615 -1.3026 -0.3602
 3242TIP3    H231218   2.523   5.364  12.159  0.9083  0.6196 -0.1228
 3243TIP3   OH231219   4.366   2.430  10.520 -0.1952 -0.1253  0.1629
 3243TIP3    H131220   4.389   2.503  10.461 -1.9367  0.3709  0.0401
 3243TIP3    H231221   4.367   2.353  10.464 -0.7392  0.1813 -0.2791
 3244TIP3   OH231222   2.290   1.344   4.774 -0.1285  0.1748 -0.4502
 3244TIP3    H131223   2.216   1.370   4.719  0.4268  1.2066 -0.7457
 3244TIP3    H231224   2.330   1.427   4.802 -0.0116 -0.3281  0.9979
 3245TIP3   OH231225   5.774   3.320  15.169 -0.1280 -0.4427  0.0378
 3245TIP3    H131226   5.829   3.370  15.230 -2.3154  0.6997  1.1748
 3245TIP3    H231227   5.777   3.231  15.203 -0.5486 -0.0086  1.2907
 3246TIP3   OH231228   1.659   1.063   4.440  0.0476  0.1645  0.3233
 3246TIP3    H131229   1.663   1.141   4.495  0.8703  0.6022 -0.3206
 3246TIP3    H231230   1.622   0.995   4.496  0.0914  0.8111  1.1513
 3247TIP3   OH231231   5.444   2.363  15.449 -0.1690 -0.2293 -0.6027
 3247TIP3    H131232   5.453   2.274  15.481 -1.2013  0.1985  1.0251
 3247TIP3    H231233   5.444   2.355  15.354  0.6957 -1.8441 -0.4890
 3248TIP3   OH231234   6.769   6.102   2.878 -0.1371 -0.1582 -0.1924
 3248TIP3    H131235   6.735   6.190   2.862 -0.0767  0.2407  1.6052
 3248TIP3    H231236   6.829   6.113   2.951  2.3731 -1.2058 -1.9822
 3249TIP3   OH231237   4.754   5.826   4.870 -0.4137 -0.2842 -0.6007
 3249TIP3    H131238   4.821   5.759   4.886  0.5011 -0.4146 -4.0580
 3249TIP3    H231239   4.673   5.776   4.856 -0.3784 -0.4309 -0.2896
 3250TIP3   OH231240   1.995   6.361   4.652 -0.3434 -0.1448  1.2935
 3250TIP3    H131241   1.904   6.331   4.643 -0.6287 -0.2657  3.7411
 3250TIP3    H231242   1.996   6.409   4.735  1.5646  1.0301  0.6572
 3251TIP3   OH231243   2.219   0.616   4.839  0.7863 -0.1249  0.4859
 3251TIP3    H131244   2.302   0.589   4.878  1.0257  0.4009  0.3454
 3251TIP3    H231245   2.240   0.696   4.791  0.3680 -0.4361 -0.2274
 3252TIP3   OH231246   1.795   3.575  14.611 -0.1106 -0.6040  0.1696
 3252TIP3    H131247   1.797   3.482  14.586 -0.5949 -0.7935  0.8020
 3252TIP3    H231248   1.768   3.574  14.703 -3.0607  0.2929 -0.5858
 3253TIP3   OH231249   5.754   5.610  14.026  0.0040  0.4713  0.6409
 3253TIP3    H131250   5.689   5.550  14.062  1.0039 -0.7166  0.5385
 3253TIP3    H231251   5.776   5.571  13.941 -1.4704  2.5879 -0.8131
 3254TIP3   OH231252   2.039   5.154   5.376  0.0294 -0.3878 -0.7971
 3254TIP3    H131253   2.112   5.135   5.315  0.7948 -0.8612  0.2292
 3254TIP3    H231254   2.042   5.081   5.438  0.2080  0.8425  0.6740
 3255TIP3   OH231255   6.501   5.838   1.094  0.2480 -0.2203  0.0173
 3255TIP3    H131256   6.458   5.790   1.023 -0.6522  3.0137 -1.8353
 3255TIP3    H231257   6.589   5.801   1.099 -0.7252 -2.8199 -0.3808
 3256TIP3   OH231258   4.341   5.905  13.469 -0.3657  0.2304 -0.2357
 3256TIP3    H131259   4.348   5.944  13.382  0.5313  0.7586  0.0569
 3256TIP3    H231260   4.285   5.828  13.457  2.4269 -1.7301 -2.0001
 3257TIP3   OH231261   2.977   1.105  13.569 -0.5436  0.1415 -0.1888
 3257TIP3    H131262   2.945   1.145  13.649  0.0749 -0.9437  0.6289
 3257TIP3    H231263   2.945   1.162  13.499  1.1946  2.6765  0.9427
 3258TIP3   OH231264   1.510   4.775  13.296  0.9901 -0.1861  0.0662
 3258TIP3    H131265   1.582   4.727  13.335  0.4649 -0.7445  0.3699
 3258TIP3    H231266   1.502   4.854  13.349  1.0341 -0.3806  0.3622
 3259TIP3   OH231267   4.541   3.846   5.466  0.4761 -0.6763 -0.0867
 3259TIP3    H131268   4.470   3.855   5.529 -0.3503 -3.1862 -0.5355
 3259TIP3    H231269   4.620   3.839   5.520  0.0815 -0.3275  0.5497
 3260TIP3   OH231270   5.927   0.973   5.052  0.2190 -0.0618 -0.1981
 3260TIP3    H131271   5.856   0.995   4.991  0.1770 -1.3934 -0.6547
 3260TIP3    H231272   5.895   0.896   5.098  1.7451 -1.2673 -1.0821
 3261TIP3   OH231273   6.241   4.162   0.696  0.6867  0.1104 -0.6200
 3261TIP3    H131274   6.230   4.185   0.604  2.2977 -0.1217 -0.9022
 3261TIP3    H231275   6.155   4.175   0.735 -0.5289 -1.5972 -2.5609
 3262TIP3   OH231276   1.538   2.244  10.573  0.5201  0.0092  0.2719
 3262TIP3    H131277   1.561   2.238  10.481  3.0295 -1.1383  0.8957
 3262TIP3    H231278   1.443   2.244  10.574  0.4270 -0.3157 -2.2805
 3263TIP3   OH231279   2.795   5.419  14.567 -0.1811 -0.1119 -0.0970
 3263TIP3    H131280   2.810   5.447  14.477 -0.6344  2.5279  0.5735
 3263TIP3    H231281   2.701   5.406  14.573 -0.1665 -0.1715  0.0178
 3264TIP3   OH231282   1.924   5.007  16.515  0.3055  0.1226  0.1482
 3264TIP3    H131283   1.829   4.996  16.510  0.2687  0.3345  0.3418
 3264TIP3    H231284   1.938   5.063  16.592  0.6801 -0.9911  0.9140
 3265TIP3   OH231285   4.344   5.199  13.670  0.2077 -0.0914 -0.1646
 3265TIP3    H131286   4.320   5.291  13.664 -3.4046 -0.8107  0.7798
 3265TIP3    H231287   4.335   5.178  13.763 -0.3370 -1.6525 -0.5337
 3266TIP3   OH231288   5.114   5.060   5.025  0.5284  0.3111 -0.2448
 3266TIP3    H131289   5.197   5.071   5.071 -0.5125 -1.2705  2.1927
 3266TIP3    H231290   5.050   5.107   5.078 -0.5877 -0.8622 -0.4921
 3267TIP3   OH231291   2.529   1.848  14.914  0.1344 -0.3817  0.0358
 3267TIP3    H131292   2.544   1.910  14.986 -0.7667  0.0582 -0.1501
 3267TIP3    H231293   2.616   1.813  14.895  0.9690  1.9099 -0.8174
 3268TIP3   OH231294   1.000   3.836  16.217 -0.3110  0.3892 -0.1361
 3268TIP3    H131295   0.974   3.743  16.219 -0.8061  0.5171 -0.4665
 3268TIP3    H231296   1.094   3.834  16.235 -0.5510 -0.0753  1.1915
 3269TIP3   OH231297   1.958   5.937  12.219  0.0635  0.2374  0.6463
 3269TIP3    H131298   1.986   5.986  12.142 -0.3129 -0.2074  0.2223
 3269TIP3    H231299   2.039   5.921  12.268  0.0622  2.5405  1.5696
 3270TIP3   OH231300   3.026   3.502   3.330  0.2197 -0.0609  0.5377
 3270TIP3    H131301   3.075   3.553   3.265 -0.7067  0.5984  0.3353
 3270TIP3    H231302   3.018   3.416   3.290 -0.9543  0.5350 -0.5717
 3271TIP3   OH231303   3.101   5.765  11.197  0.2485  0.3019 -0.0482
 3271TIP3    H131304   3.065   5.852  11.211  1.1086  0.7312 -0.4643
 3271TIP3    H231305   3.168   5.755  11.264  1.2350  0.5879 -0.9648
 3272TIP3   OH231306   4.392   6.110   1.153 -0.0847  0.0694  0.0092
 3272TIP3    H131307   4.476   6.068   1.136 -0.3722 -0.6472  0.3156
 3272TIP3    H231308   4.337   6.041   1.191 -0.7654  0.5622 -0.0461
 3273TIP3   OH231309   4.098   4.115  11.506 -0.4634 -0.0284  0.0165
 3273TIP3    H131310   4.046   4.195  11.494 -3.1115 -1.3592  1.5827
 3273TIP3    H231311   4.068   4.057  11.437  0.5146 -0.1432 -0.3273
 3274TIP3   OH231312   6.134   6.765   2.180 -0.3860 -0.4765  0.1125
 3274TIP3    H131313   6.207   6.788   2.238  2.5844  0.0189 -3.4491
 3274TIP3    H231314   6.134   6.669   2.179  0.3478 -0.4793  0.0064
 3275TIP3   OH231315   5.818   4.250  11.685  0.2959  0.4273 -0.1217
 3275TIP3    H131316   5.799   4.222  11.595  0.7029 -1.3355  0.3052
 3275TIP3    H231317   5.742   4.302  11.711 -0.7563 -0.7381 -0.7948
 3276TIP3   OH231318   5.925   1.128  10.277  0.0650  0.1490  0.2624
 3276TIP3    H131319   5.933   1.216  10.240 -0.1932 -0.1800 -0.6178
 3276TIP3    H231320   5.891   1.075  10.204  3.5550 -1.4896 -0.3888
 3277TIP3   OH231321   2.477   4.536   4.001  0.2048 -0.3252  0.2376
 3277TIP3    H131322   2.397   4.485   4.007 -0.9852  1.3618 -0.5942
 3277TIP3    H231323   2.516   4.509   3.918 -0.1978 -0.1930  0.0032
 3278TIP3   OH231324   6.304   0.479   2.278  0.2091 -0.2666 -0.1292
 3278TIP3    H131325   6.261   0.536   2.215  1.0423  0.4189 -0.0972
 3278TIP3    H231326   6.295   0.391   2.242 -0.9331 -0.1050 -0.2725
 3279TIP3   OH231327   0.386   5.680  13.116  0.1453  0.2956 -0.0045
 3279TIP3    H131328   0.384   5.616  13.046  1.1946  1.0087 -0.7149
 3279TIP3    H231329   0.339   5.756  13.081 -2.0787 -0.4034  1.2315
 3280TIP3   OH231330   5.999   3.720  15.922  0.8354 -0.1889 -0.3056
 3280TIP3    H131331   6.040   3.670  15.852 -1.1635 -1.1572 -0.8521
 3280TIP3    H231332   5.979   3.805  15.882  0.7083 -0.3427 -0.5691
 3281TIP3   OH231333   4.105   2.680  16.281  0.3583 -0.1644  0.1706
 3281TIP3    H131334   4.110   2.707  16.190 -0.6130 -0.4171  0.0277
 3281TIP3    H231335   4.135   2.756  16.330  0.9189 -0.0387 -0.3557
 3282TIP3   OH231336   3.471   0.771  11.167 -0.0791  0.6960  0.0356
 3282TIP3    H131337   3.434   0.683  11.170 -1.6817  1.3508  0.5862
 3282TIP3    H231338   3.516   0.781  11.250  1.5744 -0.1706 -0.7092
 3283TIP3   OH231339   1.475   4.009   3.401  0.2320 -0.1302  0.0058
 3283TIP3    H131340   1.532   4.086   3.406 -0.1501  0.1065  4.9123
 3283TIP3    H231341   1.395   4.043   3.360  1.4145  0.9720 -1.5673
 3284TIP3   OH231342   3.543   6.733   3.673  0.2183 -0.4236 -1.2475
 3284TIP3    H131343   3.546   6.695   3.760 -1.6094  0.6347 -0.6741
 3284TIP3    H231344   3.479   6.679   3.626 -2.6409  1.9179 -0.3323
 3285TIP3   OH231345   3.627   0.621  14.207 -0.0955  0.6781  0.2448
 3285TIP3    H131346   3.544   0.609  14.160  1.0683  0.2875 -1.8066
 3285TIP3    H231347   3.665   0.701  14.170  1.3560 -0.2305 -0.3124
 3286TIP3   OH231348   3.207   0.505  14.634  0.7082 -0.2528 -0.3216
 3286TIP3    H131349   3.115   0.489  14.615  0.2820 -5.0041  3.7163
 3286TIP3    H231350   3.254   0.460  14.563 -0.1487 -0.3000 -0.8726
 3287TIP3   OH231351   4.392   2.817   3.493  0.5592  0.1739 -0.1384
 3287TIP3    H131352   4.380   2.751   3.425 -0.5117  1.1850 -0.9850
 3287TIP3    H231353   4.485   2.839   3.490  0.5218  0.2254 -1.3246
 3288TIP3   OH231354   5.615   0.143  10.969 -0.6262 -0.0105  0.0854
 3288TIP3    H131355   5.534   0.180  10.932 -1.8280 -2.7461 -0.2454
 3288TIP3    H231356   5.649   0.087  10.900  1.8539  1.3513  0.0984
 3289TIP3   OH231357   4.492   2.177   0.381 -0.1468 -0.5282  0.1870
 3289TIP3    H131358   4.472   2.126   0.459  2.8505 -1.7685  0.2908
 3289TIP3    H231359   4.496   2.268   0.412 -0.9213 -0.7754  1.0438
 3290TIP3   OH231360   0.364   2.294   3.283  0.1059  0.6473  0.1744
 3290TIP3    H131361   0.290   2.312   3.225  1.1237  0.8229 -1.1065
 3290TIP3    H231362   0.358   2.361   3.351  1.6328  3.6475 -2.4073
 3291TIP3   OH231363   1.961   1.134  12.505 -0.5458  0.4309 -0.6112
 3291TIP3    H131364   1.903   1.083  12.449  1.3388 -0.3283 -2.0134
 3291TIP3    H231365   2.001   1.069  12.563 -0.3473  0.7797 -0.3538
 3292TIP3   OH231366   4.502   0.720  10.835  0.1411  0.3462 -0.1735
 3292TIP3    H131367   4.436   0.678  10.779 -0.4710 -2.0727  2.1738
 3292TIP3    H231368   4.584   0.711  10.786 -0.6338 -0.1274 -1.4291
 3293TIP3   OH231369   3.739   5.375  10.817  0.4521 -0.9975  0.1593
 3293TIP3    H131370   3.814   5.369  10.758  0.2885  0.1669 -0.1782
 3293TIP3    H231371   3.699   5.459  10.797  0.4626 -0.5098  2.0261
 3294TIP3   OH231372   5.659   5.825   5.031  0.1279  0.3251 -0.5100
 3294TIP3    H131373   5.575   5.867   5.011 -0.2564 -0.6825 -1.0771
 3294TIP3    H231374   5.718   5.860   4.964  0.0457  0.6896 -0.3934
 3295TIP3   OH231375   5.937   6.460   0.498 -0.2671  0.2401  0.7265
 3295TIP3    H131376   5.993   6.384   0.514 -0.1551  0.3597  0.9063
 3295TIP3    H231377   5.991   6.520   0.446 -0.4920  0.0261  0.2383
 3296TIP3   OH231378   6.114   0.125  13.609  0.3558 -0.2894 -0.2517
 3296TIP3    H131379   6.044   0.061  13.619 -0.9067  1.3445  2.5839
 3296TIP3    H231380   6.070   0.210  13.615  2.3895  0.8311 -0.2000
 3297TIP3   OH231381   0.767   2.222   2.120 -0.2625  0.0055 -0.1307
 3297TIP3    H131382   0.776   2.304   2.169 -1.7547  1.2788 -1.8522
 3297TIP3    H231383   0.852   2.210   2.079  0.2661  0.1703  0.8840
 3298TIP3   OH231384   5.205   4.761  12.697  0.0716 -0.3693  0.0031
 3298TIP3    H131385   5.299   4.763  12.680 -0.1876  0.8641 -1.5195
 3298TIP3    H231386   5.176   4.676  12.665 -0.0625  1.1088 -4.3837
 3299TIP3   OH231387   0.759   5.294   0.964 -0.5408 -0.5478 -0.1745
 3299TIP3    H131388   0.804   5.245   1.033 -0.9692  0.0796  0.5668
 3299TIP3    H231389   0.811   5.278   0.885  0.8855  0.0068  0.6100
 3300TIP3   OH231390   1.552   4.568  15.216 -0.2437 -0.4801  0.9426
 3300TIP3    H131391   1.560   4.526  15.302 -0.0490  0.0022  1.1623
 3300TIP3    H231392   1.639   4.603  15.198  1.3871 -4.9626 -1.8079
 3301TIP3   OH231393   2.443   4.713   2.721 -0.2759  0.6424 -0.0306
 3301TIP3    H131394   2.386   4.673   2.655 -1.6617 -0.4423  1.7344
 3301TIP3    H231395   2.383   4.753   2.783  1.0115  2.0625  0.3608
 3302TIP3   OH231396   1.412   3.615   0.884 -0.3917 -0.0582  0.2526
 3302TIP3    H131397   1.364   3.679   0.937 -2.2532 -0.5432 -0.7482
 3302TIP3    H231398   1.416   3.654   0.797 -1.9759 -1.4333 -0.4982
 3303TIP3   OH231399   2.339   4.822  10.929 -0.7101  0.4418  0.2899
 3303TIP3    H131400   2.286   4.755  10.972 -2.0682  0.9052 -0.5983
 3303TIP3    H231401   2.335   4.799  10.836  3.0092 -1.1522  0.3437
 3304TIP3   OH231402   5.152   4.322   3.687 -0.2066 -0.0491 -0.3948
 3304TIP3    H131403   5.197   4.376   3.752  0.9875 -1.1441 -0.2743
 3304TIP3    H231404   5.197   4.341   3.605 -1.0047  0.5151 -0.7133
 3305TIP3   OH231405   5.800   3.674   3.617  0.1971 -0.3800  0.6763
 3305TIP3    H131406   5.844   3.606   3.669 -0.0540 -1.6326 -0.7137
 3305TIP3    H231407   5.718   3.690   3.664 -0.4034 -2.0835  0.2725
 3306TIP3   OH231408   1.160   0.382   2.618 -0.0930 -0.5558  0.0463
 3306TIP3    H131409   1.212   0.448   2.572 -1.3376  1.2652  1.1373
 3306TIP3    H231410   1.199   0.377   2.705  0.1084 -1.4415 -0.0826
 3307TIP3   OH231411   6.505   5.042  12.327  0.2721 -0.3213  0.2999
 3307TIP3    H131412   6.537   5.021  12.415  2.3880 -0.2006 -0.3871
 3307TIP3    H231413   6.483   5.135  12.331  1.2452 -0.0888  0.4722
 3308TIP3   OH231414   3.695   3.686  11.826 -0.0377  0.0353 -0.3608
 3308TIP3    H131415   3.713   3.600  11.864 -2.6730 -0.0839  0.8911
 3308TIP3    H231416   3.731   3.748  11.889 -1.5069 -0.2044  0.8005
 3309TIP3   OH231417   0.989   5.106   4.796  0.2131  0.3371  0.2126
 3309TIP3    H131418   1.035   5.135   4.717  1.2781  1.2566  1.1201
 3309TIP3    H231419   0.963   5.187   4.839 -1.4291 -0.1747  0.2218
 3310TIP3   OH231420   3.481   3.226   0.063  0.5712  0.2039 -0.0610
 3310TIP3    H131421   3.526   3.147   0.033  0.1591  0.0935 -0.3963
 3310TIP3    H231422   3.393   3.196   0.087 -0.5471  0.9868 -2.8072
 3311TIP3   OH231423   6.313   1.029   5.400  0.3956  0.3516  0.1195
 3311TIP3    H131424   6.398   0.993   5.425  0.5463  0.1509 -0.6634
 3311TIP3    H231425   6.257   1.012   5.476  0.9090 -0.0172  0.4219
 3312TIP3   OH231426   3.277   3.843   0.412  0.1987 -0.3352 -0.4378
 3312TIP3    H131427   3.257   3.937   0.411 -0.4581 -0.4733 -0.8556
 3312TIP3    H231428   3.370   3.838   0.431  0.0968  0.3842  0.3353
 3313TIP3   OH231429   5.969   6.280  16.544  0.2903  0.1731 -0.0897
 3313TIP3    H131430   5.912   6.324  16.481 -1.2879 -2.2021 -0.4577
 3313TIP3    H231431   5.997   6.200  16.499  3.2831  0.8231  0.4213
 3314TIP3   OH231432   3.420   4.792   3.791 -0.0370 -0.2263 -0.2931
 3314TIP3    H131433   3.411   4.812   3.698 -1.9415  0.4054 -0.0048
 3314TIP3    H231434   3.396   4.700   3.798  1.6056 -0.7218 -0.5921
 3315TIP3   OH231435   4.137   1.347  15.717  0.3902  0.2598 -0.5412
 3315TIP3    H131436   4.140   1.373  15.809  0.2778 -0.8316 -0.2103
 3315TIP3    H231437   4.132   1.429  15.669  0.5139  0.8509  0.4246
 3316TIP3   OH231438   6.493   4.439  11.043  0.2002  0.0066 -0.1819
 3316TIP3    H131439   6.516   4.395  10.961  2.0337  1.3922 -0.4865
 3316TIP3    H231440   6.505   4.533  11.024  2.9883  0.3029  2.2250
 3317TIP3   OH231441   6.457   4.541   0.668  0.2212 -0.0040 -0.2121
 3317TIP3    H131442   6.550   4.538   0.689  0.1551  0.7064  0.2120
 3317TIP3    H231443   6.453   4.585   0.583  0.2340  0.6504  0.1159
 3318TIP3   OH231444   1.581   0.644  12.012 -1.0360  0.6550  0.2043
 3318TIP3    H131445   1.572   0.728  12.057 -2.0835  0.4534  0.3915
 3318TIP3    H231446   1.492   0.608  12.009 -0.4925 -0.8832  0.9759
 3319TIP3   OH231447   4.520   4.750  15.547 -0.3466 -0.1831 -0.1327
 3319TIP3    H131448   4.431   4.724  15.525  0.5387 -2.8610 -0.8985
 3319TIP3    H231449   4.520   4.756  15.642 -1.1134 -1.1184 -0.0572
 3320TIP3   OH231450   3.583   1.395  11.673  0.2319 -0.6859  0.1034
 3320TIP3    H131451   3.496   1.354  11.670 -0.1630  0.1861 -0.4444
 3320TIP3    H231452   3.571   1.474  11.724  0.6764 -0.4749 -0.1131
 3321TIP3   OH231453   3.920   4.148   0.795 -0.9321  0.0588  0.4452
 3321TIP3    H131454   3.968   4.097   0.730 -1.0713  0.5451 -0.0502
 3321TIP3    H231455   3.870   4.084   0.845  0.1642 -0.4534  0.9182
 3322TIP3   OH231456   6.346   3.320   0.213  0.4894  0.3255 -0.3236
 3322TIP3    H131457   6.275   3.289   0.270  0.4317 -2.1614 -1.5947
 3322TIP3    H231458   6.425   3.309   0.266  0.1695  0.7986  0.2654
 3323TIP3   OH231459   3.891   5.283   3.033  0.8377  0.6421 -0.1255
 3323TIP3    H131460   3.839   5.301   2.955  2.5670  0.3662 -1.3956
 3323TIP3    H231461   3.862   5.196   3.062  0.5910  0.4955 -0.7981
 3324TIP3   OH231462   1.636   5.894   0.207  0.2922  0.1394 -0.6737
 3324TIP3    H131463   1.541   5.884   0.197  0.4663  0.2557 -2.7283
 3324TIP3    H231464   1.669   5.903   0.118  2.2073  0.5103  0.0327
 3325TIP3   OH231465   0.881   5.166  15.904 -0.5550  0.0486  0.0076
 3325TIP3    H131466   0.908   5.077  15.879 -0.1354  0.0563  0.4205
 3325TIP3    H231467   0.851   5.206  15.823  0.6793  0.0411 -0.4635
 3326TIP3   OH231468   4.124   0.765  12.485 -0.0863 -0.4643  0.5919
 3326TIP3    H131469   4.078   0.700  12.538  1.5415 -0.7700  1.7085
 3326TIP3    H231470   4.213   0.766  12.520  0.3656  1.2072 -0.4675
 3327TIP3   OH231471   1.237   3.534  13.429  0.6697  0.8689  0.0965
 3327TIP3    H131472   1.330   3.557  13.436  0.3754  1.8868  0.7675
 3327TIP3    H231473   1.223   3.472  13.500  0.7391  1.0435  0.2631
 3328TIP3   OH231474   5.067   1.213  12.676  0.4899  0.3796  0.2346
 3328TIP3    H131475   5.093   1.287  12.730  1.4526 -0.3338  0.7746
 3328TIP3    H231476   4.972   1.224  12.664  0.2785  0.6055  1.9663
 3329TIP3   OH231477   0.048   1.554   6.176 -0.4159 -0.1259  0.2236
 3329TIP3    H131478   0.027   1.588   6.089  0.1526  1.1952  0.5787
 3329TIP3    H231479  -0.036   1.550   6.221 -0.6307 -0.2120 -0.1818
 3330TIP3   OH231480   1.789   0.321   0.641  0.3501  0.2193  0.0292
 3330TIP3    H131481   1.694   0.312   0.649  0.2023 -0.0254 -1.5325
 3330TIP3    H231482   1.825   0.266   0.710 -0.6095  2.2589  2.3118
 3331TIP3   OH231483   5.037   4.229   0.329  0.0198  0.3462  0.6812
 3331TIP3    H131484   5.004   4.317   0.311 -1.6648  0.2353  2.7780
 3331TIP3    H231485   4.984   4.172   0.274 -1.6146  0.4023  2.0963
 3332TIP3   OH231486   6.635   1.695   1.521  0.2403  0.7848 -0.3494
 3332TIP3    H131487   6.632   1.642   1.440 -0.1065  2.7001 -1.6513
 3332TIP3    H231488   6.565   1.660   1.575  1.8335 -1.9792  0.1129
 3333TIP3   OH231489   3.254   6.016  16.166 -0.4439  0.0613 -0.4532
 3333TIP3    H131490   3.258   5.925  16.195 -1.8591  0.1289  0.0375
 3333TIP3    H231491   3.249   6.066  16.247  0.1506  0.5604 -0.7262
 3334TIP3   OH231492   2.998   2.981   3.981  0.5339 -0.0901 -0.0891
 3334TIP3    H131493   2.919   3.028   3.954 -1.2917 -1.5531  2.3269
 3334TIP3    H231494   3.058   3.050   4.010 -1.0079  0.9658  0.7497
 3335TIP3   OH231495   4.337   5.601   0.209 -0.2267  0.0842  0.4465
 3335TIP3    H131496   4.275   5.672   0.192 -0.2462 -0.4360 -2.1970
 3335TIP3    H231497   4.422   5.644   0.219 -0.1427  0.5507 -1.7112
 3336TIP3   OH231498   0.916   6.635  16.084 -0.2129  0.6812 -0.6916
 3336TIP3    H131499   0.944   6.625  16.175 -0.3777 -1.5887 -0.8422
 3336TIP3    H231500   0.868   6.718  16.083 -2.3745 -0.3716  1.8734
 3337TIP3   OH231501   4.796   1.977  11.252 -0.0602 -0.0797 -0.1580
 3337TIP3    H131502   4.844   1.976  11.335 -0.1031 -1.1777 -0.1358
 3337TIP3    H231503   4.742   2.056  11.257 -0.0902 -0.1531  0.8784
 3338TIP3   OH231504   3.486   1.872  12.642  0.2346  0.2319  0.5085
 3338TIP3    H131505   3.431   1.949  12.628  0.7885  0.5545  0.0697
 3338TIP3    H231506   3.431   1.798  12.616  0.6132  0.6741 -1.7331
 3339TIP3   OH231507   4.876   0.467  16.098 -0.4391  0.1747  0.3265
 3339TIP3    H131508   4.804   0.477  16.035  0.1818  0.6800 -0.3274
 3339TIP3    H231509   4.867   0.378  16.130  1.8692 -1.8944 -3.8934
 3340TIP3   OH231510   6.313   0.556   0.713 -0.0336 -0.1585  0.0719
 3340TIP3    H131511   6.338   0.637   0.756 -0.1078 -0.8469  1.4626
 3340TIP3    H231512   6.226   0.536   0.748  0.5873 -1.5834  0.9094
 3341TIP3   OH231513   0.241   1.729  12.478  0.6609 -0.8713 -0.2087
 3341TIP3    H131514   0.259   1.665  12.409  2.1708 -1.5555  0.7604
 3341TIP3    H231515   0.312   1.717  12.541  0.5547  1.2455  0.3954
 3342TIP3   OH231516   1.475   2.602  14.084  0.5782 -0.5754 -0.1366
 3342TIP3    H131517   1.495   2.693  14.108 -0.3032 -0.5743  0.6282
 3342TIP3    H231518   1.386   2.604  14.051  1.1626 -0.8836 -1.8564
 3343TIP3   OH231519   2.819   1.253   4.056  0.4340  0.5224  0.4443
 3343TIP3    H131520   2.772   1.328   4.019  1.8140  1.1864 -0.0127
 3343TIP3    H231521   2.759   1.218   4.122 -1.9081 -0.3684 -1.9626
 3344TIP3   OH231522   3.559   1.286   3.040 -0.4713 -0.0214  0.1029
 3344TIP3    H131523   3.640   1.247   3.009 -0.8154 -0.6694  0.0008
 3344TIP3    H231524   3.501   1.286   2.964 -0.7554 -0.0709  0.3164
 3345TIP3   OH231525   5.253   6.379  10.989  0.0621 -0.3649 -0.2758
 3345TIP3    H131526   5.229   6.410  10.902 -2.5424 -0.7317  0.2323
 3345TIP3    H231527   5.240   6.454  11.047  2.0427 -0.0384 -0.1613
 3346TIP3   OH231528   1.607   4.096  11.167  0.5860  0.1897 -0.3130
 3346TIP3    H131529   1.596   4.184  11.133 -0.4745  0.1674 -0.0619
 3346TIP3    H231530   1.666   4.106  11.242 -0.4284  0.8659  0.4167
 3347TIP3   OH231531   6.451   4.659   1.564 -0.3520  0.3571  0.0416
 3347TIP3    H131532   6.511   4.631   1.633  0.8759  1.2993 -0.6176
 3347TIP3    H231533   6.486   4.742   1.533 -1.2269  0.2607 -1.3034
 3348TIP3   OH231534   4.310   1.604   4.737 -0.1109 -0.4084 -0.2782
 3348TIP3    H131535   4.350   1.689   4.720 -1.5039  0.6445  1.4090
 3348TIP3    H231536   4.275   1.577   4.652 -1.3298  1.6520 -0.4962
 3349TIP3   OH231537   6.351   1.687   1.248  0.3833 -0.0395 -0.1918
 3349TIP3    H131538   6.427   1.683   1.189 -1.0753  1.0881 -2.2505
 3349TIP3    H231539   6.299   1.760   1.216 -1.2725 -0.3566  1.5826
 3350TIP3   OH231540   2.555   2.958   4.450  0.1868  0.1312  0.1633
 3350TIP3    H131541   2.536   3.019   4.521 -0.3188  0.6304 -0.3845
 3350TIP3    H231542   2.469   2.936   4.414  0.4343 -0.1210 -0.2870
 3351TIP3   OH231543   2.803   0.298   2.606  0.2673 -0.3316  0.4460
 3351TIP3    H131544   2.814   0.387   2.639  0.4566 -0.6908  1.3875
 3351TIP3    H231545   2.718   0.299   2.562 -0.3379 -0.0104  1.5760
 3352TIP3   OH231546   6.045   6.505   2.222 -0.1068 -0.2679 -0.4086
 3352TIP3    H131547   6.073   6.416   2.243  0.3447 -0.2000 -0.6921
 3352TIP3    H231548   5.967   6.519   2.275  2.5730  0.9793  3.7103
 3353TIP3   OH231549   3.970   2.087  14.876  0.0096 -0.2635 -0.4904
 3353TIP3    H131550   3.954   2.180  14.892  0.2380 -0.5865  2.1348
 3353TIP3    H231551   4.047   2.085  14.819  0.0686  1.1448 -0.4981
 3354TIP3   OH231552   4.108   0.624   5.421  0.4177  0.3548 -0.4096
 3354TIP3    H131553   4.118   0.692   5.487  0.3460  2.8020 -2.7226
 3354TIP3    H231554   4.189   0.629   5.369  0.2504 -1.0984 -0.8501
 3355TIP3   OH231555   4.075   3.005  15.960  0.4120 -0.0927 -0.7185
 3355TIP3    H131556   4.013   3.061  15.913  1.7607  0.9526 -1.3192
 3355TIP3    H231557   4.128   3.066  16.011  1.7027 -0.8419 -1.1129
 3356TIP3   OH231558   0.172   3.676  16.406  0.2161 -0.6891 -0.0090
 3356TIP3    H131559   0.104   3.732  16.368 -1.4211 -2.1020  0.7325
 3356TIP3    H231560   0.229   3.736  16.453 -1.0218  0.4464  0.0814
 3357TIP3   OH231561   2.829   1.884   3.904 -0.3530  0.6306  0.2811
 3357TIP3    H131562   2.856   1.814   3.846  1.5327  2.1210 -0.7541
 3357TIP3    H231563   2.737   1.899   3.882 -0.2022 -0.1180 -0.9510
 3358TIP3   OH231564   4.651   6.735  13.647 -0.0516  0.1384  0.1246
 3358TIP3    H131565   4.610   6.663  13.695 -0.0200  1.6052  2.5531
 3358TIP3    H231566   4.745   6.725  13.662 -0.1622  2.1042  2.9057
 3359TIP3   OH231567   1.774   5.324   2.511 -0.3210 -0.4499 -0.2863
 3359TIP3    H131568   1.801   5.233   2.520  0.9925  0.0342  0.8342
 3359TIP3    H231569   1.711   5.338   2.581  1.2312  0.1149  1.0529
 3360TIP3   OH231570   2.028   6.363   0.234  0.3945 -0.1951  0.4377
 3360TIP3    H131571   2.034   6.439   0.176  2.2301 -0.2826  0.4447
 3360TIP3    H231572   1.947   6.377   0.284  0.0035  1.0533 -0.5060
 3361TIP3   OH231573   2.206   5.388   3.228  0.0461  0.7778  0.3238
 3361TIP3    H131574   2.171   5.477   3.231 -1.5519  0.2176 -0.4283
 3361TIP3    H231575   2.191   5.354   3.316 -1.1685  0.6349  0.0887
 3362TIP3   OH231576   2.843   4.813   0.228  0.7144 -0.4584  0.1598
 3362TIP3    H131577   2.874   4.878   0.291  2.1109 -0.0271 -0.9232
 3362TIP3    H231578   2.856   4.855   0.142  0.1383 -1.5605 -0.4826
 3363TIP3   OH231579   3.366   0.065  14.626  0.0726  0.3310  0.1099
 3363TIP3    H131580   3.315  -0.010  14.597  1.0855  0.2246 -1.5475
 3363TIP3    H231581   3.430   0.030  14.688  0.6392 -0.2337 -0.7705
 3364TIP3   OH231582   2.068   6.054   6.434  0.1180 -0.1428  0.6259
 3364TIP3    H131583   2.104   6.142   6.443 -0.9311  0.4270 -0.5455
 3364TIP3    H231584   1.973   6.066   6.440 -0.0301 -1.2421  0.7266
 3365TIP3   OH231585   5.851   0.028  13.379 -0.5985 -0.0300 -0.2280
 3365TIP3    H131586   5.782   0.012  13.316 -0.9882  1.3280 -0.1870
 3365TIP3    H231587   5.861   0.124  13.380  0.0786 -0.0860  1.0318
 3366TIP3   OH231588   4.851   6.819   1.619  0.4584 -0.2430  0.1043
 3366TIP3    H131589   4.804   6.738   1.598 -1.5208  1.3474 -2.1394
 3366TIP3    H231590   4.919   6.826   1.552  1.8829 -0.8931  1.4089
 3367TIP3   OH231591   3.539   0.427  16.046  0.0643 -0.0839  0.5274
 3367TIP3    H131592   3.570   0.337  16.050 -0.5758 -0.4376 -1.4470
 3367TIP3    H231593   3.616   0.478  16.020 -0.3963 -0.6542 -2.2017
 3368TIP3   OH231594   4.115   2.643   3.415 -0.8294 -0.3352  0.5776
 3368TIP3    H131595   4.107   2.575   3.348  3.4166 -0.0478 -0.5684
 3368TIP3    H231596   4.111   2.725   3.365  1.8150 -0.1020  0.5886
 3369TIP3   OH231597   3.678   3.041   2.355 -0.2093 -0.1020 -0.1836
 3369TIP3    H131598   3.583   3.046   2.343 -0.0775 -0.2149 -1.3754
 3369TIP3    H231599   3.690   2.973   2.421 -0.9351 -0.6147 -0.5605
 3370TIP3   OH231600   1.924   1.874  13.038 -0.2668 -0.0550  0.5398
 3370TIP3    H131601   1.892   1.963  13.052  0.4762  0.0900  1.4402
 3370TIP3    H231602   2.019   1.880  13.049 -0.2423 -1.0252  1.0668
 3371TIP3   OH231603   3.624   4.453  11.541  0.1444 -0.1671  0.1807
 3371TIP3    H131604   3.651   4.370  11.503  1.5673  0.5792 -0.5373
 3371TIP3    H231605   3.620   4.436  11.635 -2.7712 -1.8615 -0.1268
 3372TIP3   OH231606   3.243   0.395   5.678 -0.4566 -0.0383  0.1422
 3372TIP3    H131607   3.293   0.461   5.629  0.5089 -2.4762 -2.3992
 3372TIP3    H231608   3.152   0.425   5.672  0.1418  2.1289  0.9636
 3373TIP3   OH231609   5.935   5.611  12.596  0.2217 -0.6282  0.5086
 3373TIP3    H131610   5.862   5.548  12.601 -1.1051  0.7312 -0.8921
 3373TIP3    H231611   6.014   5.556  12.596 -0.8331 -2.2136  0.7552
 3374TIP3   OH231612   4.311   4.823  13.748 -0.7183  0.6942  0.2654
 3374TIP3    H131613   4.259   4.850  13.824  1.1014  1.8105  1.1750
 3374TIP3    H231614   4.396   4.865  13.760  0.2909 -0.7166 -1.3869
 3375TIP3   OH231615   6.833   3.320  15.645  0.0329  0.2012  0.0445
 3375TIP3    H131616   6.854   3.275  15.563  1.6861  0.6726  0.1849
 3375TIP3    H231617   6.802   3.250  15.702  0.0988 -0.3430 -0.5703
 3376TIP3   OH231618   2.279   6.561   1.887  0.1321 -0.5045 -0.0291
 3376TIP3    H131619   2.250   6.572   1.796 -0.4171  0.6398  0.2716
 3376TIP3    H231620   2.324   6.476   1.887  1.4243  0.1160 -1.6876
 3377TIP3   OH231621   3.094   6.200  15.442 -0.5877  0.1315  0.1472
 3377TIP3    H131622   3.073   6.162  15.357  2.2153  0.1178 -0.6379
 3377TIP3    H231623   3.164   6.145  15.477  1.1683  2.4777  0.5535
 3378TIP3   OH231624   0.619   4.530   4.059 -0.0748  0.2190  0.2851
 3378TIP3    H131625   0.681   4.460   4.081 -1.8330 -0.7699  2.4471
 3378TIP3    H231626   0.571   4.496   3.984  2.2787  1.2770 -1.8728
 3379TIP3   OH231627   3.893   1.150   5.447  0.0012 -0.2350 -0.4576
 3379TIP3    H131628   3.832   1.176   5.516  0.4517  3.2220 -1.1353
 3379TIP3    H231629   3.946   1.081   5.486 -1.2551 -0.0220  1.8022
 3380TIP3   OH231630   1.939   2.241   2.735  0.4093 -0.8519 -0.3430
 3380TIP3    H131631   1.904   2.229   2.824  0.1148  0.7543 -0.2271
 3380TIP3    H231632   2.030   2.210   2.742  0.2398 -1.2248  0.3837
 3381TIP3   OH231633   3.257   3.093  14.930 -0.4539  0.1887  0.1069
 3381TIP3    H131634   3.243   3.017  14.986  1.3735 -0.4440 -0.2449
 3381TIP3    H231635   3.343   3.079  14.891 -0.7353  1.7014 -1.1524
 3382TIP3   OH231636   6.458   6.571   1.553 -0.7247 -0.1002 -0.1038
 3382TIP3    H131637   6.470   6.622   1.473  0.6086 -0.8170 -0.3752
 3382TIP3    H231638   6.543   6.531   1.570 -0.6263  1.0056  2.3733
 3383TIP3   OH231639   4.789   0.555   5.206 -0.1753 -0.3407 -0.3726
 3383TIP3    H131640   4.759   0.640   5.175  0.3525 -0.4716 -1.2826
 3383TIP3    H231641   4.860   0.575   5.267 -0.4891 -0.1115 -0.0819
 3384TIP3   OH231642   0.833   0.963   4.072  0.6659 -0.7126 -0.1291
 3384TIP3    H131643   0.825   0.917   3.989  1.5656 -0.3060 -0.4452
 3384TIP3    H231644   0.860   1.052   4.049  0.0220 -0.3218  0.5434
 3385TIP3   OH231645   1.275   2.365  12.722 -0.3242 -0.1031 -0.7028
 3385TIP3    H131646   1.184   2.347  12.700 -0.5507 -2.3106  1.5921
 3385TIP3    H231647   1.323   2.350  12.641 -1.8700  0.1878 -1.7177
 3386TIP3   OH231648   0.547   3.139   2.408  0.0614  0.4162  0.4862
 3386TIP3    H131649   0.556   3.211   2.345 -1.0576  0.0731 -0.1088
 3386TIP3    H231650   0.580   3.063   2.361  0.5197  0.4020  0.8309
 3387TIP3   OH231651   1.686   3.386   3.545 -0.6447  0.1566 -0.1988
 3387TIP3    H131652   1.659   3.396   3.453 -1.2558  1.0804  0.0663
 3387TIP3    H231653   1.773   3.346   3.540 -0.0853  1.4269 -1.2275
 3388TIP3   OH231654   3.233   4.569   5.219  0.4367 -0.4360  0.7009
 3388TIP3    H131655   3.143   4.553   5.192  0.4917 -1.6218  1.1844
 3388TIP3    H231656   3.283   4.566   5.137  0.2806 -1.6880  0.6320
 3389TIP3   OH231657   6.057   3.833   6.196 -0.7396 -0.0008 -0.4373
 3389TIP3    H131658   6.077   3.740   6.200 -2.1714 -0.3229 -0.3751
 3389TIP3    H231659   5.983   3.839   6.136 -0.6522  1.1045 -0.4558
 3390TIP3   OH231660   5.503   1.733  12.236  0.0058 -0.0288  0.0027
 3390TIP3    H131661   5.568   1.774  12.178 -1.2008  1.1456 -0.5668
 3390TIP3    H231662   5.491   1.645  12.200 -0.5821  0.6099 -1.4497
 3391TIP3   OH231663   1.152   2.689   5.691  0.3569  0.4146  0.5403
 3391TIP3    H131664   1.088   2.745   5.646 -0.2374  0.0894  0.9705
 3391TIP3    H231665   1.236   2.731   5.673  0.3148 -0.3694 -1.9370
 3392TIP3   OH231666   5.791   2.253   0.170 -0.3152  0.5260  0.4044
 3392TIP3    H131667   5.807   2.308   0.093  0.3065 -0.6710 -0.3628
 3392TIP3    H231668   5.818   2.308   0.244 -1.7960  2.0362 -0.1230
 3393TIP3   OH231669   1.994   5.161   1.116  0.2503  0.2517  0.4722
 3393TIP3    H131670   2.064   5.223   1.096  1.3608 -1.0837  0.0856
 3393TIP3    H231671   2.034   5.099   1.177 -0.5828 -0.5441  0.2275
 3394TIP3   OH231672   4.384   4.333  16.526 -0.0360  0.1771  0.0809
 3394TIP3    H131673   4.387   4.346  16.431  0.2037  1.2283  0.2230
 3394TIP3    H231674   4.472   4.301  16.548  0.1399  0.6201  0.0362
 3395TIP3   OH231675   3.761   6.199   2.491 -0.3683 -0.1177  0.2798
 3395TIP3    H131676   3.737   6.208   2.399  1.2734 -0.3825 -0.2110
 3395TIP3    H231677   3.791   6.108   2.500 -0.1439  0.0138  0.9723
 3396TIP3   OH231678   0.609   4.666   1.424  0.1088 -0.6409  0.2016
 3396TIP3    H131679   0.645   4.691   1.339  0.9552  1.8062  1.2088
 3396TIP3    H231680   0.674   4.606   1.461  0.3015 -0.8041 -0.3925
 3397TIP3   OH231681   0.855   0.625  16.579  0.5814  0.4947 -0.2206
 3397TIP3    H131682   0.779   0.660  16.532  1.0361  0.5659 -0.9287
 3397TIP3    H231683   0.819   0.555  16.634 -0.4169  2.3739  1.6098
 3398TIP3   OH231684   3.961   2.202  12.709 -0.3705 -0.3257  0.3309
 3398TIP3    H131685   4.029   2.255  12.751 -1.2687  0.3609  0.9668
 3398TIP3    H231686   3.969   2.223  12.616  0.8911 -0.9813  0.2689
 3399TIP3   OH231687   1.540   3.721   5.235  0.1892  0.7741 -1.0814
 3399TIP3    H131688   1.606   3.725   5.167  1.9878 -2.4299  0.2438
 3399TIP3    H231689   1.481   3.650   5.208 -1.2042  1.8259 -0.9548
 3400TIP3   OH231690   2.479   2.711   0.125 -0.8013 -0.5745  0.2863
 3400TIP3    H131691   2.388   2.681   0.127 -0.8028 -0.5654  0.4300
 3400TIP3    H231692   2.526   2.647   0.178 -1.1740  0.8430  2.4777
 3401TIP3   OH231693   2.750   0.563  13.121  0.2415 -0.1391  0.3760
 3401TIP3    H131694   2.753   0.468  13.107 -0.0255 -0.4014  1.9414
 3401TIP3    H231695   2.662   0.588  13.095  0.0185 -0.4779  0.7858
 3402TIP3   OH231696   6.424   2.927  14.729 -0.2534 -0.2560 -0.4638
 3402TIP3    H131697   6.362   2.855  14.730  0.2925 -0.7298 -0.1882
 3402TIP3    H231698   6.510   2.885  14.735  0.1971  0.2701 -2.4770
 3403TIP3   OH231699   1.134   2.849   2.467 -0.1051  0.4577 -0.6107
 3403TIP3    H131700   1.084   2.916   2.420 -1.9309 -0.3195  0.1580
 3403TIP3    H231701   1.123   2.871   2.559  2.1193  1.0317 -0.4200
 3404TIP3   OH231702   2.728   4.016   0.135 -0.0039  0.0578 -0.3835
 3404TIP3    H131703   2.682   3.984   0.058  0.6585 -0.5232 -0.5512
 3404TIP3    H231704   2.771   3.938   0.171  0.2254  0.4444  0.1987
 3405TIP3   OH231705   2.980   1.493   3.214  0.2726 -0.0268 -0.3789
 3405TIP3    H131706   3.006   1.437   3.142 -0.9122  0.5860 -1.3206
 3405TIP3    H231707   3.047   1.561   3.218 -0.2561  0.6056 -1.6978
 3406TIP3   OH231708   4.381   3.389   4.790  0.1248 -0.0884 -0.1291
 3406TIP3    H131709   4.349   3.300   4.806  0.1981 -0.3853 -1.5251
 3406TIP3    H231710   4.396   3.425   4.878 -1.3950 -0.8955  0.5106
 3407TIP3   OH231711   4.749   1.842  13.930  0.2767 -0.0518 -0.0969
 3407TIP3    H131712   4.727   1.926  13.890 -0.6364  0.2227  0.9345
 3407TIP3    H231713   4.813   1.803  13.871  2.0847  2.1433  0.2682
 3408TIP3   OH231714   2.907   6.621   5.638  0.0105 -0.3616  0.2460
 3408TIP3    H131715   2.927   6.707   5.676 -0.8153 -0.0120 -0.0778
 3408TIP3    H231716   2.840   6.585   5.696  0.0453 -0.5999  0.1380
 3409TIP3   OH231717   5.670   6.057  14.941 -0.1892  0.0339 -0.3742
 3409TIP3    H131718   5.579   6.033  14.924 -0.2073  1.3542 -2.5681
 3409TIP3    H231719   5.693   6.116  14.869  2.1741  0.3473  0.5431
 3410TIP3   OH231720   6.453   0.872  13.584  0.0599 -0.8255  0.8807
 3410TIP3    H131721   6.405   0.813  13.526  2.1050 -2.2759  0.5675
 3410TIP3    H231722   6.387   0.905  13.644 -1.6930 -1.1220 -0.7787
 3411TIP3   OH231723   2.556   4.440  14.709  0.0036  0.2919 -0.6791
 3411TIP3    H131724   2.507   4.522  14.714 -2.0318 -0.8961  1.0021
 3411TIP3    H231725   2.595   4.430  14.796 -1.2462 -1.2880 -0.2469
 3412TIP3   OH231726   2.963   2.132   0.733 -0.0802  0.0775 -0.0175
 3412TIP3    H131727   2.910   2.212   0.725 -0.4692 -0.2859 -1.5575
 3412TIP3    H231728   2.907   2.063   0.699  0.2685 -0.8612  1.2750
 3413TIP3   OH231729   2.867   5.154  12.643 -0.4201  0.0748 -0.1463
 3413TIP3    H131730   2.933   5.122  12.704  1.3880  0.4749 -1.7600
 3413TIP3    H231731   2.884   5.248  12.637 -0.5824  0.0572 -1.1793
 3414TIP3   OH231732   0.265   3.804   0.569  0.0479 -0.0740 -0.1581
 3414TIP3    H131733   0.293   3.782   0.658 -1.6874 -0.9031  0.2123
 3414TIP3    H231734   0.196   3.869   0.581  1.4748  1.6954 -1.0465
 3415TIP3   OH231735   5.224   3.908  13.138  0.4292 -0.2975 -0.0226
 3415TIP3    H131736   5.316   3.895  13.160  0.3245 -0.7062  0.1827
 3415TIP3    H231737   5.225   3.975  13.070  0.7638  1.0885  1.2809
 3416TIP3   OH231738   1.695   0.340  16.873 -0.5919  0.3978  0.0657
 3416TIP3    H131739   1.647   0.385  16.804 -0.8776  2.0827  1.2811
 3416TIP3    H231740   1.661   0.378  16.954  0.6920 -0.5142  1.0771
 3417TIP3   OH231741   6.142   1.083   0.621  0.6082  0.0983 -0.6849
 3417TIP3    H131742   6.091   1.009   0.654 -0.9889  1.5226  0.2081
 3417TIP3    H231743   6.102   1.104   0.537  0.4773  0.4952 -0.5241
 3418TIP3   OH231744   2.423   0.447   3.649 -0.0329 -0.2824 -0.2005
 3418TIP3    H131745   2.343   0.452   3.701 -0.5814  0.5154 -1.0837
 3418TIP3    H231746   2.493   0.439   3.713 -0.9123 -3.1389  0.5830
 3419TIP3   OH231747   4.692   0.942  14.307  0.2371  0.2237  0.2743
 3419TIP3    H131748   4.632   0.940  14.382 -0.4580  1.6889 -0.2129
 3419TIP3    H231749   4.765   0.995  14.337 -0.2517  1.1968 -0.2121
 3420TIP3   OH231750   2.877   6.696  12.156 -0.1657  0.6957 -0.7647
 3420TIP3    H131751   2.826   6.772  12.125 -2.9312 -1.6002 -2.3606
 3420TIP3    H231752   2.846   6.680  12.245 -0.5846  0.6558 -0.9157
 3421TIP3   OH231753   3.088   1.212   6.559  0.1132 -0.0127 -0.3119
 3421TIP3    H131754   3.147   1.270   6.607 -0.4936  1.6681 -1.5191
 3421TIP3    H231755   3.016   1.268   6.530  0.9102 -0.6575 -4.0085
 3422TIP3   OH231756   6.798   4.728   1.024  0.4598 -0.4708 -0.2427
 3422TIP3    H131757   6.795   4.761   1.114  0.8132 -0.0041 -0.4025
 3422TIP3    H231758   6.710   4.695   1.008  0.7772 -1.9724  0.8070
 3423TIP3   OH231759   1.354   6.545  10.502  0.4572 -0.3597 -0.2177
 3423TIP3    H131760   1.351   6.629  10.458  1.9160 -0.9418 -1.5215
 3423TIP3    H231761   1.400   6.562  10.584  0.1151  0.2230 -0.1409
 3424TIP3   OH231762   2.846   2.193   0.256 -0.0066 -0.1176  0.0243
 3424TIP3    H131763   2.923   2.221   0.207  0.9475 -0.7091  1.1326
 3424TIP3    H231764   2.773   2.239   0.214  0.6490 -1.0509 -2.3274
 3425TIP3   OH231765   1.831   6.635   4.139 -0.8794 -0.2602 -0.5073
 3425TIP3    H131766   1.922   6.665   4.138 -1.0122  0.1944  0.4086
 3425TIP3    H231767   1.835   6.548   4.178 -0.9768  0.2886  0.7639
 3426TIP3   OH231768   5.273   6.203  14.428 -0.2223  0.2399  0.3734
 3426TIP3    H131769   5.272   6.294  14.459  0.8234 -0.2851  2.0856
 3426TIP3    H231770   5.186   6.170  14.450 -0.7323  0.9061 -0.5795
 3427TIP3   OH231771   2.448   1.083   3.923 -0.3665 -0.1009  0.0867
 3427TIP3    H131772   2.376   1.096   3.861 -0.0651  0.1679 -0.2108
 3427TIP3    H231773   2.426   1.138   3.998  0.0722  0.8539 -0.4667
 3428TIP3   OH231774   3.050   1.932  14.953  0.2371 -0.3322 -0.3860
 3428TIP3    H131775   3.066   2.019  14.990 -1.2710 -0.7615  1.4443
 3428TIP3    H231776   3.099   1.873  15.010 -0.9004 -0.8820  0.0630
 3429TIP3   OH231777   2.768   5.156  14.599 -0.2674 -0.7016 -0.3499
 3429TIP3    H131778   2.796   5.247  14.602 -2.7441  0.1847 -1.7924
 3429TIP3    H231779   2.807   5.117  14.678 -0.1907  1.8883  1.0109
 3430TIP3   OH231780   1.451   1.578  15.061  0.7426 -0.0708  0.2924
 3430TIP3    H131781   1.537   1.536  15.056 -0.1137 -1.9219  0.0688
 3430TIP3    H231782   1.420   1.581  14.970  0.0038 -0.7292  0.5075
 3431TIP3   OH231783   4.943   0.001   4.947 -0.1403  0.4916 -0.2565
 3431TIP3    H131784   4.956  -0.083   4.992 -0.6368  0.4010 -0.2664
 3431TIP3    H231785   4.927   0.064   5.017 -2.4171  0.0745 -0.3052
 3432TIP3   OH231786   5.274   4.912  13.566 -0.7244 -0.0644  0.2460
 3432TIP3    H131787   5.337   4.946  13.629  0.4621 -2.2335  0.3479
 3432TIP3    H231788   5.191   4.954  13.589  0.2815  1.4349  1.3158
 3433TIP3   OH231789   6.622   6.232  16.008  0.2375  0.5762  0.4609
 3433TIP3    H131790   6.688   6.283  16.056  0.9659 -0.7403  0.9134
 3433TIP3    H231791   6.539   6.261  16.045  0.7482 -0.0746  2.2674
 3434TIP3   OH231792   6.309   4.685  15.997 -0.1816 -0.3626  0.0454
 3434TIP3    H131793   6.235   4.708  15.941  0.0239 -0.5584 -0.3099
 3434TIP3    H231794   6.274   4.619  16.058 -0.1651 -0.8399 -0.4590
 3435TIP3   OH231795   4.365   5.765   4.986 -0.1853  0.0444 -0.2399
 3435TIP3    H131796   4.344   5.723   5.070  0.9842  0.7536  0.4497
 3435TIP3    H231797   4.358   5.859   5.005 -0.8083  0.1983 -1.2037
 3436TIP3   OH231798   0.126   0.400  12.053 -0.6954  0.2435  0.4084
 3436TIP3    H131799   0.077   0.384  12.134 -0.0480  0.1762  0.7933
 3436TIP3    H231800   0.125   0.316  12.007  0.5196 -0.2565  1.2348
 3437TIP3   OH231801   4.209   4.946  14.822  0.2238 -0.0828  0.2553
 3437TIP3    H131802   4.157   4.999  14.883 -0.5585 -0.1782 -0.3104
 3437TIP3    H231803   4.289   4.996  14.810 -0.6466  1.1999 -0.5525
 3438TIP3   OH231804   0.615   1.490   4.556  0.1322  0.3438  0.3644
 3438TIP3    H131805   0.526   1.484   4.591  0.3396  2.2031  1.3336
 3438TIP3    H231806   0.607   1.464   4.465 -1.4613  0.6890  0.3791
 3439TIP3   OH231807   3.068   4.558  13.370  0.1838 -0.5801 -0.0330
 3439TIP3    H131808   3.137   4.492  13.361 -0.3211 -1.2031  0.5339
 3439TIP3    H231809   2.998   4.529  13.311 -0.4058 -1.0580  0.8747
 3440TIP3   OH231810   1.928   4.431   3.894 -0.4900 -0.4130 -0.4444
 3440TIP3    H131811   1.942   4.436   3.989  3.1634  1.5727 -0.9255
 3440TIP3    H231812   1.975   4.352   3.867  0.2781  0.1672 -0.8221
 3441TIP3   OH231813   6.312   3.071   4.484  0.0522  0.0886  0.3929
 3441TIP3    H131814   6.359   3.113   4.556 -1.4181  3.3208 -0.3706
 3441TIP3    H231815   6.373   3.075   4.410  0.7955 -1.3974  0.8784
 3442TIP3   OH231816   2.488   6.738   5.938  0.0136  0.0497 -0.1042
 3442TIP3    H131817   2.412   6.681   5.947 -0.6589  0.7888 -0.8626
 3442TIP3    H231818   2.465   6.798   5.867  1.1458  0.5505 -0.0820
 3443TIP3   OH231819   4.945   1.721   1.955 -0.2431 -0.7068 -0.5791
 3443TIP3    H131820   4.942   1.777   2.032 -0.5948  1.8628 -2.3276
 3443TIP3    H231821   5.032   1.681   1.956  0.3459  0.5522  0.3216
 3444TIP3   OH231822   1.972   2.718   0.698  0.0873  0.2434 -0.6002
 3444TIP3    H131823   2.059   2.680   0.708  0.7631  2.0622  1.1435
 3444TIP3    H231824   1.950   2.751   0.785 -1.8339  0.9279 -1.2775
 3445TIP3   OH231825   2.602   4.137   2.921  0.2380  0.7141 -0.0044
 3445TIP3    H131826   2.533   4.083   2.958 -0.9726  1.1410 -1.5489
 3445TIP3    H231827   2.585   4.137   2.827  3.0224 -0.1018 -0.6043
 3446TIP3   OH231828   0.032   4.980   2.364 -0.3075  0.2571  0.0427
 3446TIP3    H131829   0.014   5.073   2.376  0.1416  0.3137  0.2875
 3446TIP3    H231830  -0.017   4.936   2.433 -1.4864  0.2057 -0.7897
 3447TIP3   OH231831   5.439   3.851   1.671  0.1404 -0.2910 -0.2169
 3447TIP3    H131832   5.464   3.927   1.618 -2.1166  0.1773 -0.7192
 3447TIP3    H231833   5.386   3.888   1.742  0.1694 -1.2580  0.3191
 3448TIP3   OH231834   3.207   6.190   1.312  0.6306 -0.4144  0.0593
 3448TIP3    H131835   3.294   6.170   1.346  0.5320 -1.4387 -0.2466
 3448TIP3    H231836   3.190   6.121   1.248 -0.4148 -0.2309  0.1172
 3449TIP3   OH231837   6.376   3.887  13.954 -0.3538  0.1233  0.1829
 3449TIP3    H131838   6.364   3.882  14.049 -0.9333  0.4002  0.1304
 3449TIP3    H231839   6.374   3.796  13.925  2.9370 -0.2560  0.7698
 3450TIP3   OH231840   5.327   1.341  15.802 -0.0636 -0.3331 -0.2767
 3450TIP3    H131841   5.308   1.403  15.873  0.3276 -0.2628 -0.2311
 3450TIP3    H231842   5.329   1.395  15.723 -0.8567 -0.4681 -0.3899
 3451TIP3   OH231843   3.086   5.633   0.277 -0.3419  0.2134 -0.3352
 3451TIP3    H131844   3.034   5.650   0.356 -0.9334  0.1610 -0.7126
 3451TIP3    H231845   3.130   5.717   0.260  2.8350 -0.7190  2.2090
 3452TIP3   OH231846   4.525   5.652   4.222 -0.3459  0.6736 -0.3354
 3452TIP3    H131847   4.528   5.691   4.309  0.2815 -0.8913  0.3805
 3452TIP3    H231848   4.446   5.599   4.222 -0.6230  1.0755 -0.9153
 3453TIP3   OH231849   2.370   5.915   3.268 -0.4138  0.0728 -0.6257
 3453TIP3    H131850   2.283   5.951   3.285 -0.2888 -0.3894  1.2091
 3453TIP3    H231851   2.397   5.878   3.352  2.4701  2.1270 -0.5021
 3454TIP3   OH231852   4.081   4.150   3.414 -0.3757 -0.2116  0.0350
 3454TIP3    H131853   3.990   4.140   3.387 -0.7498  0.2809  1.0300
 3454TIP3    H231854   4.129   4.084   3.365 -1.1747 -0.0806 -0.9491
 3455TIP3   OH231855   0.103   0.709   0.589 -0.5335  0.1812  0.9018
 3455TIP3    H131856   0.080   0.757   0.510  1.2559 -0.4085 -0.0441
 3455TIP3    H231857   0.042   0.636   0.592 -0.7479  0.3254  0.1928
 3456TIP3   OH231858   4.874   3.003   4.426  0.8132  0.5252  0.3733
 3456TIP3    H131859   4.779   2.990   4.420  0.8988  0.2036 -0.3389
 3456TIP3    H231860   4.884   3.094   4.454  0.3039  0.7191 -0.0716
 3457TIP3   OH231861   2.671   3.158   5.330  0.3625  0.0938  0.0896
 3457TIP3    H131862   2.605   3.089   5.328  0.8894 -0.4794  1.5960
 3457TIP3    H231863   2.650   3.213   5.254 -1.3352 -0.5293  0.0657
 3458TIP3   OH231864   6.455   6.282  16.604 -0.1224  0.0670  0.3680
 3458TIP3    H131865   6.507   6.358  16.629  0.6815 -0.4980  0.4785
 3458TIP3    H231866   6.373   6.291  16.653 -0.8674  1.8584 -1.0920
 3459TIP3   OH231867   5.349   1.162  13.170 -0.1480  0.4926  0.1483
 3459TIP3    H131868   5.439   1.193  13.158  0.0411 -0.3273 -0.7266
 3459TIP3    H231869   5.351   1.115  13.253  0.4475 -0.1920 -0.2382
 3460TIP3   OH231870   6.773   5.430  13.206 -0.0487  0.1864 -0.6507
 3460TIP3    H131871   6.824   5.510  13.221 -1.4648  0.9529  0.2664
 3460TIP3    H231872   6.839   5.361  13.201  1.2228  1.4233 -1.6916
 3461TIP3   OH231873   1.656   4.375  13.719 -0.0906  0.0693 -0.0401
 3461TIP3    H131874   1.591   4.367  13.649  0.1824  0.5884 -0.3670
 3461TIP3    H231875   1.692   4.463  13.707  0.5630 -0.1581  0.2273
 3462TIP3   OH231876   4.825   3.503   3.018  0.4836  0.5940  0.3533
 3462TIP3    H131877   4.809   3.539   2.931 -0.8804  0.1833  0.4073
 3462TIP3    H231878   4.914   3.530   3.040 -0.0636  2.9547 -0.0849
 3463TIP3   OH231879   0.011   4.170   4.317 -0.3365  0.0387  0.9921
 3463TIP3    H131880  -0.069   4.119   4.307 -0.5908  0.2020  2.1121
 3463TIP3    H231881   0.059   4.126   4.387  0.8637 -0.4287 -0.0888
 3464TIP3   OH231882   3.890   0.171   0.620  0.2735 -0.3368  0.0165
 3464TIP3    H131883   3.977   0.136   0.638 -0.1248 -0.9949  0.6981
 3464TIP3    H231884   3.852   0.188   0.706 -0.0213  0.5957 -0.2828
 3465TIP3   OH231885   1.467   3.124   3.102 -0.3986 -0.1162  0.3760
 3465TIP3    H131886   1.399   3.081   3.051 -0.0659 -0.8922  0.5774
 3465TIP3    H231887   1.422   3.197   3.145 -0.8346  0.1057 -0.4355
 3466TIP3   OH231888   1.264   2.410  16.234  0.4146 -0.5334  0.1358
 3466TIP3    H131889   1.287   2.338  16.175  1.7856  0.4133 -0.5730
 3466TIP3    H231890   1.315   2.394  16.313  0.1153 -0.7533  0.2843
 3467TIP3   OH231891   5.945   0.451  15.753 -0.4179  0.3761  0.1990
 3467TIP3    H131892   5.854   0.466  15.780 -0.5916  1.3589 -0.8635
 3467TIP3    H231893   5.997   0.500  15.818 -0.6669  0.1561  0.5676
 3468TIP3   OH231894   3.452   0.468   1.992 -0.2628 -0.7817 -0.6585
 3468TIP3    H131895   3.409   0.548   2.023  1.0803 -0.4607  0.4491
 3468TIP3    H231896   3.519   0.450   2.057  1.2769 -1.2830 -2.3101
 3469TIP3   OH231897   3.158   5.699   2.462 -0.5038 -0.0743  0.7111
 3469TIP3    H131898   3.072   5.702   2.420  0.2367 -3.3225 -1.4417
 3469TIP3    H231899   3.139   5.683   2.554 -2.1500  2.3408  0.8941
 3470TIP3   OH231900   4.709   3.718  11.233  0.0533  0.1330 -0.5977
 3470TIP3    H131901   4.780   3.743  11.174  0.3391 -0.8004 -0.6701
 3470TIP3    H231902   4.752   3.708  11.318 -0.2384  0.8274 -0.3612
 3471TIP3   OH231903   1.279   2.069   3.389  0.0845 -0.3076 -0.3634
 3471TIP3    H131904   1.370   2.038   3.381  0.1709 -0.4022  0.8499
 3471TIP3    H231905   1.226   1.993   3.366  0.3120 -0.5208 -0.1902
 3472TIP3   OH231906   6.842   6.093   2.400 -0.0625 -0.3281 -0.3420
 3472TIP3    H131907   6.799   6.163   2.448 -0.9496 -1.6715  0.9359
 3472TIP3    H231908   6.922   6.075   2.449  1.2376  1.1243 -1.8372
 3473TIP3   OH231909   2.819   5.179   2.249  0.0625 -0.1225  0.3593
 3473TIP3    H131910   2.805   5.270   2.223 -1.3066 -0.3965  0.0849
 3473TIP3    H231911   2.827   5.132   2.166  0.0414 -0.3625  0.4928
 3474TIP3   OH231912   4.511   0.161   3.037 -0.5460 -0.6073  0.2053
 3474TIP3    H131913   4.433   0.153   2.981 -0.1145 -2.2194 -0.2244
 3474TIP3    H231914   4.584   0.168   2.975 -0.0130 -2.8983  0.4961
 3475TIP3   OH231915   5.806   1.711   1.287  0.3240 -0.1549  0.0020
 3475TIP3    H131916   5.825   1.643   1.223 -2.0331 -0.4776 -0.4519
 3475TIP3    H231917   5.804   1.666   1.371 -1.1058 -0.6962 -0.2814
 3476TIP3   OH231918   3.285   4.830   2.847  0.2820  0.0308 -0.7041
 3476TIP3    H131919   3.267   4.877   2.928  0.6933  1.9037 -1.6399
 3476TIP3    H231920   3.237   4.878   2.780 -0.1056 -1.5187 -1.5908
 3477TIP3   OH231921   2.739   1.864  13.906  0.0646 -0.2735 -0.9852
 3477TIP3    H131922   2.758   1.946  13.951  2.7467 -0.8219 -0.9928
 3477TIP3    H231923   2.646   1.849  13.923  0.1851  1.2718  1.4717
 3478TIP3   OH231924   5.231   1.124   2.970  0.2964  0.2580 -0.7883
 3478TIP3    H131925   5.204   1.172   3.048  2.5288 -0.0673  0.2775
 3478TIP3    H231926   5.245   1.191   2.903 -2.9176  0.4312 -1.4252
 3479TIP3   OH231927   4.868   1.525  11.388  0.1303  0.5445 -0.2728
 3479TIP3    H131928   4.825   1.520  11.303  1.7391  0.2722 -1.0978
 3479TIP3    H231929   4.945   1.579  11.373  1.9913 -1.7729  0.2931
 3480TIP3   OH231930   0.301   2.627   2.812 -0.1527  0.1673  0.6640
 3480TIP3    H131931   0.300   2.604   2.719 -0.0453 -1.4248  1.0286
 3480TIP3    H231932   0.210   2.647   2.832 -0.3333 -0.3619  0.4069
 3481TIP3   OH231933   3.515   4.941   0.191 -0.4265  0.6895 -0.0839
 3481TIP3    H131934   3.455   4.973   0.258 -1.1461  1.0008 -0.8621
 3481TIP3    H231935   3.524   4.847   0.208 -0.6170  0.7622  0.4266
 3482TIP3   OH231936   2.270   2.241  12.385 -0.0474 -0.1720  0.1024
 3482TIP3    H131937   2.191   2.186  12.389  0.0260 -0.4298 -1.3919
 3482TIP3    H231938   2.322   2.213  12.460 -1.3279 -0.0689  1.0531
 3483TIP3   OH231939   4.455   1.134  16.314 -0.0243 -0.1350  0.0650
 3483TIP3    H131940   4.384   1.101  16.259 -0.2994  0.5607 -0.0060
 3483TIP3    H231941   4.414   1.201  16.368  1.2311  2.9264 -2.4777
 3484TIP3   OH231942   1.473   4.796   2.215 -0.2321 -0.6428 -0.4950
 3484TIP3    H131943   1.399   4.737   2.230 -1.3588  1.1469  1.6708
 3484TIP3    H231944   1.438   4.866   2.161  0.1967 -0.3238 -0.3653
 3485TIP3   OH231945   5.844   5.147   4.393  0.3660  0.2794 -0.2670
 3485TIP3    H131946   5.816   5.120   4.305 -0.8703 -0.5785  0.3525
 3485TIP3    H231947   5.931   5.109   4.402 -0.2312 -1.2493 -0.4689
 3486TIP3   OH231948   2.534   3.996   6.835  0.1748  0.1551  0.1216
 3486TIP3    H131949   2.551   4.089   6.816 -0.1564  0.5409  1.6197
 3486TIP3    H231950   2.610   3.950   6.799  0.5235  1.0399 -0.3130
 3487TIP3   OH231951   1.866   3.812   4.778  0.1319 -1.1169  0.5508
 3487TIP3    H131952   1.939   3.754   4.797  1.2740  0.0252 -0.1574
 3487TIP3    H231953   1.905   3.899   4.772 -1.4122 -0.3543  0.8838
 3488TIP3   OH231954   4.144   3.881   6.488  0.1413  0.2860 -0.3003
 3488TIP3    H131955   4.053   3.894   6.462  0.2260  0.0432 -0.7170
 3488TIP3    H231956   4.183   3.968   6.483  0.2383  0.1933 -1.3025
 3489TIP3   OH231957   5.684   3.541   2.722 -0.3050  0.2298  0.2462
 3489TIP3    H131958   5.709   3.501   2.805 -0.1145 -0.2608 -0.0427
 3489TIP3    H231959   5.602   3.585   2.741 -1.6970 -2.0933  0.0965
 3490TIP3   OH231960   5.078   4.944   0.607 -0.3470 -0.0683  0.3402
 3490TIP3    H131961   5.032   4.951   0.523  0.1363  2.7752  0.1895
 3490TIP3    H231962   5.168   4.973   0.587  0.3248 -1.2651  1.4782
 3491TIP3   OH231963   2.259   4.683  15.870 -0.0336 -0.2201 -0.2647
 3491TIP3    H131964   2.172   4.644  15.883 -0.2435  0.4493  0.4080
 3491TIP3    H231965   2.319   4.617  15.906 -0.2124 -0.9250 -1.2262
 3492TIP3   OH231966   1.217   2.036   1.537  0.4360 -0.6283 -0.6322
 3492TIP3    H131967   1.138   1.988   1.561 -0.9583  1.9413  0.2693
 3492TIP3    H231968   1.278   2.019   1.609 -0.7974  0.5416  0.7424
 3493TIP3   OH231969   5.537   5.312  14.724  0.1240 -0.9030 -0.6738
 3493TIP3    H131970   5.611   5.366  14.697 -0.1444 -0.1034  0.1327
 3493TIP3    H231971   5.541   5.311  14.820 -1.9582  0.7513 -0.4861
 3494TIP3   OH231972   5.341   2.962   1.721 -0.0216 -0.4231 -0.1054
 3494TIP3    H131973   5.353   3.053   1.746  2.6235 -0.5776 -0.4706
 3494TIP3    H231974   5.344   2.914   1.804 -0.5944 -0.2659  0.0133
 3495TIP3   OH231975   3.429   0.047   2.247 -0.1287  0.0313 -0.0156
 3495TIP3    H131976   3.402   0.015   2.333  0.4544  0.3673  0.2956
 3495TIP3    H231977   3.456   0.137   2.262  3.7299 -0.9777  0.2685
 3496TIP3   OH231978   0.278   5.054   0.122  0.3592  0.1041 -0.0090
 3496TIP3    H131979   0.310   5.107   0.049  0.2380  0.7372  0.3947
 3496TIP3    H231980   0.343   5.066   0.191 -0.6058  1.2227  0.7337
 3497TIP3   OH231981   2.799   2.344   2.072 -0.5217 -0.6611  0.5996
 3497TIP3    H131982   2.732   2.290   2.113  0.2532 -1.3778  0.9639
 3497TIP3    H231983   2.882   2.300   2.094  0.1991  1.0827  1.5647
 3498TIP3   OH231984   1.544   4.078  16.294  0.5462 -0.1265 -0.3758
 3498TIP3    H131985   1.599   4.102  16.369 -0.2267  0.5960 -0.0277
 3498TIP3    H231986   1.495   4.157  16.274 -2.9767 -1.5873  1.5581
 3499TIP3   OH231987   6.681   0.675   1.657 -0.1304 -0.1091  0.0010
 3499TIP3    H131988   6.771   0.707   1.666 -0.3345  1.0098 -1.5281
 3499TIP3    H231989   6.681   0.592   1.704  2.0086 -0.6696 -0.8426
 3500TIP3   OH231990   4.754   2.899   3.990 -0.0826 -0.5185 -0.0318
 3500TIP3    H131991   4.660   2.920   3.988 -0.2497 -1.2401 -0.0661
 3500TIP3    H231992   4.759   2.815   4.035  1.0074  1.6730  4.5186
 3501TIP3   OH231993   1.475   4.476   5.975 -0.3736  0.4393 -0.5810
 3501TIP3    H131994   1.550   4.417   5.976  0.0259  0.9185 -1.1985
 3501TIP3    H231995   1.504   4.552   6.025 -1.0618 -0.0810  0.6397
 3502TIP3   OH231996   1.466   0.070  11.530 -0.0246 -0.3669  0.0540
 3502TIP3    H131997   1.516  -0.010  11.511 -0.9137 -0.7146 -0.9132
 3502TIP3    H231998   1.528   0.126  11.576  0.5644 -1.6893  0.9408
 3503TIP3   OH231999   5.131   0.840  15.110 -0.0901  0.1243 -0.9107
 3503TIP3    H132000   5.187   0.850  15.033  0.8559 -3.0281 -0.7473
 3503TIP3    H232001   5.165   0.763  15.156 -1.6593  0.8896  1.7973
 3504TIP3   OH232002   6.041   3.380   5.133  0.0126 -0.3160 -0.1402
 3504TIP3    H132003   5.960   3.354   5.091 -0.1814 -1.4003  0.8593
 3504TIP3    H232004   6.104   3.313   5.108 -0.2939 -1.4187  1.8222
 3505TIP3   OH232005   3.669   0.366  12.320  0.8876  0.3919  0.2347
 3505TIP3    H132006   3.694   0.375  12.412  2.0397 -0.6759  0.0588
 3505TIP3    H232007   3.578   0.337  12.322  1.2825 -0.8826  1.0947
 3506TIP3   OH232008   1.633   3.781  16.563  0.1535 -0.4570 -0.5095
 3506TIP3    H132009   1.701   3.770  16.629 -0.0414 -1.7101 -0.4863
 3506TIP3    H232010   1.551   3.776  16.611  0.0234 -0.3600 -0.7198
 3507TIP3   OH232011   5.387   2.041  10.969  0.0166  0.0289  0.2405
 3507TIP3    H132012   5.424   2.053  10.882  1.3259 -0.6470  0.6766
 3507TIP3    H232013   5.390   2.128  11.009  2.0722 -0.1340  0.5830
 3508TIP3   OH232014   4.072   0.738  17.133 -0.4785 -0.6229 -0.1821
 3508TIP3    H132015   3.989   0.728  17.087 -0.4718 -0.6822 -0.1821
 3508TIP3    H232016   4.109   0.650  17.135 -0.4197 -0.5980 -0.1749
 3509TIP3   OH232017   2.687   0.364  16.895 -0.6408 -0.2936 -0.4436
 3509TIP3    H132018   2.678   0.389  16.987 -1.5611  0.0105 -0.6137
 3509TIP3    H232019   2.779   0.384  16.874  0.1375 -2.1314  0.9161
 3510TIP3   OH232020   2.860   3.748   0.957 -0.5606 -0.0421 -0.1079
 3510TIP3    H132021   2.955   3.736   0.959 -0.6738 -1.7153 -1.5091
 3510TIP3    H232022   2.845   3.809   0.884 -0.5086  1.3042  0.9849
 3511TIP3   OH232023   5.009   4.321  11.211  0.1296  0.3450  0.0927
 3511TIP3    H132024   4.997   4.355  11.123  0.5022 -1.4239 -0.6818
 3511TIP3    H232025   4.920   4.320  11.248  0.0836  1.9373  0.1114
 3512TIP3   OH232026   2.181   5.022  14.908 -0.1680  0.6616 -0.1958
 3512TIP3    H132027   2.117   5.083  14.943 -0.6936 -0.1163  0.2356
 3512TIP3    H232028   2.240   5.004  14.981 -0.3696  0.1995 -0.1434
 3513TIP3   OH232029   3.529   4.050  12.928 -0.3189 -0.4411  0.2155
 3513TIP3    H132030   3.563   4.100  12.853 -0.4021  0.1717  0.5800
 3513TIP3    H232031   3.602   4.047  12.990 -0.3889 -0.5780  0.2911
 3514TIP3   OH232032   0.619   6.366  14.701  0.3594  0.0986  0.0181
 3514TIP3    H132033   0.625   6.430  14.630  1.8252  0.6307  0.5937
 3514TIP3    H232034   0.670   6.404  14.772  0.2382 -1.1620  0.8109
 3515TIP3   OH232035   0.817   4.186   3.382  0.1659  0.9676  0.3375
 3515TIP3    H132036   0.880   4.177   3.453  1.4473 -0.2817 -0.8883
 3515TIP3    H232037   0.870   4.199   3.304 -0.8873 -2.0776 -1.0621
 3516TIP3   OH232038   2.243   0.599  14.232  0.7558 -0.0094  0.6283
 3516TIP3    H132039   2.310   0.638  14.287  0.2947  1.1578  0.3833
 3516TIP3    H232040   2.237   0.656  14.156  0.0505 -0.5449  0.2593
 3517TIP3   OH232041   6.674   0.005  17.032  0.1086 -0.3171  0.3431
 3517TIP3    H132042   6.650   0.054  17.111  0.7929  0.8468 -0.1423
 3517TIP3    H232043   6.745   0.056  16.994 -2.0022  0.7492 -2.5469
 3518TIP3   OH232044   3.375   5.606   1.607  0.0727  0.2809 -0.4780
 3518TIP3    H132045   3.407   5.686   1.564 -1.0160  1.3962  0.7110
 3518TIP3    H232046   3.319   5.564   1.542 -1.9802  2.2142 -0.0590
 3519TIP3   OH232047   1.107   5.471  13.284 -0.3083 -0.5901  0.2383
 3519TIP3    H132048   1.039   5.467  13.216 -0.4982  2.5312  0.0846
 3519TIP3    H232049   1.188   5.447  13.239 -0.4676  1.2094 -1.1285
 3520TIP3   OH232050   2.301   0.966  12.571  0.3117  0.2623 -0.1423
 3520TIP3    H132051   2.333   1.000  12.487  0.3570  0.4562 -0.0485
 3520TIP3    H232052   2.245   0.892  12.548 -0.0885  0.6304 -0.3746
 3521TIP3   OH232053   6.193   2.387   1.032  0.2899  0.2267 -0.1354
 3521TIP3    H132054   6.256   2.344   1.089 -1.1783 -0.1503  1.2490
 3521TIP3    H232055   6.238   2.467   1.003  1.0961  0.3956  1.4876
 3522TIP3   OH232056   5.817   2.581  13.104  0.3116  0.2355 -0.7121
 3522TIP3    H132057   5.736   2.536  13.127  0.5311 -0.0772 -0.5254
 3522TIP3    H232058   5.886   2.526  13.143  0.4974  1.9092  1.5423
 3523TIP3   OH232059   1.570   3.232   1.789  0.0729  0.3222 -0.2613
 3523TIP3    H132060   1.578   3.284   1.708  1.3827 -1.1858 -1.1594
 3523TIP3    H232061   1.489   3.182   1.776 -0.9452  1.7144  0.4063
 3524TIP3   OH232062   1.163   5.756  15.474  0.3198  0.0256  0.4148
 3524TIP3    H132063   1.075   5.784  15.499  0.8921  1.2170  1.2340
 3524TIP3    H232064   1.150   5.698  15.399 -1.3725 -2.2729  2.3187
 3525TIP3   OH232065   2.824   3.727  16.531 -0.5343 -0.3148  0.1694
 3525TIP3    H132066   2.919   3.742  16.530 -0.4596 -0.6819 -1.7525
 3525TIP3    H232067   2.814   3.646  16.582 -0.1517  1.2689  2.9529
 3526TIP3   OH232068   4.136   6.254   0.083 -0.5203 -0.1410  0.1830
 3526TIP3    H132069   4.183   6.303   0.016  0.9552  2.0296  2.5641
 3526TIP3    H232070   4.195   6.184   0.108 -1.5745 -1.7121 -1.4889
 3527TIP3   OH232071   4.797   4.282   4.851  0.4689  0.8709 -0.2468
 3527TIP3    H132072   4.708   4.311   4.834  0.0207 -0.2814  0.0629
 3527TIP3    H232073   4.822   4.327   4.932 -0.7937 -0.7580  1.1068
 3528TIP3   OH232074   3.082   0.718  12.218 -0.0885  0.0876 -0.3879
 3528TIP3    H132075   3.039   0.716  12.133 -0.8546 -1.3055 -0.0066
 3528TIP3    H232076   3.010   0.706  12.281  0.5985 -0.0911  0.3801
 3529TIP3   OH232077   6.476   4.074   0.763  0.4475 -0.0667 -0.0085
 3529TIP3    H132078   6.493   3.992   0.717  1.3720  0.4844 -0.7135
 3529TIP3    H232079   6.392   4.104   0.729 -0.3344 -1.1441  0.9200
 3530TIP3   OH232080   0.631   2.637   1.617 -0.3812 -0.3061  0.2248
 3530TIP3    H132081   0.624   2.596   1.531  0.0658  0.0269  0.0300
 3530TIP3    H232082   0.550   2.613   1.662 -0.0478 -1.5801  0.1848
 3531TIP3   OH232083   1.555   0.220   1.037 -0.1818  0.3177 -0.2896
 3531TIP3    H132084   1.633   0.197   1.087 -0.1664 -2.4875 -1.4020
 3531TIP3    H232085   1.492   0.151   1.058 -0.7781  0.0412 -2.6492
 3532TIP3   OH232086   3.441   1.866  10.599 -0.0830  0.9798  0.3225
 3532TIP3    H132087   3.513   1.843  10.540 -1.1469  0.7609 -0.9355
 3532TIP3    H232088   3.469   1.949  10.639  0.6339  1.1778 -0.5531
 3533TIP3   OH232089   4.371   1.187  15.718 -0.1351  0.4682 -0.1145
 3533TIP3    H132090   4.323   1.111  15.686  0.8069  0.4521 -1.5996
 3533TIP3    H232091   4.303   1.250  15.742 -0.9254  0.1574 -1.4347
 3534TIP3   OH232092   3.783   1.493   4.765 -0.4784 -0.0550  0.0570
 3534TIP3    H132093   3.708   1.499   4.825  0.0637 -2.0114  1.0048
 3534TIP3    H232094   3.758   1.547   4.690 -2.0658  0.7827  1.1336
 3535TIP3   OH232095   1.337   3.344  14.212 -0.4857  0.2931 -0.9417
 3535TIP3    H132096   1.296   3.389  14.139 -1.1023 -2.0997 -2.1868
 3535TIP3    H232097   1.273   3.278  14.238  0.4386 -0.0263  0.6389
 3536TIP3   OH232098   1.146   0.145  11.215 -0.7679 -0.1780  0.1892
 3536TIP3    H132099   1.077   0.094  11.173 -0.8785  0.9651 -1.0875
 3536TIP3    H232100   1.168   0.095  11.294 -2.0583 -1.2845 -0.1112
 3537TIP3   OH232101   4.908   1.624   6.030  0.3054  0.3214 -0.4491
 3537TIP3    H132102   4.845   1.694   6.047  0.3037  0.1051  0.5137
 3537TIP3    H232103   4.989   1.669   6.007  1.1853  0.8238  3.0837
 3538TIP3   OH232104   0.540   4.840   0.459 -0.0701  0.3093  0.1369
 3538TIP3    H132105   0.632   4.840   0.431 -0.4903  1.3722 -1.3649
 3538TIP3    H232106   0.545   4.855   0.554  1.3220 -0.3708  0.2023
 3539TIP3   OH232107   5.971   6.553  15.870  0.5845 -0.2739  0.1331
 3539TIP3    H132108   6.002   6.462  15.877  1.0580 -0.0237  1.7073
 3539TIP3    H232109   5.906   6.550  15.800  2.1621 -1.3715 -1.3794
 3540TIP3   OH232110   4.466   0.852  11.983 -0.1174 -0.2293 -0.4383
 3540TIP3    H132111   4.387   0.804  12.009  0.0970 -0.5846 -0.4373
 3540TIP3    H232112   4.528   0.784  11.957  1.5935 -0.2746  3.1720
 3541TIP3   OH232113   5.048   4.717   2.527 -0.0887  0.5494 -0.1637
 3541TIP3    H132114   5.100   4.735   2.449 -0.1336 -1.3147 -0.6566
 3541TIP3    H232115   4.986   4.791   2.532 -1.1749 -0.0844 -2.8366
 3542TIP3   OH232116   0.635   2.432  12.732 -0.0212 -0.5440 -0.0492
 3542TIP3    H132117   0.603   2.521  12.718  1.3067 -0.3114 -1.9056
 3542TIP3    H232118   0.717   2.444  12.780  0.8255 -0.6514 -1.4352
 3543TIP3   OH232119   2.874   6.387  10.796 -0.1722  0.3191  0.3233
 3543TIP3    H132120   2.955   6.438  10.799  0.4788 -0.7043  1.0079
 3543TIP3    H232121   2.884   6.331  10.719 -0.5171  0.6536  0.0376
 3544TIP3   OH232122   4.570   6.417  16.753  0.1669 -0.4404  0.1825
 3544TIP3    H132123   4.495   6.444  16.699  0.7750  1.5555  0.2626
 3544TIP3    H232124   4.579   6.487  16.818  1.9082 -0.8083  0.3740
 3545TIP3   OH232125   1.620   4.842   5.794  0.0937 -0.1797 -0.5156
 3545TIP3    H132126   1.708   4.880   5.782  0.2406 -0.5450 -0.5970
 3545TIP3    H232127   1.560   4.914   5.773  0.2868 -0.7958 -3.6804
 3546TIP3   OH232128   2.556   6.676   5.227 -0.2283  0.2535 -0.6671
 3546TIP3    H132129   2.487   6.623   5.187  0.9673 -2.4871  0.5913
 3546TIP3    H232130   2.584   6.625   5.304  3.2740  1.0979 -1.1903
 3547TIP3   OH232131   1.107   1.407   1.621  0.0967  0.3448  0.7104
 3547TIP3    H132132   1.096   1.324   1.575  0.3192  1.0621 -0.6893
 3547TIP3    H232133   1.200   1.427   1.613 -0.1245  1.2225  0.1293
 3548TIP3   OH232134   6.011   3.627   4.875  0.1212  0.2628  0.2325
 3548TIP3    H132135   5.944   3.595   4.935  0.6616 -1.1608  0.1087
 3548TIP3    H232136   6.067   3.682   4.930 -0.1373  0.0423  0.7267
 3549TIP3   OH232137   5.780   6.581   2.294 -0.5310  0.0047  0.6144
 3549TIP3    H132138   5.771   6.550   2.384 -1.6837  0.3838  0.6513
 3549TIP3    H232139   5.729   6.662   2.292 -1.0979 -0.3592 -0.5400
 3550TIP3   OH232140   1.026   3.203  12.969 -0.0520  0.3891  0.0954
 3550TIP3    H132141   0.965   3.137  12.938  2.8989 -2.5598  0.0575
 3550TIP3    H232142   1.097   3.202  12.905  2.4495 -0.1301  2.6619
 3551TIP3   OH232143   5.580   1.902   0.353 -0.0768  0.4972 -0.8302
 3551TIP3    H132144   5.485   1.901   0.341 -0.0101  1.4196 -1.5688
 3551TIP3    H232145   5.604   1.994   0.352  0.4839  0.4920  2.5140
 3552TIP3   OH232146   3.428   0.792   5.909 -0.4567  0.3706  0.4043
 3552TIP3    H132147   3.479   0.711   5.897  0.4104  0.9700 -0.0802
 3552TIP3    H232148   3.475   0.840   5.977 -2.0148 -0.3366  2.0375
 3553TIP3   OH232149   4.769   2.488   4.764 -0.6360 -0.4984 -0.6032
 3553TIP3    H132150   4.769   2.458   4.855  0.8968  2.0725  0.3771
 3553TIP3    H232151   4.690   2.542   4.756 -2.4303 -3.1166 -1.8218
 3554TIP3   OH232152   6.158   6.747  13.148  0.0548  0.1273 -0.7775
 3554TIP3    H132153   6.248   6.772  13.165 -0.7716  1.7844  1.7908
 3554TIP3    H232154   6.131   6.699  13.226 -1.9632  1.8209 -0.3397
 3555TIP3   OH232155   4.361   1.734  15.146  0.1641 -0.9649 -0.0501
 3555TIP3    H132156   4.428   1.755  15.212 -0.1769 -0.1656  0.0614
 3555TIP3    H232157   4.400   1.666  15.092  1.3167 -0.0732 -0.3718
 3556TIP3   OH232158   4.384   3.901  12.771  0.1882 -0.8785 -0.3219
 3556TIP3    H132159   4.473   3.915  12.804  0.1635  0.9197 -0.9048
 3556TIP3    H232160   4.357   3.818  12.809  2.5443 -2.0540 -1.0175
 3557TIP3   OH232161   2.159   4.334  13.044 -0.5467 -0.1423 -0.1858
 3557TIP3    H132162   2.161   4.416  12.995  1.6442 -0.9178 -1.5264
 3557TIP3    H232163   2.097   4.279  12.997 -0.6804  0.1329 -0.3313
 3558TIP3   OH232164   1.488   6.785   2.845 -0.5134  0.1494  0.0828
 3558TIP3    H132165   1.529   6.720   2.902 -0.1119  0.0574 -0.3095
 3558TIP3    H232166   1.469   6.738   2.764  0.4806  0.6903 -0.4911
 3559TIP3   OH232167   2.230   5.256   5.597 -0.0983 -0.1872 -0.0836
 3559TIP3    H132168   2.276   5.186   5.643  0.3032 -0.2573 -0.5973
 3559TIP3    H232169   2.205   5.217   5.513  0.2983  0.3446 -0.4495
 3560TIP3   OH232170   3.714   0.386  12.618 -0.0631 -0.2569  0.3242
 3560TIP3    H132171   3.662   0.312  12.586 -0.0670 -1.1082  2.1930
 3560TIP3    H232172   3.789   0.346  12.662  0.9204  0.9129 -0.2240
 3561TIP3   OH232173   4.920   3.390  11.867 -0.0994  0.3075  0.3752
 3561TIP3    H132174   5.012   3.366  11.877  0.5493  1.9682 -1.1326
 3561TIP3    H232175   4.887   3.330  11.800  0.8456  1.8991 -1.5838
 3562TIP3   OH232176   6.525   4.990  10.470 -0.4193  0.1147 -0.0537
 3562TIP3    H132177   6.517   4.923  10.402 -1.3012  0.3081 -0.1566
 3562TIP3    H232178   6.456   4.969  10.533  1.2511 -0.8903  1.5593
 3563TIP3   OH232179   2.162   1.809   5.993 -0.4870 -0.5174 -0.1065
 3563TIP3    H132180   2.088   1.851   6.037  0.9061  1.3117  0.6323
 3563TIP3    H232181   2.177   1.729   6.044 -2.2681 -1.2362 -0.6293
 3564TIP3   OH232182   0.203   5.236   3.648 -0.5492 -0.1047  0.3221
 3564TIP3    H132183   0.178   5.185   3.725 -3.9223 -1.1110 -1.2531
 3564TIP3    H232184   0.210   5.171   3.578 -1.6093  1.2176 -1.0529
 3565TIP3   OH232185   0.547   3.999  12.956  0.5660  0.5068  0.3948
 3565TIP3    H132186   0.619   4.053  12.925  1.1193 -0.6543 -0.4143
 3565TIP3    H232187   0.574   3.909  12.938 -1.1243  0.0455 -0.0334
 3566TIP3   OH232188   0.560   5.879   2.464  0.0936  0.0527 -0.2185
 3566TIP3    H132189   0.637   5.921   2.425  0.7624 -1.0252 -0.1212
 3566TIP3    H232190   0.486   5.910   2.412  0.5030  1.5529  0.0329
 3567TIP3   OH232191   1.639   3.321  14.184 -0.1361  0.2958 -0.5739
 3567TIP3    H132192   1.546   3.323  14.160  0.2554 -0.4514 -2.2333
 3567TIP3    H232193   1.686   3.339  14.103  1.1793  1.8527  0.4750
 3568TIP3   OH232194   2.671   0.956   3.117  0.1343 -0.3710 -0.2794
 3568TIP3    H132195   2.671   0.880   3.059 -1.0164 -1.3454  0.9167
 3568TIP3    H232196   2.673   1.031   3.059  0.4122 -1.3206 -1.5319
 3569TIP3   OH232197   0.543   0.952  15.921 -0.2837  0.3218  0.1438
 3569TIP3    H132198   0.630   0.966  15.883  0.0695  0.0948  0.8439
 3569TIP3    H232199   0.500   1.037  15.915  0.6248  0.8970  1.3537
 3570TIP3   OH232200   0.170   0.916  15.730  0.6418  0.3574  0.1303
 3570TIP3    H132201   0.192   1.001  15.767  0.1625  0.5458 -0.0177
 3570TIP3    H232202   0.211   0.853  15.789 -3.2343  0.4467  3.2892
 3571TIP3   OH232203   5.012   3.800   2.648 -0.0645 -0.1296 -0.1006
 3571TIP3    H132204   5.078   3.816   2.581  1.1819 -0.6148  0.9547
 3571TIP3    H232205   4.946   3.745   2.605 -1.3241  2.6404 -2.0093
 3572TIP3   OH232206   2.972   0.304  15.782 -0.0821 -0.2622 -0.3125
 3572TIP3    H132207   2.982   0.329  15.690 -1.7949 -0.5057 -0.5882
 3572TIP3    H232208   3.029   0.366  15.829  0.5320  0.1022 -1.4860
 3573TIP3   OH232209   6.114   6.272  11.169 -0.0743  0.0088 -0.8112
 3573TIP3    H132210   6.088   6.355  11.131  1.0004  0.8115  0.1186
 3573TIP3    H232211   6.112   6.287  11.264  0.3594 -0.9433 -0.6330
 3574TIP3   OH232212   5.993   1.914   3.592 -0.0494 -0.2991 -0.0835
 3574TIP3    H132213   5.934   1.984   3.620  0.0188 -0.2787  0.0105
 3574TIP3    H232214   5.967   1.839   3.646 -0.9448 -0.7023 -1.0437
 3575TIP3   OH232215   3.792   5.527   5.018 -0.1305  0.8059 -0.4836
 3575TIP3    H132216   3.818   5.618   5.008 -0.2025  0.6349 -2.5512
 3575TIP3    H232217   3.859   5.477   4.972  1.5857 -0.5261  3.0388
 3576TIP3   OH232218   1.659   1.925   4.203  0.1623 -0.3556 -0.6433
 3576TIP3    H132219   1.613   2.008   4.203  0.9457  0.1163 -2.5509
 3576TIP3    H232220   1.725   1.934   4.272  0.0902  0.5150 -0.6893
 3577TIP3   OH232221   2.163   2.381  12.177  0.2064 -0.0963  0.0627
 3577TIP3    H132222   2.214   2.357  12.254 -0.0772  1.8591  0.9120
 3577TIP3    H232223   2.122   2.465  12.200 -0.5972  0.1033 -1.8890
 3578TIP3   OH232224   5.869   5.877  12.518  0.4476 -0.6609 -0.9494
 3578TIP3    H132225   5.951   5.848  12.557  0.2136 -1.1279 -0.7950
 3578TIP3    H232226   5.807   5.877  12.590 -0.1625 -2.1969 -1.4155
 3579TIP3   OH232227   4.480   1.823  11.354  0.6084 -0.1083 -0.0392
 3579TIP3    H132228   4.566   1.831  11.396  2.0534  0.0534 -2.7651
 3579TIP3    H232229   4.500   1.802  11.263 -2.3140 -1.0209 -0.5803
 3580TIP3   OH232230   5.934   3.373   5.941 -0.1685 -0.3706  0.2115
 3580TIP3    H132231   5.927   3.368   6.036 -0.6898 -0.6811  0.1586
 3580TIP3    H232232   6.027   3.390   5.925 -0.2432  0.7148  0.8142
 3581TIP3   OH232233   6.227   1.184  14.302 -0.2961  0.1304  0.1711
 3581TIP3    H132234   6.172   1.232  14.364  1.1714 -0.2956  1.8938
 3581TIP3    H232235   6.312   1.227  14.308 -0.1908  0.2995 -1.8667
 3582TIP3   OH232236   5.869   0.297  12.385 -0.0693  0.3688  0.0813
 3582TIP3    H132237   5.904   0.245  12.313  0.7895  0.4765  0.4041
 3582TIP3    H232238   5.789   0.251  12.411  1.0220 -1.2227  0.8182
 3583TIP3   OH232239   3.696   4.170  15.457 -0.1303 -0.1436 -0.2589
 3583TIP3    H132240   3.614   4.145  15.414 -0.4184  0.7546 -0.2536
 3583TIP3    H232241   3.676   4.168  15.550  0.8930 -3.5090 -0.0030
 3584TIP3   OH232242   6.700   6.734  10.492  0.3487 -0.0204 -0.2911
 3584TIP3    H132243   6.749   6.662  10.454  1.5802  1.7600 -2.3197
 3584TIP3    H232244   6.761   6.775  10.553 -0.0854 -0.2236  0.2915
 3585TIP3   OH232245   5.452   2.015  13.920 -0.5845 -0.0159 -0.1579
 3585TIP3    H132246   5.475   1.950  13.987 -0.0894  0.3790  0.0555
 3585TIP3    H232247   5.435   1.962  13.841  2.2684 -0.2858 -0.6935
 3586TIP3   OH232248   1.159   6.594   0.514  0.1826 -0.6396 -0.1758
 3586TIP3    H132249   1.224   6.567   0.579  1.4386 -1.2980 -1.6187
 3586TIP3    H232250   1.095   6.645   0.563  1.7020 -0.0987  1.3640
 3587TIP3   OH232251   3.319   3.949   5.271  0.3481  0.4299 -0.1453
 3587TIP3    H132252   3.353   4.025   5.318  1.2684  0.5955 -1.0508
 3587TIP3    H232253   3.304   3.981   5.182  1.6483 -0.6789 -0.7807
 3588TIP3   OH232254   4.969   3.853  16.962  0.1829  0.4744 -0.1010
 3588TIP3    H132255   4.991   3.902  16.883 -3.4099  1.8109 -0.4261
 3588TIP3    H232256   4.973   3.761  16.934  0.0934  0.8669 -1.5070
 3589TIP3   OH232257   3.323   6.520   5.828 -0.2464  0.3176 -0.1529
 3589TIP3    H132258   3.306   6.430   5.801  2.7021 -0.0732 -1.0434
 3589TIP3    H232259   3.295   6.523   5.920  0.8568 -1.9735  0.3484
 3590TIP3   OH232260   1.091   1.179  15.675 -0.0140 -0.5399 -0.4455
 3590TIP3    H132261   1.148   1.251  15.700  0.1188  0.1961 -2.6456
 3590TIP3    H232262   1.002   1.213  15.688 -0.0155 -1.2626  1.8226
 3591TIP3   OH232263   1.620   0.591   4.457 -0.8290 -0.2540 -0.0000
 3591TIP3    H132264   1.562   0.527   4.498  0.1687 -0.7830  0.6284
 3591TIP3    H232265   1.689   0.539   4.416 -0.5379  0.3790 -0.3355
 3592TIP3   OH232266   4.635   1.092   3.461 -0.0685 -0.0835  0.2810
 3592TIP3    H132267   4.586   1.022   3.505  0.0805  0.7405  1.8099
 3592TIP3    H232268   4.694   1.126   3.528  0.2029  1.1898 -0.5741
 3593TIP3   OH232269   6.769   4.714   0.027 -0.1842  0.2786  0.0596
 3593TIP3    H132270   6.710   4.784   0.054  1.2787  0.3964  3.4711
 3593TIP3    H232271   6.850   4.759   0.003 -0.3635 -0.0760 -1.2683
 3594TIP3   OH232272   5.680   3.432   1.006 -0.4580 -0.2184  0.6243
 3594TIP3    H132273   5.656   3.495   0.938  0.6747 -0.6793 -0.2141
 3594TIP3    H232274   5.748   3.476   1.057  1.4287 -1.2745 -0.8785
 3595TIP3   OH232275   6.331   3.634   6.090  0.2820 -0.4259 -0.3625
 3595TIP3    H132276   6.383   3.564   6.128 -0.0833 -0.3441  0.2960
 3595TIP3    H232277   6.241   3.601   6.091  0.3405 -0.7072 -1.8133
 3596TIP3   OH232278   2.730   5.302  15.328  0.1322 -0.1970  0.3223
 3596TIP3    H132279   2.687   5.284  15.245  1.7503 -0.4416 -0.5008
 3596TIP3    H232280   2.813   5.256  15.323  1.0344  1.2142  1.3402
 3597TIP3   OH232281   4.327   2.169   2.488  0.2068  0.2270 -0.4408
 3597TIP3    H132282   4.296   2.164   2.578  0.1487 -0.6348 -0.5008
 3597TIP3    H232283   4.252   2.201   2.439 -0.4367 -1.2852 -0.4924
 3598TIP3   OH232284   3.454   3.461   5.065  0.3220  0.0313 -0.6432
 3598TIP3    H132285   3.419   3.532   5.118  0.1939  0.5768 -1.4432
 3598TIP3    H232286   3.477   3.393   5.128 -0.2131  0.5010  0.0703
 3599TIP3   OH232287   5.760   4.672  12.390 -0.5621  0.2463 -0.0807
 3599TIP3    H132288   5.849   4.653  12.416 -0.1701 -0.8940 -2.0428
 3599TIP3    H232289   5.709   4.665  12.470  0.8753 -0.6491  0.7865
 3600TIP3   OH232290   6.347   3.133   4.969 -0.3423  0.1397  0.1487
 3600TIP3    H132291   6.430   3.113   4.925  0.5678  0.3732  1.6591
 3600TIP3    H232292   6.296   3.181   4.904  0.8311  0.2617 -0.7156
 3601TIP3   OH232293   5.873   5.499  15.738  0.2704 -0.5130  0.9552
 3601TIP3    H132294   5.862   5.436  15.810  2.5998 -0.8835  1.0780
 3601TIP3    H232295   5.894   5.445  15.662 -0.7203 -0.0246  0.3094
 3602TIP3   OH232296   3.152   6.394  11.106 -0.5586  0.4213 -0.7170
 3602TIP3    H132297   3.170   6.303  11.080  3.0853  0.5289  0.8133
 3602TIP3    H232298   3.099   6.429  11.034 -0.7038 -2.4374 -2.1480
 3603TIP3   OH232299   1.424   3.497  15.993 -0.0532 -0.4292 -0.0098
 3603TIP3    H132300   1.383   3.528  15.912  1.5113  0.9207 -0.3533
 3603TIP3    H232301   1.447   3.406  15.975 -0.5543 -0.4273 -0.7323
 3604TIP3   OH232302   0.999   3.713  16.529  0.1343  0.1410 -0.6728
 3604TIP3    H132303   1.069   3.653  16.504 -1.2068 -0.5231 -3.2154
 3604TIP3    H232304   1.030   3.799  16.499  1.5178  0.6276  1.8674
 3605TIP3   OH232305   2.161   1.959  15.211  0.3245 -0.0391  0.1299
 3605TIP3    H132306   2.095   2.022  15.183  1.2457  0.3963 -1.1704
 3605TIP3    H232307   2.212   2.005  15.277  0.4134  0.2449 -0.1375
 3606TIP3   OH232308   3.186   3.221   6.074  0.1218 -0.3700  0.1326
 3606TIP3    H132309   3.146   3.201   6.158  0.1541  0.4567  0.3539
 3606TIP3    H232310   3.135   3.172   6.010 -0.2377 -0.5775  0.5768
 3607TIP3   OH232311   3.909   1.626   4.502  0.4716 -0.3396 -0.6753
 3607TIP3    H132312   3.817   1.644   4.520 -0.0428 -1.7078 -1.7183
 3607TIP3    H232313   3.950   1.712   4.496 -0.2347  0.2750  2.0745
 3608TIP3   OH232314   4.103   0.145   1.902  0.8645  0.3887  0.9059
 3608TIP3    H132315   4.178   0.152   1.844  2.1489  0.0578  2.4713
 3608TIP3    H232316   4.054   0.226   1.889  0.9294  0.1677 -0.8581
 3609TIP3   OH232317   4.392   6.271  14.000  0.0320  0.3621  0.1964
 3609TIP3    H132318   4.477   6.254  14.039 -0.2134  0.4550  0.7862
 3609TIP3    H232319   4.402   6.246  13.909  0.6596  0.2751  0.2849
 3610TIP3   OH232320   0.974   5.024   3.844  0.0158 -0.3274 -0.1847
 3610TIP3    H132321   1.053   5.037   3.897  0.2238 -1.3113 -0.2287
 3610TIP3    H232322   1.006   5.010   3.755 -0.2071 -0.6008 -0.2262
 3611TIP3   OH232323   6.219   6.201  13.374 -0.6281  0.3270  0.4974
 3611TIP3    H132324   6.138   6.237  13.339 -0.5071 -0.8774 -1.1285
 3611TIP3    H232325   6.289   6.248  13.328 -0.4099  0.5245  1.0193
 3612TIP3   OH232326   5.596   3.493  16.044  0.1723 -0.1652 -0.5154
 3612TIP3    H132327   5.534   3.445  15.990  0.3967  0.2690 -1.1700
 3612TIP3    H232328   5.600   3.443  16.126 -0.2430 -0.7735 -0.8577
 3613TIP3   OH232329   2.004   6.781   4.328  0.9220 -0.4592  0.1216
 3613TIP3    H132330   2.071   6.812   4.388  1.0762  0.7721 -0.6611
 3613TIP3    H232331   1.978   6.696   4.363 -1.1651  1.4312  3.6751
 3614TIP3   OH232332   5.798   3.041  17.082  0.1339 -0.4466 -0.1207
 3614TIP3    H132333   5.869   3.035  17.018 -0.2462  1.7727 -0.8139
 3614TIP3    H232334   5.739   2.970  17.058  0.8389 -0.7112 -1.1500
 3615TIP3   OH232335   3.841   6.137   5.839  0.3255 -0.0104 -0.1088
 3615TIP3    H132336   3.784   6.061   5.832  2.1572 -1.3296 -1.5494
 3615TIP3    H232337   3.929   6.101   5.854  1.0251  1.8810  0.6771
 3616TIP3   OH232338   4.699   4.243   3.639  0.1841 -0.4211 -0.4104
 3616TIP3    H132339   4.789   4.238   3.606 -0.1789 -0.1056 -1.4961
 3616TIP3    H232340   4.646   4.200   3.571 -0.6116  0.4093 -0.3342
 3617TIP3   OH232341   2.857   4.973  16.419  0.4328  0.1543  0.1373
 3617TIP3    H132342   2.924   5.019  16.468 -0.4000  0.6573  0.8241
 3617TIP3    H232343   2.817   4.913  16.483  1.2141 -1.2371 -0.6320
 3618TIP3   OH232344   5.180   6.459  12.296 -0.1509  0.2758  0.4926
 3618TIP3    H132345   5.112   6.484  12.234  1.3620 -0.7471 -1.7594
 3618TIP3    H232346   5.183   6.530  12.359 -0.7263  2.2305 -1.5494
 3619TIP3   OH232347   4.744   3.009  12.784  0.1929  0.2175 -0.3915
 3619TIP3    H132348   4.822   2.986  12.733  0.0526  1.0342 -1.0094
 3619TIP3    H232349   4.725   3.099  12.758  1.6094  1.6491  3.0054
 3620TIP3   OH232350   2.387   4.230   4.200 -0.3572 -0.1851 -0.4946
 3620TIP3    H132351   2.472   4.269   4.176 -0.8807  0.9438 -0.5865
 3620TIP3    H232352   2.409   4.167   4.269  0.3995  1.2555  0.6533
 3621TIP3   OH232353   0.939   3.306   6.373  0.7128 -0.5674  0.3403
 3621TIP3    H132354   0.877   3.308   6.300  0.2869 -1.9964  0.6287
 3621TIP3    H232355   1.009   3.248   6.344  0.4138 -1.3585  1.1370
 3622TIP3   OH232356   1.712   2.009  16.695  0.0961 -0.3476 -0.0191
 3622TIP3    H132357   1.796   2.028  16.654  0.5789 -2.4961 -0.1397
 3622TIP3    H232358   1.721   2.040  16.785  1.6069 -1.8820  0.4105
 3623TIP3   OH232359   0.541   1.782  16.933 -0.0881  0.1709  0.6656
 3623TIP3    H132360   0.636   1.775  16.945  0.2319  0.8467 -1.1909
 3623TIP3    H232361   0.525   1.747  16.845 -1.3710  1.4079  0.3756
 3624TIP3   OH232362   0.254   3.410  12.905  0.1714  0.1874 -0.3988
 3624TIP3    H132363   0.338   3.441  12.871 -0.1272  0.2287 -1.1209
 3624TIP3    H232364   0.275   3.328  12.950  0.6110  0.2430 -0.4946
 3625TIP3   OH232365   2.516   1.420   0.124 -0.4732 -0.1028  0.7860
 3625TIP3    H132366   2.537   1.500   0.172 -0.6846 -0.2175  1.0686
 3625TIP3    H232367   2.567   1.426   0.043 -2.9180  1.9043 -0.7717
 3626TIP3   OH232368   3.034   2.476  12.048 -0.0394 -0.2720  0.0105
 3626TIP3    H132369   2.973   2.440  11.984  1.4022  0.2934 -1.7479
 3626TIP3    H232370   2.983   2.542  12.095 -0.5025  1.1863 -2.3618
 3627TIP3   OH232371   6.207   3.900  13.599 -0.3749  0.0840  0.1048
 3627TIP3    H132372   6.119   3.877  13.629  0.2317 -0.7061  1.3909
 3627TIP3    H232373   6.197   3.919  13.506 -2.1587  1.4529  0.5177
 3628TIP3   OH232374   4.750   4.183   6.364  0.1281  0.5815 -0.4016
 3628TIP3    H132375   4.695   4.168   6.441  0.3278 -0.4034 -0.4350
 3628TIP3    H232376   4.722   4.268   6.331 -1.1815  0.2385 -0.2521
 3629TIP3   OH232377   5.167   3.800  14.202  0.2812 -0.0871  0.1461
 3629TIP3    H132378   5.136   3.889  14.185  0.6547  0.1484  0.6711
 3629TIP3    H232379   5.213   3.775  14.122 -1.8634 -0.7326 -0.9625
 3630TIP3   OH232380   5.366   5.874   1.157 -0.4216  0.3446  0.1383
 3630TIP3    H132381   5.399   5.859   1.245 -2.2772 -0.7962  0.7085
 3630TIP3    H232382   5.352   5.786   1.122  0.6084  0.7738 -1.4476
 3631TIP3   OH232383   0.798   4.323   4.098  0.0572 -0.3235 -0.0131
 3631TIP3    H132384   0.766   4.248   4.050 -2.3348  0.2098  0.6118
 3631TIP3    H232385   0.827   4.287   4.182 -1.7430 -0.5230  0.5644
 3632TIP3   OH232386   0.257   4.599   5.686  0.2586  0.2237  0.4552
 3632TIP3    H132387   0.296   4.590   5.773 -0.1680  1.8255  0.8618
 3632TIP3    H232388   0.325   4.641   5.634  1.2354 -2.4806 -0.5971
 3633TIP3   OH232389   4.901   1.404   0.091 -0.1940  0.7971 -0.1357
 3633TIP3    H132390   4.858   1.445   0.016  1.0288  1.0477 -0.7238
 3633TIP3    H232391   4.901   1.311   0.071 -2.0692  0.5644  0.7314
 3634TIP3   OH232392   6.577   5.854   5.386 -0.0765  0.1021 -0.4447
 3634TIP3    H132393   6.503   5.813   5.342  0.6516  0.7603 -2.3774
 3634TIP3    H232394   6.648   5.789   5.379  0.0542  0.2245 -0.2554
 3635TIP3   OH232395   2.609   2.932   3.161  0.2694  0.0714 -0.0316
 3635TIP3    H132396   2.645   2.851   3.196 -0.7570 -0.3202  0.1613
 3635TIP3    H232397   2.515   2.927   3.181  0.3984  1.9757  1.3014
 3636TIP3   OH232398   4.248   3.029   0.759  0.3782  0.6245  0.3791
 3636TIP3    H132399   4.275   3.092   0.692 -0.6648  1.1057  0.3836
 3636TIP3    H232400   4.153   3.040   0.764  0.5027  1.0593  2.4097
 3637TIP3   OH232401   0.130   6.461   0.366  0.2572  0.3018 -0.1972
 3637TIP3    H132402   0.035   6.460   0.353  0.2034  1.7332 -0.1178
 3637TIP3    H232403   0.143   6.418   0.450 -0.3730  0.4613 -0.0081
 3638TIP3   OH232404   1.957   0.350  15.225  0.0542 -0.4497  0.2549
 3638TIP3    H132405   1.970   0.439  15.192  0.5410 -0.5532  0.1639
 3638TIP3    H232406   1.883   0.358  15.286  1.1888  0.3791  1.6021
 3639TIP3   OH232407   5.934   4.976   2.924 -0.0377  0.6513  0.0124
 3639TIP3    H132408   6.003   5.025   2.878 -0.6467  2.5137  0.9776
 3639TIP3    H232409   5.867   4.962   2.857 -0.7694  3.0345  0.1630
 3640TIP3   OH232410   0.323   5.818   4.345 -0.2170 -0.2611  0.0820
 3640TIP3    H132411   0.336   5.844   4.436 -0.4467 -0.7807  0.2697
 3640TIP3    H232412   0.362   5.889   4.294  2.5604 -1.2876  0.5813
 3641TIP3   OH232413   1.276   2.500  10.444  0.2103  0.0800  0.3420
 3641TIP3    H132414   1.255   2.479  10.353  0.1430 -2.9140  0.9536
 3641TIP3    H232415   1.282   2.415  10.488  1.5859  1.3633  2.8650
 3642TIP3   OH232416   6.200   3.968  13.088 -0.6069 -0.0456  0.1694
 3642TIP3    H132417   6.263   4.038  13.072  0.3143 -1.3321 -2.3261
 3642TIP3    H232418   6.252   3.887  13.084 -2.0291 -1.0150  0.5496
 3643TIP3   OH232419   5.893   6.078  15.678 -0.3876 -0.1354 -0.0692
 3643TIP3    H132420   5.881   5.983  15.681  0.0363 -0.2002 -0.3443
 3643TIP3    H232421   5.908   6.097  15.586 -1.4170  0.3248 -0.1480
 3644TIP3   OH232422   4.825   6.084  16.634  0.0642 -0.5365  0.0546
 3644TIP3    H132423   4.904   6.085  16.689  1.0585  0.0085 -1.3136
 3644TIP3    H232424   4.756   6.118  16.691  0.9708 -0.3169  1.0745
 3645TIP3   OH232425   3.285   2.209  12.371 -0.1441 -0.1995 -0.5794
 3645TIP3    H132426   3.235   2.130  12.349  0.2565 -0.1099 -1.9446
 3645TIP3    H232427   3.340   2.224  12.294 -0.2235  1.4150 -0.3502
 3646TIP3   OH232428   1.666   0.203  12.338  0.1251  1.2126  1.1978
 3646TIP3    H132429   1.759   0.225  12.342  0.4278 -0.1580  2.1238
 3646TIP3    H232430   1.652   0.139  12.407 -1.3529  0.8089  0.5851
 3647TIP3   OH232431   2.920   3.558   4.117 -0.2050  0.1319  0.2530
 3647TIP3    H132432   2.981   3.632   4.122  1.0767 -0.9400  1.3918
 3647TIP3    H232433   2.851   3.580   4.178 -1.3372  1.6190 -1.4548
 3648TIP3   OH232434   2.160   0.794   3.587 -0.2029 -0.2735  0.0619
 3648TIP3    H132435   2.133   0.864   3.647 -0.0808 -0.7671  0.7024
 3648TIP3    H232436   2.079   0.746   3.569 -0.0750 -0.7018  0.5995
 3649TIP3   OH232437   1.895   3.807   5.574  0.3574  0.1155  0.1540
 3649TIP3    H132438   1.918   3.739   5.636 -2.0875 -1.2208 -0.2780
 3649TIP3    H232439   1.840   3.868   5.623 -1.2175 -0.7089 -0.5188
 3650TIP3   OH232440   5.982   2.327  15.638  0.0914  0.2743  0.0180
 3650TIP3    H132441   6.033   2.328  15.557 -0.0868  0.2088 -0.0967
 3650TIP3    H232442   5.894   2.301  15.611  0.3495 -1.1204  0.4117
 3651TIP3   OH232443   3.115   0.102   2.674  0.1799  0.2973  0.5354
 3651TIP3    H132444   3.043   0.092   2.612  0.0705  1.1645  0.5008
 3651TIP3    H232445   3.110   0.026   2.731  0.6308 -0.8327 -0.8714
 3652TIP3   OH232446   4.039   1.302   1.194  0.3662 -0.0225  0.0766
 3652TIP3    H132447   3.980   1.319   1.268 -0.4447 -1.9129 -0.0874
 3652TIP3    H232448   4.088   1.224   1.220  0.5298 -0.3346 -1.1227
 3653TIP3   OH232449   4.178   5.286   2.269 -0.2290  0.7962 -0.3360
 3653TIP3    H132450   4.086   5.267   2.251 -0.1653 -0.3909  0.4382
 3653TIP3    H232451   4.226   5.210   2.235  0.2911  0.6029  0.7701
 3654TIP3   OH232452   2.756   6.829   0.336  0.1543 -0.6046 -1.1495
 3654TIP3    H132453   2.662   6.843   0.327 -0.5338 -1.9328  2.3208
 3654TIP3    H232454   2.796   6.907   0.299 -2.4877  1.5585  0.2103
 3655TIP3   OH232455   1.262   0.029   3.898  0.0589  0.4488 -0.1571
 3655TIP3    H132456   1.214   0.093   3.951 -3.5775 -3.0115  1.2420
 3655TIP3    H232457   1.226   0.040   3.810 -1.2238 -0.1298  0.2627
 3656TIP3   OH232458   1.622   6.443  16.524  0.1761 -0.4136  0.0465
 3656TIP3    H132459   1.572   6.524  16.511  2.6778  1.3479  0.6697
 3656TIP3    H232460   1.694   6.468  16.583  0.2317 -3.4662  1.4689
 3657TIP3   OH232461   3.239   3.270  13.733  0.1590 -0.2772 -0.4204
 3657TIP3    H132462   3.216   3.189  13.780 -0.9047  0.7854  0.9556
 3657TIP3    H232463   3.174   3.276  13.663 -0.4097 -0.1067  0.1093
 3658TIP3   OH232464   1.954   3.004  14.389  0.1985 -0.0509 -0.0566
 3658TIP3    H132465   1.959   3.060  14.466 -1.1118 -1.2410  0.9506
 3658TIP3    H232466   1.904   2.928  14.418  0.9505 -1.2226 -1.6858
 3659TIP3   OH232467   6.107   6.509   0.759 -0.0222 -0.3773 -0.1934
 3659TIP3    H132468   6.029   6.552   0.724  0.8641  0.8930 -0.6882
 3659TIP3    H232469   6.075   6.462   0.836 -1.7738 -2.1435 -1.8899
 3660TIP3   OH232470   5.313   0.402   3.694 -0.7675  0.3190  0.5519
 3660TIP3    H132471   5.233   0.360   3.727  0.2153  0.0464  2.8251
 3660TIP3    H232472   5.297   0.496   3.705 -1.9688  0.5140 -2.1081
 3661TIP3   OH232473   3.904   3.908   5.326 -0.2174  0.0084  0.3392
 3661TIP3    H132474   3.877   3.931   5.237  0.4630  0.4235  0.2324
 3661TIP3    H232475   3.846   3.960   5.383 -1.8866 -1.6049  0.2038
 3662TIP3   OH232476   4.634   6.059  12.486 -0.5633  0.0606 -0.1611
 3662TIP3    H132477   4.654   6.028  12.398  1.4903 -3.4641  1.3221
 3662TIP3    H232478   4.555   6.011  12.511  0.1905 -0.7728  0.6844
 3663TIP3   OH232479   4.264   3.098   5.367 -0.1150 -0.2794  1.0226
 3663TIP3    H132480   4.298   3.170   5.314  1.0452 -0.3247  1.6711
 3663TIP3    H232481   4.193   3.137   5.418  0.1064  0.2597  0.9267
 3664TIP3   OH232482   1.726   1.503  15.036  0.7839  0.2817 -0.0985
 3664TIP3    H132483   1.765   1.535  14.955 -0.7430  0.4230 -0.8245
 3664TIP3    H232484   1.755   1.413  15.044  0.0009 -0.1226 -1.4693
 3665TIP3   OH232485   6.593   0.789   3.654  0.1655 -0.9674  0.0100
 3665TIP3    H132486   6.611   0.859   3.592 -1.4477  0.1739  0.7760
 3665TIP3    H232487   6.498   0.781   3.657  0.2804 -3.3307 -0.1561
 3666TIP3   OH232488   2.344   3.777  13.514 -0.2014  0.7230  0.4723
 3666TIP3    H132489   2.348   3.824  13.430 -2.1646  0.4601  0.1792
 3666TIP3    H232490   2.286   3.830  13.568 -1.2758 -0.5833  0.6382
 3667TIP3   OH232491   6.344   2.262   3.480  0.2039 -0.2646  0.4907
 3667TIP3    H132492   6.363   2.331   3.417 -1.2660  0.6161  0.9685
 3667TIP3    H232493   6.430   2.235   3.513  0.9902 -0.5197 -1.6115
 3668TIP3   OH232494   4.405   4.523  11.860  0.1273 -0.4724  0.2210
 3668TIP3    H132495   4.394   4.589  11.792  0.0244 -0.4949  0.2158
 3668TIP3    H232496   4.334   4.460  11.844  1.0016 -1.2943 -0.5808
 3669TIP3   OH232497   5.941   1.324   1.265  0.0434  0.9988  0.5281
 3669TIP3    H132498   5.887   1.364   1.333 -2.1640  2.1448 -1.7544
 3669TIP3    H232499   6.018   1.380   1.259 -0.5161  1.8285  0.9672
 3670TIP3   OH232500   1.974   5.606   3.853  0.2729 -0.4744 -0.4241
 3670TIP3    H132501   1.890   5.569   3.880  1.2637 -1.7388  1.2054
 3670TIP3    H232502   2.013   5.638   3.935  1.4961 -0.2055 -1.0798
 3671TIP3   OH232503   4.188   3.033  12.149 -0.0422  0.1163  0.3707
 3671TIP3    H132504   4.158   3.096  12.215  1.3890  0.2892  0.8945
 3671TIP3    H232505   4.159   2.948  12.182 -1.1423  0.3895  0.1483
 3672TIP3   OH232506   1.660   3.906   5.708 -0.2790 -0.4389 -0.3931
 3672TIP3    H132507   1.653   3.873   5.798 -0.8752 -1.0168 -0.6470
 3672TIP3    H232508   1.593   3.859   5.660  0.2795 -0.3999 -1.2305
 3673TIP3   OH232509   2.250   3.980  15.996  0.2994 -0.2411  0.1570
 3673TIP3    H132510   2.157   3.979  15.975  0.8761 -1.2817 -2.9345
 3673TIP3    H232511   2.256   3.936  16.080 -1.9057 -1.4187 -0.2191
 3674TIP3   OH232512   6.131   3.440  15.073 -0.0400 -0.0037  0.0207
 3674TIP3    H132513   6.103   3.514  15.127 -0.7778 -0.4237  0.2272
 3674TIP3    H232514   6.227   3.446  15.072 -0.1109  2.1786 -1.7052
 3675TIP3   OH232515   2.959   5.979   4.142  1.0204  0.2107  0.0250
 3675TIP3    H132516   2.966   5.884   4.139 -0.1903  0.0653  1.1506
 3675TIP3    H232517   2.967   6.001   4.234  1.2924  1.2156 -0.2220
 3676TIP3   OH232518   6.310   1.402   0.357 -0.1352 -0.2335 -0.4693
 3676TIP3    H132519   6.370   1.475   0.367 -2.8912  2.1853 -0.0342
 3676TIP3    H232520   6.302   1.364   0.445 -0.0633  0.1217 -0.3099
 3677TIP3   OH232521   4.277   3.219  15.989  0.3376  0.1908 -0.4928
 3677TIP3    H132522   4.295   3.265  15.907  1.0840  0.2475 -0.3042
 3677TIP3    H232523   4.274   3.288  16.056  0.7809  0.0393 -0.3139
 3678TIP3   OH232524   1.490   0.230   1.806  0.0839  0.2070 -0.3265
 3678TIP3    H132525   1.508   0.274   1.889 -2.2769  0.3919  0.1492
 3678TIP3    H232526   1.407   0.186   1.819 -0.1348 -0.1413 -2.4664
 3679TIP3   OH232527   6.497   4.776   4.708  0.0001 -0.3592  0.0559
 3679TIP3    H132528   6.578   4.761   4.660  0.1325  1.1781 -0.2335
 3679TIP3    H232529   6.491   4.701   4.768  2.0902 -0.0582  0.7329
 3680TIP3   OH232530   2.726   2.787   0.430 -0.0904  0.1856 -0.2268
 3680TIP3    H132531   2.780   2.857   0.396 -0.7926  0.9379  0.1634
 3680TIP3    H232532   2.760   2.708   0.388  2.5636  0.3249  1.4470
 3681TIP3   OH232533   6.396   1.097   4.839  0.4394 -0.1508 -0.4882
 3681TIP3    H132534   6.330   1.047   4.791  1.0958 -1.5204 -0.0368
 3681TIP3    H232535   6.421   1.039   4.912  0.3428  1.3661  0.7964
 3682TIP3   OH232536   0.239   3.110   2.959 -0.3526  0.1239 -0.2519
 3682TIP3    H132537   0.249   3.059   2.879 -0.6068 -0.4712  0.0964
 3682TIP3    H232538   0.325   3.152   2.971 -0.6095  1.0106 -1.3664
 3683TIP3   OH232539   3.825   4.902   6.296  0.2753  0.2620 -0.4578
 3683TIP3    H132540   3.872   4.913   6.378 -1.2340 -1.2780  0.6995
 3683TIP3    H232541   3.735   4.930   6.316  0.3143  1.7777 -2.1851
 3684TIP3   OH232542   5.447   4.411  11.911  0.3558 -0.1857 -0.1201
 3684TIP3    H132543   5.410   4.479  11.856  1.8319  0.2471 -0.6294
 3684TIP3    H232544   5.372   4.363  11.944 -0.6491  0.8583 -0.8268
 3685TIP3   OH232545   2.526   5.492  14.532  0.1920  0.4307  0.3283
 3685TIP3    H132546   2.452   5.463  14.586  1.3268 -0.6860  1.3687
 3685TIP3    H232547   2.491   5.498  14.444 -0.8987 -1.1162  0.6178
 3686TIP3   OH232548   5.886   1.716   5.552  0.5258  0.5602  0.4900
 3686TIP3    H132549   5.896   1.708   5.457  2.0405  0.7835  0.5963
 3686TIP3    H232550   5.878   1.810   5.568  1.5887  0.6416  0.6551
 3687TIP3   OH232551   0.343   4.868   4.535 -0.4795  0.0093  0.2066
 3687TIP3    H132552   0.351   4.962   4.546  1.4073 -0.2653  1.9322
 3687TIP3    H232553   0.409   4.846   4.469 -1.3792 -0.0504 -0.6917
 3688TIP3   OH232554   3.499   4.565  16.097  0.1668 -0.3211 -0.1688
 3688TIP3    H132555   3.421   4.566  16.152  0.1284  1.0737 -0.2114
 3688TIP3    H232556   3.526   4.473  16.095 -0.7293 -0.6263  0.8895
 3689TIP3   OH232557   3.822   1.218   1.997  0.2455  0.0592 -0.1772
 3689TIP3    H132558   3.806   1.207   1.904 -1.1055 -0.3725  0.0877
 3689TIP3    H232559   3.882   1.292   2.003  2.1922 -1.3154 -1.5038
 3690TIP3   OH232560   0.346   5.729   3.242 -0.8014 -0.6181 -0.4698
 3690TIP3    H132561   0.310   5.777   3.167 -0.3373 -1.6786 -1.3997
 3690TIP3    H232562   0.389   5.653   3.204 -1.1176 -1.5442  0.9267
 3691TIP3   OH232563   1.776   4.534  16.860 -0.3098  0.3462 -0.1642
 3691TIP3    H132564   1.717   4.609  16.872  1.5622  1.8796 -0.1207
 3691TIP3    H232565   1.841   4.565  16.797  0.7892 -1.0808  0.2352
 3692TIP3   OH232566   1.917   2.011  12.224 -0.0422  0.0191  0.8080
 3692TIP3    H132567   1.911   2.028  12.130  0.6336  0.4655  0.8324
 3692TIP3    H232568   1.844   1.952  12.243 -0.3668  0.1667  0.0622
 3693TIP3   OH232569   2.971   0.769   5.086 -0.0167  0.4313  0.1076
 3693TIP3    H132570   3.029   0.766   5.010  1.4850 -1.1696  1.2431
 3693TIP3    H232571   3.004   0.841   5.139  2.7993 -2.0649  2.0381
 3694TIP3   OH232572   4.286   1.542  16.220  0.6993 -0.0739  0.4436
 3694TIP3    H132573   4.350   1.601  16.180 -0.6692  0.6055 -0.8402
 3694TIP3    H232574   4.212   1.598  16.241 -0.0413 -1.0839  0.5864
 3695TIP3   OH232575   5.547   4.913   1.441  0.7669 -0.3097 -0.7398
 3695TIP3    H132576   5.461   4.874   1.422 -0.3886  2.3164 -1.2819
 3695TIP3    H232577   5.541   4.941   1.532  0.7447  0.5679 -1.0040
 3696TIP3   OH232578   6.262   6.224   3.381  0.2798  0.2831  0.0672
 3696TIP3    H132579   6.231   6.313   3.396  0.6831  0.2905  0.8764
 3696TIP3    H232580   6.191   6.182   3.333 -0.2390  0.8168  0.3564
 3697TIP3   OH232581   6.468   2.644   5.256  0.0547 -1.1047  0.5390
 3697TIP3    H132582   6.561   2.652   5.237  0.3815 -0.6014  2.1680
 3697TIP3    H232583   6.451   2.550   5.258  0.1952 -1.1847 -1.1508
 3698TIP3   OH232584   3.315   5.956   2.175 -0.4904 -0.0344  0.0997
 3698TIP3    H132585   3.320   5.877   2.121 -0.2749 -0.0367  0.1213
 3698TIP3    H232586   3.225   5.959   2.206 -0.4733 -0.3267  0.1776
 3699TIP3   OH232587   2.072   3.772  13.161 -0.2735  0.0377 -0.0731
 3699TIP3    H132588   2.062   3.678  13.175 -3.1223 -0.0895 -2.0878
 3699TIP3    H232589   2.160   3.782  13.124 -0.6222 -2.1696 -1.6834
 3700TIP3   OH232590   2.984   3.577   1.518  0.3350  0.3309 -0.0994
 3700TIP3    H132591   3.035   3.583   1.437 -0.8953  1.7146 -0.8250
 3700TIP3    H232592   2.933   3.658   1.521 -1.4825 -0.7667  0.8032
 3701TIP3   OH232593   6.605   2.394  16.018 -0.0499 -0.5881 -0.2493
 3701TIP3    H132594   6.516   2.393  15.982  0.4532  0.0221 -1.5868
 3701TIP3    H232595   6.631   2.486  16.013  0.7892 -0.8167 -0.2139
 3702TIP3   OH232596   2.387   4.908  15.947 -0.2724  0.2424 -0.2248
 3702TIP3    H132597   2.333   4.831  15.931 -2.9647  1.7770  0.8584
 3702TIP3    H232598   2.366   4.968  15.875  0.4382  0.6724 -0.0840
 3703TIP3   OH232599   2.048   0.484  10.353 -0.2641  0.4031 -0.1684
 3703TIP3    H132600   2.101   0.506  10.430 -0.3459 -1.8099  0.5838
 3703TIP3    H232601   2.092   0.529  10.281  1.9904 -0.3829  0.6154
 3704TIP3   OH232602   6.365   0.745   1.560 -0.6370 -0.1946 -0.7501
 3704TIP3    H132603   6.353   0.788   1.475 -1.6832  0.8763 -0.0921
 3704TIP3    H232604   6.459   0.750   1.576 -0.2442 -1.4598 -2.3491
 3705TIP3   OH232605   1.592   0.846   4.589 -0.2335  0.4642 -0.3029
 3705TIP3    H132606   1.600   0.766   4.537  1.2464  0.6257 -0.3499
 3705TIP3    H232607   1.508   0.836   4.634  0.2192 -1.4204  0.2022
 3706TIP3   OH232608   5.163   3.627   1.408  0.2854  0.0561 -0.2306
 3706TIP3    H132609   5.071   3.613   1.385  0.5406  1.1298 -2.0806
 3706TIP3    H232610   5.161   3.656   1.499 -0.8992 -3.1713  0.9171
 3707TIP3   OH232611   5.368   1.848   1.516  0.4613  0.1881 -0.2231
 3707TIP3    H132612   5.375   1.764   1.561  3.6140  1.1945  1.4491
 3707TIP3    H232613   5.429   1.842   1.443 -0.4726  0.5228 -1.0520
 3708TIP3   OH232614   4.928   5.962   0.849  0.5733  0.1801 -0.3689
 3708TIP3    H132615   5.004   5.904   0.855  0.9915  0.8471  1.1266
 3708TIP3    H232616   4.963   6.049   0.868 -0.3497  0.6859 -0.9280
 3709TIP3   OH232617   4.479   4.195   4.189  0.3379  0.0153 -0.0945
 3709TIP3    H132618   4.424   4.271   4.174 -0.1970 -0.8101 -2.7869
 3709TIP3    H232619   4.561   4.214   4.143  1.8039  0.5404  2.5054
 3710TIP3   OH232620   6.720   6.282   0.449 -1.0726  0.4793 -0.0351
 3710TIP3    H132621   6.750   6.222   0.381 -0.4320  0.4646  0.2412
 3710TIP3    H232622   6.793   6.284   0.512 -0.7719  2.0777 -0.3771
 3711TIP3   OH232623   3.448   1.986   2.008 -0.3905  0.3170 -0.0350
 3711TIP3    H132624   3.535   1.978   2.049 -0.1025 -0.1679 -0.7255
 3711TIP3    H232625   3.446   1.917   1.942 -0.6548  1.3818 -1.1886
 3712TIP3   OH232626   4.816   0.617  11.098 -0.1565 -0.1134  0.0694
 3712TIP3    H132627   4.826   0.707  11.065  0.5358  0.1316  0.9003
 3712TIP3    H232628   4.892   0.570  11.064  0.2336 -0.0153  0.7835
 3713TIP3   OH232629   1.806   5.844   1.844 -0.0794 -0.5994 -0.0614
 3713TIP3    H132630   1.788   5.846   1.750  1.2539  1.9846 -0.3353
 3713TIP3    H232631   1.847   5.759   1.858  0.6426 -0.6495 -2.0386
 3714TIP3   OH232632   5.479   4.634   0.164  0.6011 -0.2064 -0.5109
 3714TIP3    H132633   5.425   4.708   0.138 -1.0972 -0.7296  1.2512
 3714TIP3    H232634   5.468   4.570   0.094  0.5434  0.4681 -1.1255
 3715TIP3   OH232635   0.456   4.984  15.437 -0.1642  0.8586 -0.3154
 3715TIP3    H132636   0.475   5.067  15.393  1.1149  0.2307 -1.0055
 3715TIP3    H232637   0.362   4.971  15.423 -0.1096  1.5099 -1.4357
 3716TIP3   OH232638   1.225   4.151   0.124 -0.3993 -0.4512  0.5636
 3716TIP3    H132639   1.299   4.096   0.100  1.4833  2.1768 -0.0363
 3716TIP3    H232640   1.189   4.181   0.040  0.1212  1.0810  0.8596
 3717TIP3   OH232641   4.887   4.374  12.702 -0.2388  0.4637 -0.4169
 3717TIP3    H132642   4.874   4.288  12.741  1.9170  0.3983  0.2760
 3717TIP3    H232643   4.806   4.422  12.723 -0.3602 -0.5220  1.5873
 3718TIP3   OH232644   2.541   0.793   1.252 -0.2591 -0.2906  0.4608
 3718TIP3    H132645   2.539   0.879   1.294  0.6256  0.1231 -0.3205
 3718TIP3    H232646   2.617   0.795   1.195 -2.1083 -0.3626 -2.1863
 3719TIP3   OH232647   3.330   2.335  13.100 -0.0973  0.0101 -0.0303
 3719TIP3    H132648   3.332   2.386  13.019  0.0191  0.2588  0.1292
 3719TIP3    H232649   3.422   2.319  13.122 -0.1446 -1.2854 -0.7138
 3720TIP3   OH232650   0.009   0.301   6.097  0.4789 -0.1012  0.7187
 3720TIP3    H132651   0.062   0.225   6.122  1.8064  0.4625 -0.2461
 3720TIP3    H232652  -0.057   0.307   6.166  0.7704 -1.7003  1.1941
 3721TIP3   OH232653   0.617   6.478   3.474 -0.1807  0.2968  0.1526
 3721TIP3    H132654   0.560   6.403   3.494 -1.8427  1.1331 -1.1388
 3721TIP3    H232655   0.565   6.555   3.498  0.8780  1.0830  0.0170
 3722TIP3   OH232656   2.970   4.164   5.616 -0.2929  0.1155  0.0054
 3722TIP3    H132657   2.965   4.093   5.552 -1.3039 -0.7315  0.9851
 3722TIP3    H232658   2.953   4.243   5.565  1.1293 -0.2811 -1.1620
 3723TIP3   OH232659   0.115   1.573   3.481 -0.3175 -0.5340  0.2123
 3723TIP3    H132660   0.110   1.589   3.575  0.5282  0.5958  0.0996
 3723TIP3    H232661   0.047   1.508   3.463 -1.0426 -0.1553  1.4686
 3724TIP3   OH232662   2.099   3.455   3.170  0.2147  0.5610 -0.0850
 3724TIP3    H132663   2.067   3.366   3.160 -0.0760  0.4295  1.6522
 3724TIP3    H232664   2.194   3.447   3.168  0.3749 -0.4313  3.8053
 3725TIP3   OH232665   1.636   5.584   4.466 -0.1940  0.1334 -0.2460
 3725TIP3    H132666   1.722   5.547   4.449 -0.5686 -0.6161 -0.5374
 3725TIP3    H232667   1.597   5.597   4.379 -0.5332  0.0985 -0.1025
 3726TIP3   OH232668   3.210   1.449  16.971 -0.1386 -0.7066  0.3528
 3726TIP3    H132669   3.153   1.372  16.976 -0.2681 -0.6128  0.3477
 3726TIP3    H232670   3.253   1.441  16.886  1.1875 -1.6918  1.0962
 3727TIP3   OH232671   1.846   1.232   6.087 -0.7861  0.0596 -0.4979
 3727TIP3    H132672   1.772   1.172   6.098 -1.7769  1.6024  2.0457
 3727TIP3    H232673   1.923   1.178   6.103 -1.6891 -0.4513  2.7899
 3728TIP3   OH232674   4.844   6.090  12.673  0.1520  0.5541 -0.4716
 3728TIP3    H132675   4.786   6.069  12.600 -1.0566 -0.0321  0.6000
 3728TIP3    H232676   4.922   6.036  12.658 -0.9372 -1.1767 -0.2866
 3729TIP3   OH232677   6.182   5.172  16.816  0.0481  0.0110 -0.2052
 3729TIP3    H132678   6.187   5.262  16.846  0.1081 -0.1014  0.1254
 3729TIP3    H232679   6.274   5.145  16.805  0.0776 -0.4051  0.9012
 3730TIP3   OH232680   2.998   3.303  16.264 -0.0912 -0.2455  0.4156
 3730TIP3    H132681   2.961   3.324  16.178 -0.5058 -0.1200  0.6213
 3730TIP3    H232682   3.075   3.358  16.271 -0.7375  0.6628  0.6273
 3731TIP3   OH232683   4.035   1.629  17.041 -0.1017 -0.1392  0.4235
 3731TIP3    H132684   3.974   1.677  17.096 -0.4317  0.3263 -0.3318
 3731TIP3    H232685   4.015   1.537  17.058 -1.5578  0.0070 -0.3911
 3732TIP3   OH232686   4.921   6.359   6.650  0.1620 -0.7734  0.8304
 3732TIP3    H132687   4.980   6.356   6.726  0.9920 -0.3430  0.2171
 3732TIP3    H232688   4.862   6.431   6.669  0.9617 -0.0541  0.6639
 3733TIP3   OH232689   5.550   1.283   5.587  0.1889  0.0686  0.0485
 3733TIP3    H132690   5.500   1.259   5.665  0.6728  0.2025  0.4061
 3733TIP3    H232691   5.629   1.324   5.621 -0.0633  1.0771 -0.5283
 3734TIP3   OH232692   3.037   0.871   3.578  0.0608  0.3083 -0.2799
 3734TIP3    H132693   2.983   0.930   3.629 -0.2460  1.5573 -1.9447
 3734TIP3    H232694   2.976   0.830   3.516  0.6465 -0.0638 -0.6214
 3735TIP3   OH232695   3.834   5.022   3.104  0.1596  0.0435  0.0762
 3735TIP3    H132696   3.923   4.989   3.088  0.8439  1.2570  1.2095
 3735TIP3    H232697   3.807   4.980   3.185 -0.2935 -0.2760 -0.2354
 3736TIP3   OH232698   5.145   2.053  15.586  0.0109  0.2376 -0.1625
 3736TIP3    H132699   5.078   2.090  15.644  0.2955  0.0141  0.3113
 3736TIP3    H232700   5.102   2.048  15.501 -0.7928 -0.4764  0.2621
 3737TIP3   OH232701   1.877   2.466   6.105  0.3273  0.1546 -0.3860
 3737TIP3    H132702   1.928   2.402   6.054 -0.8989 -0.8191 -0.4471
 3737TIP3    H232703   1.804   2.490   6.047 -1.1803 -1.0765  0.8930
 3738TIP3   OH232704   5.853   2.137   3.650 -0.1268  0.0253 -0.2977
 3738TIP3    H132705   5.827   2.156   3.560  0.9808  0.2017 -0.5877
 3738TIP3    H232706   5.891   2.218   3.682  1.7843 -0.7345 -0.5160
 3739TIP3   OH232707   5.766   2.934   0.293  0.2538 -0.2666  0.5682
 3739TIP3    H132708   5.750   2.865   0.229  0.3937 -1.0001  1.3021
 3739TIP3    H232709   5.815   2.891   0.363 -0.9377  0.1910  1.7382
 3740TIP3   OH232710   3.627   2.121   1.722  0.2322  0.3845 -0.1602
 3740TIP3    H132711   3.720   2.131   1.740  0.0527  0.6973  0.6428
 3740TIP3    H232712   3.592   2.210   1.727  0.2858  0.6646 -2.9628
 3741TIP3   OH232713   5.990   4.445  10.409  0.1322  0.5258 -0.1812
 3741TIP3    H132714   5.941   4.506  10.464 -0.3589  0.4836 -0.5650
 3741TIP3    H232715   6.072   4.491  10.389  0.6824  0.2031  1.2681
 3742TIP3   OH232716   2.943   2.486   5.604  0.1048  0.4155  0.3607
 3742TIP3    H132717   3.029   2.448   5.588 -1.1536 -2.4638 -0.2317
 3742TIP3    H232718   2.911   2.511   5.517  0.3716  1.5750  0.5892
 3743TIP3   OH232719   0.326   1.015   0.492 -0.1090 -0.1628 -0.1785
 3743TIP3    H132720   0.415   1.015   0.527 -0.0265 -0.4797 -0.3875
 3743TIP3    H232721   0.283   1.087   0.538  0.1902 -0.1471  0.0840
 3744TIP3   OH232722   5.463   3.223  13.389 -0.0061  0.4246  0.5446
 3744TIP3    H132723   5.512   3.158  13.439  0.3756  0.5513  0.3392
 3744TIP3    H232724   5.481   3.202  13.298  0.3548  0.9923  0.4807
 3745TIP3   OH232725   5.990   0.560   3.904  0.3765  0.3903  0.4664
 3745TIP3    H132726   5.921   0.615   3.940 -0.6047  0.3845 -1.3110
 3745TIP3    H232727   5.945   0.500   3.845  1.8198 -0.0645 -0.2186
 3746TIP3   OH232728   5.941   0.203   5.452 -0.4695 -1.0676 -0.2186
 3746TIP3    H132729   5.867   0.183   5.510 -1.0833  0.6272 -0.3792
 3746TIP3    H232730   5.905   0.196   5.364 -0.8473  1.1297 -0.2738
 3747TIP3   OH232731   1.149   5.438   1.125  0.2284 -0.5376  0.1767
 3747TIP3    H132732   1.224   5.471   1.075 -0.8509 -0.6371 -1.5817
 3747TIP3    H232733   1.188   5.380   1.191  1.8174  0.8338  0.5048
 3748TIP3   OH232734   6.139   0.870  15.355  0.0832  0.8086 -0.2742
 3748TIP3    H132735   6.158   0.882  15.262  0.3354  0.1198 -0.3164
 3748TIP3    H232736   6.056   0.822  15.356  0.4044  0.2477 -0.1590
 3749TIP3   OH232737   4.377   4.275   1.906  0.1187  0.5177  0.8081
 3749TIP3    H132738   4.468   4.298   1.892 -0.1968  1.1227 -0.3712
 3749TIP3    H232739   4.351   4.324   1.984  0.6449  0.7427  0.8423
 3750TIP3   OH232740   5.347   5.062   6.560  0.5925 -0.1477 -0.0562
 3750TIP3    H132741   5.313   5.024   6.478  1.2235 -1.7390  0.3815
 3750TIP3    H232742   5.269   5.073   6.615  0.5366 -2.4984  0.4378
 3751TIP3   OH232743   3.557   5.828  13.577 -0.2462 -0.7389  0.2104
 3751TIP3    H132744   3.597   5.820  13.664 -1.6736  1.8297  1.2164
 3751TIP3    H232745   3.481   5.769  13.580  0.3511 -1.5179  0.2658
 3752TIP3   OH232746   1.335   5.888  14.348 -0.4165 -0.0770 -0.3321
 3752TIP3    H132747   1.364   5.829  14.278  1.4826  0.0710  0.2711
 3752TIP3    H232748   1.268   5.943  14.307  0.5133 -0.1123 -1.9897
 3753TIP3   OH232749   0.606   0.470   3.521  0.2628 -0.2061  0.1654
 3753TIP3    H132750   0.557   0.415   3.582 -0.4444  1.0276  0.7536
 3753TIP3    H232751   0.553   0.549   3.513  0.7586  0.0059 -1.4149
 3754TIP3   OH232752   2.967   6.172   3.063 -0.9020 -0.2585  0.2098
 3754TIP3    H132753   2.950   6.115   2.988 -0.1207  1.0958 -1.0246
 3754TIP3    H232754   3.047   6.219   3.040 -1.8229  1.7528  0.9465
 3755TIP3   OH232755   0.850   5.134  11.492 -0.0497  0.1013 -0.3285
 3755TIP3    H132756   0.799   5.112  11.415 -1.3970  2.1830 -0.1033
 3755TIP3    H232757   0.797   5.199  11.539  1.5276  0.2215  1.4215
 3756TIP3   OH232758   1.279   4.126  12.642  0.2393  0.6843 -0.0239
 3756TIP3    H132759   1.355   4.150  12.694  0.6318  0.2379 -0.3865
 3756TIP3    H232760   1.227   4.070  12.699 -0.4370  1.9679  0.6573
 3757TIP3   OH232761   4.592   5.889   1.118  0.2240  0.0866  0.2682
 3757TIP3    H132762   4.569   5.882   1.026 -0.1268  1.7630  0.1852
 3757TIP3    H232763   4.667   5.830   1.129  0.3633 -0.0300 -1.1164
 3758TIP3   OH232764   2.068   2.588  11.472 -0.7931  0.2279  0.2748
 3758TIP3    H132765   1.987   2.618  11.431 -0.7352  0.0647  0.0388
 3758TIP3    H232766   2.043   2.506  11.515 -0.4874 -0.4674 -0.8177
 3759TIP3   OH232767   3.656   2.729   3.340  0.8332 -0.4822  0.0060
 3759TIP3    H132768   3.639   2.652   3.395  1.8580 -1.5365 -1.0874
 3759TIP3    H232769   3.732   2.770   3.379  0.0952  0.1855  0.7782
 3760TIP3   OH232770   0.344   6.130   0.185 -0.7233 -0.6978 -0.1166
 3760TIP3    H132771   0.280   6.091   0.125 -1.0731 -0.0514 -0.1735
 3760TIP3    H232772   0.338   6.224   0.168  0.3787 -0.6445 -0.2461
 3761TIP3   OH232773   5.034   0.793  10.936 -0.1812  0.2342 -0.3778
 3761TIP3    H132774   5.046   0.702  10.910 -3.1269 -0.1206 -0.8390
 3761TIP3    H232775   5.016   0.839  10.853 -0.6506  0.8493  0.0552
 3762TIP3   OH232776   3.501   0.212   0.509 -0.1817 -0.0320  0.2541
 3762TIP3    H132777   3.442   0.165   0.450  0.3051  0.8031 -0.9386
 3762TIP3    H232778   3.589   0.193   0.476  0.1844 -0.4928  1.4341
 3763TIP3   OH232779   1.869   2.454   4.850 -0.2092 -0.5672 -0.1294
 3763TIP3    H132780   1.873   2.360   4.866  0.3195 -0.9252 -2.0208
 3763TIP3    H232781   1.913   2.466   4.766 -0.2860  1.3769  0.0480
 3764TIP3   OH232782   5.824   2.184  14.984  0.5309  0.4112 -0.0955
 3764TIP3    H132783   5.775   2.262  15.012  1.4012  1.2245 -0.7648
 3764TIP3    H232784   5.886   2.217  14.919  0.2574 -1.0079 -1.1274
 3765TIP3   OH232785   3.447   6.453  12.718 -0.4744 -0.4213 -0.4050
 3765TIP3    H132786   3.409   6.365  12.720  0.0908 -0.6768 -0.4380
 3765TIP3    H232787   3.441   6.480  12.626  0.1805 -0.8103 -0.5695
 3766TIP3   OH232788   1.375   0.427   5.279 -0.3665 -0.0613  0.3343
 3766TIP3    H132789   1.447   0.461   5.226  0.0286 -1.0139  0.2321
 3766TIP3    H232790   1.408   0.428   5.369 -0.9803  1.4079  0.5654
 3767TIP3   OH232791   1.141   1.963  16.794  0.1273  0.1147 -0.8924
 3767TIP3    H132792   1.092   1.897  16.746  0.7957 -0.1938 -1.1571
 3767TIP3    H232793   1.217   1.917  16.830  0.7843  0.8016 -1.3708
 3768TIP3   OH232794   4.716   3.255   0.841 -0.3727  0.4976  0.3257
 3768TIP3    H132795   4.724   3.341   0.883 -1.4073 -0.0478  1.7356
 3768TIP3    H232796   4.629   3.225   0.865  0.0672 -1.0555  0.0738
 3769TIP3   OH232797   3.575   4.946   6.417 -0.3020 -0.1261  0.1527
 3769TIP3    H132798   3.558   5.035   6.386  1.9731  0.6920  1.0841
 3769TIP3    H232799   3.488   4.908   6.428 -1.3142  1.0849 -2.6276
 3770TIP3   OH232800   3.460   5.597   2.680 -0.2532  0.1495  0.2230
 3770TIP3    H132801   3.411   5.660   2.627  2.9582  1.6800 -1.1893
 3770TIP3    H232802   3.494   5.533   2.616  0.8381  0.0389  0.8781
 3771TIP3   OH232803   3.982   1.848  14.482  0.5145 -0.2146 -0.5640
 3771TIP3    H132804   4.068   1.888  14.498 -0.0589  0.4042  1.2059
 3771TIP3    H232805   3.924   1.891  14.545 -0.9644 -1.0826 -1.3008
 3772TIP3   OH232806   2.015   3.698  15.510  0.0940 -0.0867 -0.1161
 3772TIP3    H132807   2.019   3.610  15.472 -1.1232 -0.2068  0.0178
 3772TIP3    H232808   2.069   3.692  15.589 -0.2707 -0.8160  0.0902
 3773TIP3   OH232809   1.996   0.936  13.787 -0.2081 -0.8391  0.3044
 3773TIP3    H132810   1.990   0.932  13.691 -2.0288  1.4566  0.2308
 3773TIP3    H232811   1.960   0.853  13.817 -1.4826 -0.7967 -1.0162
 3774TIP3   OH232812   2.770   4.295   2.714 -0.1891 -0.4674 -0.1870
 3774TIP3    H132813   2.828   4.221   2.733 -0.1645 -0.2909  0.4469
 3774TIP3    H232814   2.686   4.254   2.692  0.1808 -0.7222 -1.1466
 3775TIP3   OH232815   0.316   0.670  16.203  0.4542 -0.2741  0.0249
 3775TIP3    H132816   0.308   0.576  16.187  0.4067 -0.0769 -1.2766
 3775TIP3    H232817   0.403   0.693  16.170  1.0876 -0.1012  1.7319
 3776TIP3   OH232818   3.770   3.023   0.151 -0.0119  0.0988 -0.5876
 3776TIP3    H132819   3.727   3.008   0.067 -1.8112 -0.8245  0.4277
 3776TIP3    H232820   3.704   3.000   0.216  1.2275  1.0555  1.0999
 3777TIP3   OH232821   3.460   0.215  13.819  0.4632  0.3660 -0.0681
 3777TIP3    H132822   3.538   0.166  13.844 -1.2483 -2.7616 -0.4156
 3777TIP3    H232823   3.400   0.204  13.893 -0.2689  1.3319 -0.4940
 3778TIP3   OH232824   5.931   6.268   6.615 -0.6499 -0.0064 -0.0656
 3778TIP3    H132825   5.904   6.326   6.544 -1.6040 -0.4587 -0.0832
 3778TIP3    H232826   5.849   6.242   6.658 -0.0667  0.8224  1.6650
 3779TIP3   OH232827   0.882   0.408   2.562 -0.0078  0.1958  0.4097
 3779TIP3    H132828   0.863   0.322   2.599  0.2091  0.8960  2.2742
 3779TIP3    H232829   0.974   0.424   2.584 -0.5757  1.7045  1.8805
 3780TIP3   OH232830   4.043   3.142  16.236 -0.0204  0.6154  0.2448
 3780TIP3    H132831   3.961   3.094  16.222  1.0532 -1.1693 -0.3543
 3780TIP3    H232832   4.097   3.081  16.286  0.6719  2.0817  1.3394
 3781TIP3   OH232833   6.010   6.478  14.636 -0.2816  0.2331 -0.1307
 3781TIP3    H132834   5.927   6.514  14.606 -0.1045 -0.6182 -1.7767
 3781TIP3    H232835   6.024   6.401  14.581  0.6908 -0.7480  1.3922
 3782TIP3   OH232836   1.428   3.999  14.373  0.0035  0.3831  0.2974
 3782TIP3    H132837   1.472   3.926  14.416  0.7719  0.9250  0.4609
 3782TIP3    H232838   1.500   4.058  14.348 -0.5577  0.7917 -0.3631
 3783TIP3   OH232839   0.300   3.550  14.707  0.4243  0.4270  0.0560
 3783TIP3    H132840   0.352   3.481  14.749 -0.7882 -0.8084 -0.3750
 3783TIP3    H232841   0.210   3.533  14.736 -0.3718 -0.0916 -2.4356
 3784TIP3   OH232842   1.791   4.680  14.615 -0.0607 -0.1676  0.1352
 3784TIP3    H132843   1.854   4.718  14.676 -0.2286 -0.2529  0.3627
 3784TIP3    H232844   1.842   4.663  14.536 -0.3809  2.2717 -0.6737
 3785TIP3   OH232845   6.573   1.631   2.336 -0.7045  0.9051  0.2353
 3785TIP3    H132846   6.533   1.693   2.274  0.4093  2.2082  0.7601
 3785TIP3    H232847   6.499   1.587   2.377 -1.5040 -0.2596 -2.2084
 3786TIP3   OH232848   6.108   2.902   5.103  0.2012  0.0617  0.4155
 3786TIP3    H132849   6.091   2.828   5.044  1.2990  0.9627 -1.0980
 3786TIP3    H232850   6.177   2.871   5.162 -1.4468 -1.1197  1.8450
 3787TIP3   OH232851   3.894   6.188  11.595  0.5849 -0.4311 -0.0710
 3787TIP3    H132852   3.926   6.225  11.513  1.3579  0.2189  0.5078
 3787TIP3    H232853   3.817   6.240  11.617 -0.4347 -1.4528 -1.0283
 3788TIP3   OH232854   3.939   5.648   2.058  0.8444 -0.5581 -0.0110
 3788TIP3    H132855   4.025   5.651   2.101  0.5377 -1.8071  0.7304
 3788TIP3    H232856   3.881   5.609   2.123 -0.2098 -0.0801 -0.6481
 3789TIP3   OH232857   3.382   5.652   3.222  0.2212 -0.0987 -0.1605
 3789TIP3    H132858   3.294   5.654   3.184  0.4956  0.7119 -0.7842
 3789TIP3    H232859   3.411   5.562   3.211 -0.2433 -0.1964 -0.6184
 3790TIP3   OH232860   2.777   4.956   6.559  0.3825  0.6416 -0.0874
 3790TIP3    H132861   2.757   5.015   6.632  1.6737  1.1614 -0.1254
 3790TIP3    H232862   2.774   4.868   6.597  1.6793  0.9467  0.7562
 3791TIP3   OH232863   0.621   2.074  16.137  0.8895 -0.6550 -0.2298
 3791TIP3    H132864   0.701   2.055  16.087  0.6553  0.9749 -1.2779
 3791TIP3    H232865   0.563   2.000  16.117  2.0575 -1.7942  0.4414
 3792TIP3   OH232866   0.428   2.834  10.707 -0.0706  0.3082  0.2354
 3792TIP3    H132867   0.518   2.823  10.739  1.0142  3.3906 -1.3543
 3792TIP3    H232868   0.434   2.813  10.613 -0.9140  0.8844  0.0440
 3793TIP3   OH232869   0.806   2.903   4.391 -0.2817 -0.2408  0.6393
 3793TIP3    H132870   0.855   2.970   4.439  0.8073 -0.7072  0.2132
 3793TIP3    H232871   0.748   2.864   4.457  0.6100 -0.3208  1.4077
 3794TIP3   OH232872   6.704   3.444  11.600 -0.2907  0.1283  0.7687
 3794TIP3    H132873   6.787   3.492  11.605  0.0579  0.3109 -3.4470
 3794TIP3    H232874   6.637   3.512  11.590 -0.3107 -0.0812 -0.7529
 3795TIP3   OH232875   2.741   4.719  11.445 -0.2626 -0.0262  0.0430
 3795TIP3    H132876   2.745   4.809  11.476  0.0576 -0.2439  0.6386
 3795TIP3    H232877   2.796   4.719  11.367 -1.1597  0.5483 -0.6106
 3796TIP3   OH232878   4.815   4.009   1.392  0.3346 -0.1479 -0.1632
 3796TIP3    H132879   4.800   4.101   1.371 -0.5485  0.0437  1.1582
 3796TIP3    H232880   4.910   3.999   1.397  0.9759 -0.7763 -6.3326
 3797TIP3   OH232881   5.712   1.185   0.965 -0.6582  0.1537 -0.2562
 3797TIP3    H132882   5.647   1.246   0.999 -0.4006  0.9690 -1.1809
 3797TIP3    H232883   5.779   1.240   0.925 -0.7287 -0.7396 -1.6936
 3798TIP3   OH232884   3.244   1.749  11.902 -0.1353 -0.2556 -0.0024
 3798TIP3    H132885   3.191   1.789  11.832  0.0873 -0.1708 -0.1224
 3798TIP3    H232886   3.184   1.686  11.943 -0.9957  1.2652  1.1853
 3799TIP3   OH232887   5.912   5.937  12.922 -0.3506 -0.0188  0.0162
 3799TIP3    H132888   5.953   5.851  12.912  1.7680  0.9464 -0.2200
 3799TIP3    H232889   5.977   5.998  12.888 -1.1605  1.7997  1.5561
 3800TIP3   OH232890   4.830   6.122   6.221  0.2994  0.2984 -0.2416
 3800TIP3    H132891   4.790   6.045   6.261  1.5356  0.1747  0.8439
 3800TIP3    H232892   4.763   6.191   6.227 -0.1740 -0.2133  0.4305
 3801TIP3   OH232893   0.501   4.196  13.352  0.0336  0.9092  0.2805
 3801TIP3    H132894   0.508   4.236  13.265 -1.2952 -0.8555 -0.7214
 3801TIP3    H232895   0.409   4.210  13.377 -0.5398 -1.5021 -0.1946
 3802TIP3   OH232896   2.891   3.156  15.807  0.3093  0.1526  0.3048
 3802TIP3    H132897   2.884   3.212  15.729  0.0519 -1.3576 -0.8106
 3802TIP3    H232898   2.981   3.166  15.836  0.2222  1.2694  0.2502
 3803TIP3   OH232899   2.666   3.951  16.216  0.6838 -0.3487  0.2358
 3803TIP3    H132900   2.629   3.965  16.303  0.9035  0.8489  0.1630
 3803TIP3    H232901   2.761   3.943  16.231  0.7992  0.5390  0.0635
 3804TIP3   OH232902   2.840   4.642  14.363  0.2999 -0.0748  0.5204
 3804TIP3    H132903   2.921   4.672  14.321  0.2030 -0.4526  0.0687
 3804TIP3    H232904   2.855   4.549  14.380  0.5249  0.1657  1.7572
 3805TIP3   OH232905   4.182   2.416   0.386  0.3402 -0.4377 -0.5016
 3805TIP3    H132906   4.107   2.393   0.331  1.2863 -0.9993 -1.6137
 3805TIP3    H232907   4.168   2.369   0.468 -0.8180 -0.0428 -0.4577
 3806TIP3   OH232908   6.514   5.141   1.386  0.2131 -0.1743 -0.1605
 3806TIP3    H132909   6.531   5.183   1.302 -0.1406 -0.5546 -0.4270
 3806TIP3    H232910   6.454   5.069   1.366 -0.3421  0.0855  0.4958
 3807TIP3   OH232911   3.918   5.963   0.377  0.3375 -0.5541 -0.3039
 3807TIP3    H132912   3.827   5.977   0.402  0.9547  0.7923  1.3578
 3807TIP3    H232913   3.930   6.017   0.299 -0.0518  0.0276  0.0310
 3808TIP3   OH232914   0.629   2.090   3.561 -1.2102  0.6436 -0.2115
 3808TIP3    H132915   0.630   2.158   3.629 -0.0809  0.1556  0.2869
 3808TIP3    H232916   0.609   2.009   3.608  0.3089  0.1802 -0.3073
 3809TIP3   OH232917   4.783   1.336   5.010  0.2880 -0.3060 -0.2339
 3809TIP3    H132918   4.771   1.384   4.928  2.3256 -2.3172 -1.8304
 3809TIP3    H232919   4.843   1.390   5.061  0.8089 -0.1000 -1.0557
 3810TIP3   OH232920   0.775   0.102   1.258 -0.0972 -0.1587 -0.5702
 3810TIP3    H132921   0.854   0.052   1.235 -0.3314 -0.4188 -0.8251
 3810TIP3    H232922   0.703   0.047   1.227 -0.4149 -0.3938  0.5641
 3811TIP3   OH232923   3.791   4.615  12.426 -0.2475 -0.2605  0.3352
 3811TIP3    H132924   3.787   4.638  12.518 -0.8461 -1.4002  0.6253
 3811TIP3    H232925   3.879   4.638  12.398  0.8281 -2.2081  1.8683
 3812TIP3   OH232926   0.116   4.169  15.352 -0.4827  0.4750 -0.0768
 3812TIP3    H132927   0.095   4.148  15.261 -1.6829 -0.4513  0.3945
 3812TIP3    H232928   0.031   4.179  15.395  0.0656  0.2374  1.0988
 3813TIP3   OH232929   0.937   5.997   3.200  0.0678  0.4950  0.2973
 3813TIP3    H132930   1.022   5.953   3.201  0.1740  0.6374 -0.8021
 3813TIP3    H232931   0.939   6.055   3.276  0.9230  0.4169  0.3450
 3814TIP3   OH232932   6.001   4.378   4.670  0.4021 -0.7386  0.4189
 3814TIP3    H132933   5.987   4.421   4.755 -2.3059 -3.3544  1.4661
 3814TIP3    H232934   5.962   4.438   4.606 -2.2598 -0.9650  1.6817
 3815TIP3   OH232935   6.839   0.327  14.422  0.3376 -0.9983  0.0149
 3815TIP3    H132936   6.753   0.305  14.460 -0.3620  0.2700 -0.7845
 3815TIP3    H232937   6.819   0.361  14.335  1.4525  1.2851  0.5689
 3816TIP3   OH232938   4.264   5.093  16.080  1.0107  0.4432  0.7433
 3816TIP3    H132939   4.200   5.043  16.131  0.8307  0.5976  0.6679
 3816TIP3    H232940   4.331   5.119  16.143  0.8988  0.4515  0.8568
 3817TIP3   OH232941   4.855   4.304   1.371 -0.0310  0.5727 -0.2246
 3817TIP3    H132942   4.933   4.359   1.365  0.2369  0.3171  0.8350
 3817TIP3    H232943   4.795   4.341   1.306  0.1693  2.0868  0.4142
 3818TIP3   OH232944   1.328   4.451  16.900 -0.0440  0.4367 -0.5134
 3818TIP3    H132945   1.375   4.396  16.837  0.3434  0.7778 -0.5254
 3818TIP3    H232946   1.365   4.426  16.985  1.4906  1.9928 -0.6754
 3819TIP3   OH232947   4.809   6.604   5.833  0.9894 -0.2484 -0.0785
 3819TIP3    H132948   4.717   6.595   5.859  1.4346  0.4552  1.8444
 3819TIP3    H232949   4.808   6.672   5.765  0.2078  0.5418  0.7029
 3820TIP3   OH232950   6.259   2.266  10.790  0.3358  0.3505 -0.4110
 3820TIP3    H132951   6.206   2.242  10.714  0.4281  1.3233 -0.7991
 3820TIP3    H232952   6.251   2.361  10.795 -1.2982  0.1873  1.9758
 3821TIP3   OH232953   5.424   1.082   1.690 -0.2273  0.3702  0.0691
 3821TIP3    H132954   5.469   1.005   1.725 -1.7980 -0.2013  0.9298
 3821TIP3    H232955   5.370   1.113   1.762 -1.7205  0.6146 -1.1203
 3822TIP3   OH232956   3.340   6.649   5.392 -0.1141  0.7326 -0.1575
 3822TIP3    H132957   3.297   6.677   5.473 -1.3196 -0.9623 -0.1591
 3822TIP3    H232958   3.335   6.553   5.395  1.1129  0.5972 -1.5704
 3823TIP3   OH232959   3.563   1.473   4.346 -0.1729 -0.2316  0.2730
 3823TIP3    H132960   3.592   1.426   4.425 -1.8976 -3.3444 -0.7591
 3823TIP3    H232961   3.468   1.467   4.349 -0.2848  0.0798 -1.7525
 3824TIP3   OH232962   5.286   3.727   6.021 -0.7331  0.3343  0.1772
 3824TIP3    H132963   5.228   3.653   6.038  1.2552 -1.5136 -0.7324
 3824TIP3    H232964   5.314   3.756   6.108 -0.9886 -0.4449  0.5255
 3825TIP3   OH232965   0.551   4.634  11.027  0.5256 -0.1545 -0.5507
 3825TIP3    H132966   0.563   4.544  11.057 -0.3253 -0.5833 -1.4459
 3825TIP3    H232967   0.616   4.646  10.958  0.4989 -0.1530 -0.5759
 3826TIP3   OH232968   6.715   1.509  12.424 -0.1397  0.1751  0.0230
 3826TIP3    H132969   6.778   1.445  12.457  0.8773  0.4878 -1.2173
 3826TIP3    H232970   6.630   1.466  12.433  0.4144 -0.9377  0.1693
 3827TIP3   OH232971   3.666   5.928   0.453 -0.4693  0.3313  0.1434
 3827TIP3    H132972   3.660   5.917   0.548  1.2876  2.8838  0.6445
 3827TIP3    H232973   3.612   6.004   0.433 -0.9013 -0.2336 -0.9605
 3828TIP3   OH232974   4.982   0.508   6.337 -0.1704  0.1105 -0.0524
 3828TIP3    H132975   4.892   0.534   6.358  0.0173  0.8065 -0.0731
 3828TIP3    H232976   4.973   0.431   6.281 -0.7136 -0.9394  1.4122
 3829TIP3   OH232977   4.443   0.270  13.434  0.7173 -0.0931 -0.1186
 3829TIP3    H132978   4.449   0.264  13.529 -0.4454  0.1349 -0.0129
 3829TIP3    H232979   4.370   0.331  13.418  0.0425 -1.1218 -1.1416
 3830TIP3   OH232980   5.314   4.548   3.783  0.2462  0.5832  0.5174
 3830TIP3    H132981   5.355   4.558   3.869  0.5659 -2.5447  0.8555
 3830TIP3    H232982   5.382   4.574   3.721  0.2818  2.0997  1.1472
 3831TIP3   OH232983   5.470   3.407  14.720 -0.6492  0.5895  1.1119
 3831TIP3    H132984   5.473   3.497  14.687  0.7525  0.7091  1.4966
 3831TIP3    H232985   5.427   3.414  14.805  0.7381  1.1485  1.8027
 3832TIP3   OH232986   3.112   6.748   6.234  0.3210  0.5266  0.2660
 3832TIP3    H132987   3.167   6.825   6.249  0.4766  0.8199 -1.6130
 3832TIP3    H232988   3.022   6.781   6.238  0.3944  1.2131 -2.1713
 3833TIP3   OH232989   0.228   2.442   6.061 -0.5994 -0.2557  0.4290
 3833TIP3    H132990   0.243   2.515   6.001 -0.0589  0.4265  1.3632
 3833TIP3    H232991   0.137   2.451   6.088 -0.3310  0.5266  1.1083
 3834TIP3   OH232992   5.655   5.660   3.883 -0.8012 -0.8205 -0.2899
 3834TIP3    H132993   5.657   5.708   3.800 -1.6066 -0.5512 -0.1532
 3834TIP3    H232994   5.685   5.572   3.860  0.9797 -0.2143 -0.4925
 3835TIP3   OH232995   5.795   5.393  12.678 -0.8660  0.3392  0.6086
 3835TIP3    H132996   5.867   5.353  12.728 -0.5863  1.0848  0.8154
 3835TIP3    H232997   5.716   5.355  12.715 -0.5736 -0.8669  0.0505
 3836TIP3   OH232998   0.598   2.609   4.635  0.0006  0.1552 -0.8987
 3836TIP3    H132999   0.689   2.636   4.625 -0.2704  1.4140 -0.2175
 3836TIP3    H233000   0.603   2.519   4.665  1.0575  0.4236 -0.2125
 3837TIP3   OH233001   1.111   4.102  16.672  0.4846 -0.1631  0.0100
 3837TIP3    H133002   1.104   4.195  16.653 -3.8645 -0.2278  0.2484
 3837TIP3    H233003   1.067   4.059  16.598  1.0942 -1.9455  0.6216
 3838TIP3   OH233004   0.519   5.269   1.402 -0.1130  0.6461 -0.2178
 3838TIP3    H133005   0.524   5.182   1.361  0.0579 -0.4252  1.9414
 3838TIP3    H233006   0.603   5.278   1.448 -0.9608  0.9984  1.3228
 3839TIP3   OH233007   2.414   3.703  14.458  0.0530  0.1363 -0.3103
 3839TIP3    H133008   2.439   3.795  14.451  0.7908 -0.0521 -0.2997
 3839TIP3    H233009   2.353   3.700  14.531  1.3323  0.3869  0.8264
 3840TIP3   OH233010   5.227   1.556  11.061 -0.1429 -0.3256  0.0521
 3840TIP3    H133011   5.210   1.479  11.006 -2.2347 -0.1109  0.2950
 3840TIP3    H233012   5.308   1.535  11.106  0.2063 -1.6775 -1.1064
 3841TIP3   OH233013   3.289   5.035   3.903  1.2518  0.5491 -0.0841
 3841TIP3    H133014   3.234   5.013   3.978  2.3795 -0.2827  0.5260
 3841TIP3    H233015   3.329   4.952   3.877  0.2522  0.6470 -2.1659
 3842TIP3   OH233016   4.192   2.342  16.707 -0.0608 -0.2449 -0.4890
 3842TIP3    H133017   4.161   2.376  16.623 -1.2239 -0.9845 -0.3770
 3842TIP3    H233018   4.260   2.279  16.684  0.1816  0.1371 -0.8312
 3843TIP3   OH233019   6.725   4.528   2.453 -0.0132  0.2734  0.4504
 3843TIP3    H133020   6.754   4.601   2.399 -0.5626  1.2341  1.3953
 3843TIP3    H233021   6.804   4.477   2.470  0.6345  1.3805  0.8493
 3844TIP3   OH233022   6.415   2.865  13.726 -0.1092  0.2859  0.3725
 3844TIP3    H133023   6.402   2.790  13.783  2.1259 -0.0703  0.4841
 3844TIP3    H233024   6.329   2.881  13.688 -0.6726 -2.2850  0.3936
 3845TIP3   OH233025   4.978   1.836  14.528  0.1742  0.3175 -0.0224
 3845TIP3    H133026   4.926   1.893  14.584 -0.9680  0.6760 -1.4018
 3845TIP3    H233027   4.978   1.879  14.442 -1.2765 -2.0184 -1.2908
 3846TIP3   OH233028   6.830   5.186   1.451  0.0135  0.2941 -0.3776
 3846TIP3    H133029   6.740   5.188   1.419  0.0234  1.4481 -0.3551
 3846TIP3    H233030   6.821   5.191   1.546  0.0822 -0.5480 -0.3148
 3847TIP3   OH233031   3.286   3.396  16.317  1.0522  0.4196 -0.2894
 3847TIP3    H133032   3.362   3.398  16.258  0.8754  1.1700 -0.5031
 3847TIP3    H233033   3.279   3.305  16.343  1.6244  0.2196 -0.7997
 3848TIP3   OH233034   3.703   5.295  14.378  0.0764 -0.2599  0.1012
 3848TIP3    H133035   3.647   5.267  14.451 -0.9399 -0.3396 -0.6732
 3848TIP3    H233036   3.773   5.346  14.418 -0.1179 -0.8245  1.1854
 3849TIP3   OH233037   3.257   0.382  10.589  0.0918  0.1288 -0.5797
 3849TIP3    H133038   3.278   0.464  10.633 -0.5344 -0.0669  0.0910
 3849TIP3    H233039   3.216   0.410  10.507 -2.1198  0.5330  0.5878
 3850TIP3   OH233040   3.745   2.860  10.956 -0.0407  0.7807 -0.1693
 3850TIP3    H133041   3.755   2.907  10.874 -1.4048  0.7398 -0.3939
 3850TIP3    H233042   3.785   2.775  10.941 -1.6674  0.1779 -1.3658
 3851TIP3   OH233043   5.263   1.166   1.139  0.2304  0.0835  0.1773
 3851TIP3    H133044   5.231   1.164   1.229  1.0844 -0.6663  0.4860
 3851TIP3    H233045   5.355   1.142   1.146  0.4248  0.4818 -0.8519
 3852TIP3   OH233046   3.812   2.614   3.925 -0.1866  1.0575 -0.9471
 3852TIP3    H133047   3.890   2.564   3.900  0.1867 -0.5138  2.7302
 3852TIP3    H233048   3.739   2.553   3.913 -0.0891  0.5460  0.7711
 3853TIP3   OH233049   3.678   5.997   4.394 -0.6013  0.4008 -0.0114
 3853TIP3    H133050   3.767   6.032   4.402 -0.5503  0.6190 -1.3473
 3853TIP3    H233051   3.689   5.903   4.405 -0.4119  0.5425  1.2028
 3854TIP3   OH233052   0.009   4.251   2.279 -0.7035  0.2984 -0.9078
 3854TIP3    H133053   0.020   4.277   2.371  0.4238 -1.0790 -0.6163
 3854TIP3    H233054  -0.009   4.333   2.233 -0.5867  1.1103  0.4327
 3855TIP3   OH233055   0.843   2.008   2.266 -0.2081  0.2483 -0.0749
 3855TIP3    H133056   0.778   2.013   2.335 -1.8311 -1.5865 -1.3670
 3855TIP3    H233057   0.807   2.061   2.195 -0.0598 -0.3830 -0.6305
 3856TIP3   OH233058   4.010   5.712  17.105 -0.1905  0.1601  0.0989
 3856TIP3    H133059   4.008   5.636  17.047  1.1189  0.5475 -0.4921
 3856TIP3    H233060   4.028   5.676  17.192  2.7946 -0.1008 -0.5254
 3857TIP3   OH233061   0.488   0.894  13.466 -0.0916  0.1392  0.1111
 3857TIP3    H133062   0.509   0.918  13.556  0.0894  1.6892 -0.3135
 3857TIP3    H233063   0.454   0.975  13.426 -1.4759 -0.8491 -0.8383
 3858TIP3   OH233064   1.122   5.746  13.352 -0.0542 -0.4535  0.8875
 3858TIP3    H133065   1.038   5.789  13.337  0.4904 -0.4474 -2.9264
 3858TIP3    H233066   1.100   5.653  13.360 -0.6192 -0.1989  3.1002
 3859TIP3   OH233067   0.111   1.827  10.532 -0.3762  0.0481 -0.1611
 3859TIP3    H133068   0.092   1.819  10.438 -1.7928 -0.7640  0.1706
 3859TIP3    H233069   0.075   1.748  10.571  0.6469  0.1381  1.0288
 3860TIP3   OH233070   3.530   1.182  15.670 -0.3197  0.5545 -0.3258
 3860TIP3    H133071   3.484   1.230  15.739  1.2997  1.3836  0.2404
 3860TIP3    H233072   3.473   1.190  15.594 -2.5246 -1.0292  1.0256
 3861TIP3   OH233073   0.757   4.462  14.076  0.4581 -0.2756 -0.1515
 3861TIP3    H133074   0.700   4.411  14.132 -1.8588  3.6067  1.4434
 3861TIP3    H233075   0.710   4.470  13.993 -0.2667  0.9977  0.3618
 3862TIP3   OH233076   1.553   1.653   6.535  0.3023  0.1107 -0.1671
 3862TIP3    H133077   1.490   1.672   6.605 -1.1157 -5.6151  0.6768
 3862TIP3    H233078   1.518   1.575   6.492  4.0491 -0.0299 -3.5562
 3863TIP3   OH233079   0.524   0.341   0.642  0.5704 -0.1143 -0.5732
 3863TIP3    H133080   0.443   0.345   0.591  1.9118  1.5022 -2.7531
 3863TIP3    H233081   0.496   0.350   0.733 -1.6538  1.1659 -1.3199
 3864TIP3   OH233082   3.385   2.574   2.047  0.8329 -0.0641 -0.5110
 3864TIP3    H133083   3.445   2.544   1.978  2.0352 -2.3542  1.3782
 3864TIP3    H233084   3.306   2.522   2.035  1.3817 -1.1323  0.3051
 3865TIP3   OH233085   5.254   5.382  17.040 -0.1530  0.5514  0.0243
 3865TIP3    H133086   5.321   5.360  17.105  1.7193  2.0225 -1.2978
 3865TIP3    H233087   5.288   5.348  16.957 -0.3640  2.4228 -0.8931
 3866TIP3   OH233088   4.079   1.216  12.492 -0.0295 -0.7031  0.4213
 3866TIP3    H133089   4.150   1.254  12.440 -0.7903 -0.3610 -0.3863
 3866TIP3    H233090   4.108   1.127  12.511  0.4675 -0.6801 -0.1936
 3867TIP3   OH233091   3.584   2.369   3.832 -0.7108 -0.4860  0.3339
 3867TIP3    H133092   3.501   2.325   3.814 -0.5137 -0.8534  0.3031
 3867TIP3    H233093   3.622   2.318   3.904 -0.4515 -0.4060  0.2554
 3868TIP3   OH233094   6.135   3.584  13.000  0.0110  0.1967  0.0026
 3868TIP3    H133095   6.120   3.655  13.062 -0.7613 -1.0789  1.3206
 3868TIP3    H233096   6.221   3.549  13.024  0.5116  0.8091 -0.8159
 3869TIP3   OH233097   4.072   2.852  17.101  0.0117  0.1989 -0.0641
 3869TIP3    H133098   4.008   2.911  17.060 -1.0736 -1.1885 -0.4299
 3869TIP3    H233099   4.031   2.766  17.097  0.9565 -0.3803  1.7090
 3870TIP3   OH233100   6.830   4.188  12.839 -0.1910  0.0653  0.1712
 3870TIP3    H133101   6.848   4.277  12.807 -1.5753  0.0653 -0.6927
 3870TIP3    H233102   6.832   4.196  12.934  0.4408  0.8566  0.1071
 3871TIP3   OH233103   3.228   3.892  16.336 -0.0686 -0.3943  0.2640
 3871TIP3    H133104   3.209   3.956  16.405  1.0078 -1.0196  1.1636
 3871TIP3    H233105   3.262   3.816  16.383  0.2969 -0.9873 -0.9414
 3872TIP3   OH233106   3.556   3.447  16.618  0.1958 -0.3050  0.2638
 3872TIP3    H133107   3.593   3.360  16.633 -1.2601 -1.0536 -0.3175
 3872TIP3    H233108   3.468   3.443  16.656 -0.8872  0.0289 -2.0460
 3873TIP3   OH233109   6.448   6.396  12.827  0.0402  0.0618 -0.0511
 3873TIP3    H133110   6.377   6.459  12.811 -0.3561 -0.3717 -0.0146
 3873TIP3    H233111   6.501   6.437  12.895 -1.4406 -0.5809  1.5962
 3874TIP3   OH233112   2.315   2.934   4.325  0.1344  0.5421 -0.1281
 3874TIP3    H133113   2.324   3.009   4.266 -1.1805  1.3260  0.6106
 3874TIP3    H233114   2.220   2.918   4.327  0.3984 -1.1937 -0.3188
 3875TIP3   OH233115   3.319   4.884  14.336 -0.9934 -0.5629  0.1325
 3875TIP3    H133116   3.375   4.909  14.263 -0.9317 -1.4938 -0.1494
 3875TIP3    H233117   3.357   4.928  14.412 -0.5474 -0.2894 -0.2460
 3876TIP3   OH233118   0.471   6.457   0.628  0.6042 -0.2020 -0.4498
 3876TIP3    H133119   0.380   6.483   0.641  1.0221  1.0737  0.0876
 3876TIP3    H233120   0.515   6.480   0.710  2.0111  2.0822 -1.7343
 3877TIP3   OH233121   0.418   1.145   2.113 -0.0388  0.0246  0.0911
 3877TIP3    H133122   0.326   1.127   2.097  0.0471 -0.7224  0.3623
 3877TIP3    H233123   0.464   1.074   2.068  0.4310  0.6590 -0.4493
 3878TIP3   OH233124   4.296   2.926  14.551  0.3764  0.0992 -0.3468
 3878TIP3    H133125   4.339   3.011  14.542  1.4065  0.0068  2.6194
 3878TIP3    H233126   4.344   2.868  14.492  1.8906  0.8490  0.1139
 3879TIP3   OH233127   3.919   3.019   4.500 -0.2802  0.2357 -0.1773
 3879TIP3    H133128   3.831   2.982   4.502 -0.3066  0.3155  0.4371
 3879TIP3    H233129   3.948   3.008   4.410 -0.1684 -1.5436  0.0570
 3880TIP3   OH233130   0.016   4.729   5.506 -0.2666 -0.6844 -0.1995
 3880TIP3    H133131   0.079   4.793   5.473 -0.3321 -0.8782 -0.7112
 3880TIP3    H233132   0.025   4.733   5.601 -1.7666  1.6152 -0.0690
 3881TIP3   OH233133   4.089   4.002  16.679  0.1917  0.3428  0.1673
 3881TIP3    H133134   4.032   3.953  16.619 -0.4419  1.8426 -0.5012
 3881TIP3    H233135   4.173   4.008  16.632  0.5098 -0.7002  0.5707
 3882TIP3   OH233136   1.097   1.298  14.608 -0.1713 -0.4550  0.1059
 3882TIP3    H133137   1.131   1.377  14.651 -2.2889  0.8257 -0.4415
 3882TIP3    H233138   1.018   1.276  14.656 -1.5152 -0.1390 -1.8642
 3883TIP3   OH233139   1.198   5.632  16.586 -0.2937 -0.2967  0.6080
 3883TIP3    H133140   1.192   5.622  16.681 -0.2303  0.2401  0.6759
 3883TIP3    H233141   1.168   5.722  16.569  0.3126 -0.1613  0.1905
 3884TIP3   OH233142   2.002   0.865  15.188  0.0336  0.0470  0.3656
 3884TIP3    H133143   2.006   0.878  15.094  0.7606  0.6991  0.4759
 3884TIP3    H233144   1.920   0.907  15.214  0.9088  1.9064  0.3034
 3885TIP3   OH233145   5.311   1.953  15.778  0.1535 -0.2036 -0.0514
 3885TIP3    H133146   5.261   1.970  15.699 -0.0086  0.0578  0.1032
 3885TIP3    H233147   5.306   1.858  15.790  0.5671 -0.2991 -0.6051
 3886TIP3   OH233148   2.661   2.204   4.318  0.8128 -0.2646  0.1117
 3886TIP3    H133149   2.684   2.179   4.229  1.4817  1.2985 -0.1885
 3886TIP3    H233150   2.722   2.274   4.340 -0.8354  0.9992  0.9121
 3887TIP3   OH233151   4.694   1.702   2.643 -0.0400 -0.1230 -0.3153
 3887TIP3    H133152   4.606   1.731   2.618  0.0592  2.5354  1.9208
 3887TIP3    H233153   4.681   1.655   2.725  0.4287 -1.8348 -1.1921
 3888TIP3   OH233154   1.117   5.531  12.554  0.0305 -0.2677  0.4253
 3888TIP3    H133155   1.191   5.556  12.609  0.6236 -1.5512  0.2413
 3888TIP3    H233156   1.120   5.436  12.551 -1.2250 -0.3119 -0.1571
 3889TIP3   OH233157   2.752   1.238   2.556  0.1878  0.1460  0.5229
 3889TIP3    H133158   2.735   1.150   2.591 -1.1417  0.1790  0.0135
 3889TIP3    H233159   2.687   1.294   2.598  0.5222  0.7410  0.2559
 3890TIP3   OH233160   2.348   2.395  15.855  0.3303  0.0905  0.0871
 3890TIP3    H133161   2.326   2.427  15.768  1.0390 -0.5763 -0.3603
 3890TIP3    H233162   2.388   2.470  15.899 -0.2869  0.5095 -0.0563
 3891TIP3   OH233163   5.665   6.762  15.359 -0.2398 -0.2915 -0.6420
 3891TIP3    H133164   5.693   6.775  15.268 -0.4297 -0.6409 -0.7522
 3891TIP3    H233165   5.631   6.673  15.361  2.4262 -1.3944  0.4238
 3892TIP3   OH233166   4.068   4.099  13.427  0.0203 -0.4413 -0.0025
 3892TIP3    H133167   4.159   4.115  13.402 -0.0028  0.5741  0.5091
 3892TIP3    H233168   4.018   4.167  13.380 -0.1603  0.6715  1.7058
 3893TIP3   OH233169   0.173   1.048  14.881 -0.4476 -0.3041 -0.3268
 3893TIP3    H133170   0.242   1.055  14.946 -1.5434 -0.6464  0.9119
 3893TIP3    H233171   0.199   0.973  14.827  0.3723 -0.1350 -0.1798
 3894TIP3   OH233172   5.981   6.507   1.622  0.3363  0.6066 -0.1360
 3894TIP3    H133173   6.068   6.473   1.638  1.2921  2.0763 -1.8149
 3894TIP3    H233174   5.984   6.541   1.533 -1.4920  2.0597  0.2806
 3895TIP3   OH233175   4.394   2.290   5.756 -0.0605  0.2322 -0.2945
 3895TIP3    H133176   4.415   2.203   5.721 -2.5372 -0.3200 -0.5711
 3895TIP3    H233177   4.404   2.280   5.851 -0.4245 -0.3979 -0.3138
 3896TIP3   OH233178   6.094   2.403  11.586  0.0724 -0.0846 -0.2115
 3896TIP3    H133179   6.167   2.437  11.638 -0.1199 -0.9205  0.6373
 3896TIP3    H233180   6.032   2.476  11.580  1.8031  1.3292 -2.6788
 3897TIP3   OH233181   6.674   1.047   2.461  0.1503 -0.3469  0.4272
 3897TIP3    H133182   6.710   1.132   2.437  3.5926 -1.9353 -0.5721
 3897TIP3    H233183   6.661   1.002   2.377  0.0943 -1.4433  1.0104
 3898TIP3   OH233184   5.162   3.729   5.129  0.1015  0.2239 -0.5507
 3898TIP3    H133185   5.107   3.661   5.167  0.1298  1.0403  1.0106
 3898TIP3    H233186   5.208   3.685   5.057  0.2129 -1.4382  0.4902
 3899TIP3   OH233187   2.755   6.050  13.803 -0.1992 -0.0068 -0.7692
 3899TIP3    H133188   2.713   6.127  13.765 -0.3127 -0.2081 -1.0513
 3899TIP3    H233189   2.683   6.002  13.846 -0.1460 -0.0090 -0.6825
 3900TIP3   OH233190   6.319   5.937   6.121  0.2192 -0.2404 -0.4993
 3900TIP3    H133191   6.409   5.907   6.134  0.4074  0.1641 -0.8596
 3900TIP3    H233192   6.292   5.968   6.208  0.9700  1.0833 -0.6981
 3901TIP3   OH233193   0.798   5.073  13.686  0.2330 -0.4265 -0.5230
 3901TIP3    H133194   0.827   5.053  13.596  4.2291 -2.1475  0.8909
 3901TIP3    H233195   0.852   5.149  13.711  2.2638 -2.4043  1.5677
 3902TIP3   OH233196   1.024   5.856  16.643  0.0464 -0.1472 -0.2506
 3902TIP3    H133197   1.001   5.885  16.731 -0.7473 -0.9262 -0.1856
 3902TIP3    H233198   0.955   5.793  16.620  1.5515 -1.7948 -0.4635
 3903TIP3   OH233199   6.805   6.439   1.199 -0.5069  0.0511 -0.6646
 3903TIP3    H133200   6.867   6.381   1.242  0.8208  1.7330 -0.2036
 3903TIP3    H233201   6.734   6.382   1.170  0.8159 -1.7958 -0.3955
 3904TIP3   OH233202   4.327   0.643   5.690 -0.0676 -0.2665 -0.1593
 3904TIP3    H133203   4.308   0.735   5.705  0.3831 -0.1953  0.0086
 3904TIP3    H233204   4.404   0.644   5.633  1.1752 -0.5174  1.4408
 3905TIP3   OH233205   1.010   1.169   3.748  0.1780 -0.2504  0.3530
 3905TIP3    H133206   1.078   1.235   3.734  0.7317 -0.9336 -0.2657
 3905TIP3    H233207   0.967   1.195   3.829  1.1291  0.2304  0.7123
 3906TIP3   OH233208   4.899   2.450   5.025  0.0400 -0.1055 -0.0953
 3906TIP3    H133209   4.982   2.413   4.993  1.0505 -0.6910  2.9021
 3906TIP3    H233210   4.926   2.521   5.083 -1.6353  0.4730  0.0290
 3907TIP3   OH233211   5.057   1.468  10.386 -0.5734 -0.0635  0.3911
 3907TIP3    H133212   5.033   1.558  10.406 -2.5682 -0.4357 -0.0940
 3907TIP3    H233213   5.068   1.467  10.291 -1.7494 -0.5382  0.2347
 3908TIP3   OH233214   5.204   3.161  15.982 -0.2208 -0.0137 -0.1558
 3908TIP3    H133215   5.203   3.257  15.982 -0.2641 -0.0143 -0.1212
 3908TIP3    H233216   5.295   3.138  15.967 -0.6718  0.0584 -4.5189
 3909TIP3   OH233217   2.106   1.938   3.801  0.1554  0.0375 -0.0354
 3909TIP3    H133218   2.125   2.026   3.768  0.6687 -0.2269 -0.4544
 3909TIP3    H233219   2.164   1.881   3.751 -1.2297 -0.7220 -0.8412
 3910TIP3   OH233220   2.559   2.180  12.214 -0.4121  0.3181  0.4924
 3910TIP3    H133221   2.488   2.232  12.252 -0.4745 -0.0967  0.9603
 3910TIP3    H233222   2.601   2.139  12.290  0.7301  1.0561  0.2674
 3911TIP3   OH233223   6.773   2.155   1.937  0.1359 -0.1631  0.6510
 3911TIP3    H133224   6.763   2.179   2.029 -0.4486  1.5004  0.1777
 3911TIP3    H233225   6.703   2.092   1.921 -0.8073  0.7884  0.9373
 3912TIP3   OH233226   6.078   5.708   3.775 -0.2648 -0.1383  0.2812
 3912TIP3    H133227   6.093   5.657   3.695  1.2359  0.6238  0.0213
 3912TIP3    H233228   6.001   5.761   3.755 -1.3219 -1.6420  0.2391
 3913TIP3   OH233229   0.848   1.344  13.817 -0.0114  0.0081 -0.0522
 3913TIP3    H133230   0.757   1.313  13.819 -0.1562  0.3831 -0.5955
 3913TIP3    H233231   0.875   1.332  13.726 -0.2371  1.9217 -0.4114
 3914TIP3   OH233232   0.264   3.076   5.035  0.2349 -0.1024 -0.3168
 3914TIP3    H133233   0.354   3.099   5.013  1.3556 -2.5406  1.3029
 3914TIP3    H233234   0.259   2.981   5.024 -2.5567  0.0854 -1.5747
 3915TIP3   OH233235   3.912   5.959   2.537  0.5079 -0.2505  0.1322
 3915TIP3    H133236   3.946   5.925   2.455  1.5753  2.6745 -0.7794
 3915TIP3    H233237   3.987   5.958   2.597  1.2322  2.3249 -0.5976
 3916TIP3   OH233238   6.549   6.729  15.393  0.0549  0.0294  0.4431
 3916TIP3    H133239   6.535   6.819  15.364  0.2821 -0.2348 -0.5376
 3916TIP3    H233240   6.462   6.689  15.389  0.2338 -0.2910 -0.9595
 3917TIP3   OH233241   3.458   6.017   2.805  0.4221  0.2420  0.0695
 3917TIP3    H133242   3.473   5.931   2.846  1.1424  0.4730  0.3144
 3917TIP3    H233243   3.474   6.079   2.876 -2.0084  0.5351  0.4305
 3918TIP3   OH233244   3.757   1.999  16.014  0.0063  0.2242 -0.3375
 3918TIP3    H133245   3.851   2.000  15.996  0.4566  1.6339  1.7107
 3918TIP3    H233246   3.739   1.908  16.041  1.0746  0.2370  0.4974
 3919TIP3   OH233247   2.645   6.290  14.574 -0.1968 -0.5210  0.2345
 3919TIP3    H133248   2.653   6.367  14.631  0.4766 -2.2115  2.5643
 3919TIP3    H233249   2.552   6.270  14.574 -0.3109 -0.0126  0.0133
 3920TIP3   OH233250   1.402   6.738   0.797 -0.1825 -0.4565 -0.6957
 3920TIP3    H133251   1.361   6.779   0.721 -0.1415  2.0945  0.5559
 3920TIP3    H233252   1.483   6.786   0.810 -0.9877  0.3448  1.9259
 3921TIP3   OH233253   3.741   1.682  14.722  0.2348 -0.7357 -0.8422
 3921TIP3    H133254   3.696   1.672  14.639 -0.5135  0.8723 -0.6834
 3921TIP3    H233255   3.809   1.747  14.705  0.9938 -1.4424 -0.5307
 3922TIP3   OH233256   0.866   5.911   4.365  0.1176  0.2492  0.4049
 3922TIP3    H133257   0.873   6.001   4.334 -1.8587  0.0305 -0.8677
 3922TIP3    H233258   0.899   5.857   4.293 -2.8177 -0.1747 -0.7787
 3923TIP3   OH233259   5.810   4.612  15.407  0.2834 -0.6085 -0.5593
 3923TIP3    H133260   5.829   4.533  15.456  0.2667 -0.8891 -1.0006
 3923TIP3    H233261   5.715   4.611  15.396  0.1674 -0.0354  0.2505
 3924TIP3   OH233262   0.463   0.132   5.400 -0.1913 -1.1330 -0.1878
 3924TIP3    H133263   0.409   0.209   5.418 -1.7594 -2.1745 -0.2948
 3924TIP3    H233264   0.550   0.156   5.433 -1.1203 -0.0797  1.6742
 3925TIP3   OH233265   1.296   4.213  16.393  0.3401 -0.5705 -0.2634
 3925TIP3    H133266   1.338   4.140  16.439  2.2489 -0.2980 -1.4717
 3925TIP3    H233267   1.339   4.291  16.429  0.2587 -0.2202 -0.9158
 3926TIP3   OH233268   0.262   6.248  15.319 -0.1331 -0.4153  0.3714
 3926TIP3    H133269   0.317   6.234  15.396  0.5659  0.5554  0.0665
 3926TIP3    H233270   0.310   6.313  15.267  0.1542 -2.1082 -1.6170
 3927TIP3   OH233271   0.800   2.267   0.585 -0.5133  0.5251 -0.0695
 3927TIP3    H133272   0.768   2.356   0.567  0.0398  0.6189 -0.6319
 3927TIP3    H233273   0.895   2.275   0.581 -0.4371  0.1025  0.8686
 3928TIP3   OH233274   1.195   5.936   3.087 -0.0545 -0.1938 -0.0593
 3928TIP3    H133275   1.269   5.958   3.142  0.3953 -0.7133 -0.4457
 3928TIP3    H233276   1.220   5.964   2.999 -0.9753  1.1006  0.0675
 3929TIP3   OH233277   1.399   2.104   0.295  0.0590  0.1014  0.9263
 3929TIP3    H133278   1.337   2.041   0.260  0.9914 -1.6588  2.2796
 3929TIP3    H233279   1.391   2.180   0.237 -0.1648 -1.7143 -1.6274
 3930TIP3   OH233280   2.636   4.285  13.736  0.1962 -0.0404  0.2743
 3930TIP3    H133281   2.629   4.259  13.644 -0.7585  2.0190 -0.3027
 3930TIP3    H233282   2.686   4.215  13.777  0.1675 -1.2943 -1.6917
 3931TIP3   OH233283   0.287   0.695   4.759  0.1239  0.0752 -0.6151
 3931TIP3    H133284   0.205   0.683   4.807  0.0668  2.3080 -0.0404
 3931TIP3    H233285   0.350   0.722   4.826  0.9137 -0.0693 -1.2864
 3932TIP3   OH233286   0.592   4.970   4.837  0.0512  0.3052  0.0771
 3932TIP3    H133287   0.655   4.902   4.814 -0.0873  0.0630  0.4114
 3932TIP3    H233288   0.600   5.035   4.767 -0.3690 -0.4322 -0.6807
 3933TIP3   OH233289   1.788   4.250  16.060  0.4888  0.5265 -0.5027
 3933TIP3    H133290   1.749   4.324  16.106 -1.5747 -0.0853 -1.1903
 3933TIP3    H233291   1.768   4.174  16.114  1.8493  0.3137 -0.2454
 3934TIP3   OH233292   6.390   4.178  12.932  0.1360 -0.2949  0.1682
 3934TIP3    H133293   6.383   4.152  12.840  0.9892  0.5758 -0.1598
 3934TIP3    H233294   6.316   4.237  12.947 -1.2015 -1.9868  0.6319
 3935TIP3   OH233295   4.667   5.471  13.087  0.3794  0.4096 -0.3271
 3935TIP3    H133296   4.748   5.521  13.094  0.0389  0.8874  0.3499
 3935TIP3    H233297   4.663   5.419  13.168  0.2848 -0.0345 -0.6115
 3936TIP3   OH233298   2.582   0.473  11.763 -1.2940 -0.0286 -0.3506
 3936TIP3    H133299   2.616   0.562  11.758 -1.4809  0.0706  0.0575
 3936TIP3    H233300   2.503   0.473  11.709 -0.9477 -0.1170 -0.8627
 3937TIP3   OH233301   3.872   5.222   5.007  0.0521 -0.5475 -0.0968
 3937TIP3    H133302   3.859   5.260   5.094  0.5956  0.2141 -0.3409
 3937TIP3    H233303   3.788   5.234   4.963  1.0165  3.2531 -1.2528
 3938TIP3   OH233304   2.222   5.068   3.210 -0.2466  0.3973 -0.5342
 3938TIP3    H133305   2.176   5.098   3.289 -0.1429  1.5938 -0.9009
 3938TIP3    H233306   2.233   5.147   3.158  1.8907  0.1070 -0.6340
 3939TIP3   OH233307   3.016   3.852   4.904  0.0578 -0.5929  0.6191
 3939TIP3    H133308   3.059   3.938   4.895  0.1531 -0.5246  1.6589
 3939TIP3    H233309   3.053   3.800   4.833  0.1923  0.1417  0.1293
 3940TIP3   OH233310   2.852   3.577   2.879 -0.2359  0.3903  0.1897
 3940TIP3    H133311   2.814   3.543   2.960  0.6815 -0.3727  0.3131
 3940TIP3    H233312   2.870   3.499   2.826  2.1188  0.5955  0.5759
 3941TIP3   OH233313   6.302   1.628  13.682 -0.0047  0.3002  0.1363
 3941TIP3    H133314   6.331   1.656  13.595 -1.3779  0.4651 -0.2945
 3941TIP3    H233315   6.331   1.697  13.740 -0.6881  1.1220 -0.4758
 3942TIP3   OH233316   5.907   1.971  11.964 -0.1790  0.3504  0.1661
 3942TIP3    H133317   5.835   2.012  11.916  0.4878  0.9292 -0.3615
 3942TIP3    H233318   5.873   1.959  12.053 -0.8458  0.8272 -0.0168
 3943TIP3   OH233319   1.309   6.239  11.608 -0.2952  0.1726 -0.2412
 3943TIP3    H133320   1.281   6.226  11.698 -0.7333 -0.6499 -0.4885
 3943TIP3    H233321   1.280   6.328  11.587 -0.3348  0.3093  0.3751
 3944TIP3   OH233322   0.512   4.808   6.011 -0.1303 -0.0240  0.3679
 3944TIP3    H133323   0.531   4.797   6.104 -1.7081 -2.3329  0.5242
 3944TIP3    H233324   0.424   4.846   6.009 -0.4983 -0.8684 -0.1283
 3945TIP3   OH233325   1.229   0.839  15.542  0.9784  0.3725 -0.2072
 3945TIP3    H133326   1.207   0.918  15.493 -0.9991  0.3813  0.5704
 3945TIP3    H233327   1.213   0.863  15.633 -0.1529 -1.0196  0.0032
 3946TIP3   OH233328   2.107   6.392   2.090  0.2223 -0.1577 -0.5189
 3946TIP3    H133329   2.131   6.457   2.024 -0.9772  0.0479 -0.7680
 3946TIP3    H233330   2.172   6.404   2.159  0.0736  1.2640 -0.5902
 3947TIP3   OH233331   0.308   6.742   3.003 -0.3559  0.0282  0.9072
 3947TIP3    H133332   0.384   6.727   3.060  0.3681  0.8823  0.1928
 3947TIP3    H233333   0.322   6.683   2.929  0.0753  0.8086  0.3551
 3948TIP3   OH233334   3.061   4.411  13.852 -0.2147  0.1714  0.4970
 3948TIP3    H133335   3.001   4.457  13.793  0.0396  1.5928  1.3015
 3948TIP3    H233336   3.145   4.456  13.840 -0.1766  0.5378  1.9917
 3949TIP3   OH233337   3.639   0.205  11.185 -0.1414  0.1478  1.0754
 3949TIP3    H133338   3.643   0.218  11.090  0.8570 -0.9855  0.9443
 3949TIP3    H233339   3.574   0.136  11.197 -0.5398  0.5472  1.2585
 3950TIP3   OH233340   5.585   6.380  11.951  0.2350 -0.3603  0.1987
 3950TIP3    H133341   5.648   6.329  12.001 -0.1940 -1.6225 -0.4827
 3950TIP3    H233342   5.624   6.467  11.944  3.2155 -1.6842 -2.3633
 3951TIP3   OH233343   5.580   3.869  14.818  0.1469 -0.2203  0.5710
 3951TIP3    H133344   5.638   3.798  14.844  0.2801 -0.5228 -0.4983
 3951TIP3    H233345   5.564   3.854  14.725 -0.2673  0.8400  0.4567
 3952TIP3   OH233346   2.258   4.124  16.990  0.1460  0.0916 -1.0253
 3952TIP3    H133347   2.299   4.074  17.061  1.5303 -2.0263 -3.1282
 3952TIP3    H233348   2.307   4.206  16.988 -0.3650  0.4945  0.8226
 3953TIP3   OH233349   3.338   4.765  13.301 -0.1125 -0.2335 -0.0253
 3953TIP3    H133350   3.403   4.834  13.310  2.3883 -2.2698 -1.0728
 3953TIP3    H233351   3.304   4.752  13.390 -0.5717  2.1918  0.2043
 3954TIP3   OH233352   3.225   1.305   3.136 -0.3063  0.3856  0.0305
 3954TIP3    H133353   3.248   1.279   3.047  2.1913  0.1770  0.6524
 3954TIP3    H233354   3.207   1.222   3.181 -0.8419  0.4311 -0.1004
 3955TIP3   OH233355   0.477   4.090  16.772 -0.1195  0.0086 -0.2279
 3955TIP3    H133356   0.477   4.178  16.811 -0.9588 -0.5323  1.0492
 3955TIP3    H233357   0.562   4.054  16.796  0.4742  0.6708 -1.2680
 3956TIP3   OH233358   3.227   2.013  11.730  0.1233 -0.2199  0.1832
 3956TIP3    H133359   3.177   2.088  11.698  2.7727  1.1077 -1.1833
 3956TIP3    H233360   3.244   2.032  11.822  1.9394  1.6801 -0.4628
 3957TIP3   OH233361   0.719   5.093   4.606 -0.1474 -0.1970  0.0680
 3957TIP3    H133362   0.756   5.145   4.535 -1.7238  0.6976 -0.1402
 3957TIP3    H233363   0.713   5.004   4.570 -0.0845  0.0601 -0.5939
 3958TIP3   OH233364   1.233   0.737  14.926 -0.2304 -0.4201 -0.0347
 3958TIP3    H133365   1.282   0.819  14.935 -1.3927  0.1368  1.6339
 3958TIP3    H233366   1.290   0.671  14.967  0.2805 -0.2926 -0.5189
 3959TIP3   OH233367   6.495   0.961   1.099 -1.0114 -0.3480  0.8186
 3959TIP3    H133368   6.429   0.993   1.038 -0.0083  0.7192  0.2509
 3959TIP3    H233369   6.579   0.984   1.059 -0.1738 -3.4203  0.5301
 3960TIP3   OH233370   3.418   3.150   5.598 -0.5291  0.0984  0.0540
 3960TIP3    H133371   3.343   3.202   5.571 -0.7579 -0.0176  0.4608
 3960TIP3    H233372   3.388   3.059   5.591 -0.3558  0.0417  0.0183
 3961TIP3   OH233373   6.235   1.945  12.873 -0.8122  0.1610  0.0749
 3961TIP3    H133374   6.234   1.870  12.814 -1.1342  2.1154 -2.6658
 3961TIP3    H233375   6.142   1.964  12.889 -0.7444  0.1767  0.4493
 3962TIP3   OH233376   1.409   3.357  14.495  0.1770  0.3932 -0.2771
 3962TIP3    H133377   1.378   3.355  14.404 -0.4375 -0.9341 -0.0562
 3962TIP3    H233378   1.422   3.450  14.513 -0.5926  0.7495 -1.4254
 3963TIP3   OH233379   0.914   2.481  14.033  0.4453  0.2332  0.2129
 3963TIP3    H133380   0.847   2.528  14.082  1.0337  1.1291  0.1784
 3963TIP3    H233381   0.908   2.514  13.944 -0.8529 -1.6531 -0.4440
 3964TIP3   OH233382   2.343   3.206  16.315  0.1763  0.4149 -0.2056
 3964TIP3    H133383   2.302   3.170  16.393 -2.2110 -2.1633 -2.4392
 3964TIP3    H233384   2.284   3.276  16.287 -1.0219 -1.1016 -1.6178
 3965TIP3   OH233385   3.055   3.525  14.606  0.4180 -0.1393  0.4723
 3965TIP3    H133386   3.106   3.561  14.534 -0.2142  1.1398  0.6404
 3965TIP3    H233387   3.108   3.453  14.640  1.2469 -0.0073 -0.5216
 3966TIP3   OH233388   6.569   2.030   3.143 -0.5352 -0.2799 -0.1234
 3966TIP3    H133389   6.519   1.992   3.071 -1.6926 -0.3323  0.6850
 3966TIP3    H233390   6.510   2.028   3.218  0.2138  0.9062  0.5389
 3967TIP3   OH233391   0.701   2.119  12.005 -0.4348  0.1051 -0.2657
 3967TIP3    H133392   0.773   2.135  12.065 -0.8408 -1.7849  0.7788
 3967TIP3    H233393   0.622   2.121  12.059 -1.0897  0.8983 -1.1849
 3968TIP3   OH233394   1.174   4.423   2.911  0.1185 -0.3246 -0.3523
 3968TIP3    H133395   1.256   4.441   2.866  1.0192  0.0005  1.3524
 3968TIP3    H233396   1.185   4.335   2.947 -0.8859 -0.8888 -1.3568
 3969TIP3   OH233397   4.097   2.332   3.271 -0.1912 -0.4978  0.0522
 3969TIP3    H133398   4.019   2.321   3.325  0.6962 -0.7121  1.3228
 3969TIP3    H233399   4.083   2.415   3.224 -3.2907 -2.6802 -3.4274
 3970TIP3   OH233400   2.618   4.404   3.799 -0.1883 -0.0406  0.5399
 3970TIP3    H133401   2.670   4.382   3.722  0.3817  0.5980  0.7340
 3970TIP3    H233402   2.677   4.389   3.873 -0.5943 -0.2365  0.8293
 3971TIP3   OH233403   3.983   2.178   4.407  0.6195 -0.3743  0.0846
 3971TIP3    H133404   3.893   2.183   4.439  0.5361  0.4363 -0.2294
 3971TIP3    H233405   3.999   2.265   4.370  1.4646 -0.5777 -0.0398
 3972TIP3   OH233406   3.181   5.327  16.744  0.0287 -0.0615 -0.3833
 3972TIP3    H133407   3.102   5.338  16.692  0.7736 -1.8410 -2.0453
 3972TIP3    H233408   3.162   5.254  16.803  0.0040  0.3619  0.1392
 3973TIP3   OH233409   0.741   0.866  14.948 -0.4684  0.1151 -0.9328
 3973TIP3    H133410   0.828   0.840  14.918  0.0417  1.8675 -1.0591
 3973TIP3    H233411   0.682   0.805  14.904  0.6850 -1.1462 -0.7848
 3974TIP3   OH233412   2.308   0.836   4.690 -0.0469  1.0688  0.0473
 3974TIP3    H133413   2.341   0.806   4.606  2.1706  0.1624  1.1426
 3974TIP3    H233414   2.357   0.917   4.707  2.1297 -0.5043  1.8933
 3975TIP3   OH233415   0.492   3.655  16.245 -0.8066 -0.2386  0.3235
 3975TIP3    H133416   0.586   3.664  16.231 -0.9222 -0.3824 -0.6088
 3975TIP3    H233417   0.459   3.745  16.240 -0.8505 -0.2884 -0.4367
 3976TIP3   OH233418   4.886   1.000   0.683 -0.1522  0.4720 -0.5137
 3976TIP3    H133419   4.828   1.075   0.698 -0.7880 -0.1865  0.4901
 3976TIP3    H233420   4.973   1.037   0.674 -0.6284  1.4300 -1.2906
 3977TIP3   OH233421   6.096   1.149  11.367  0.2678 -0.9128 -0.0667
 3977TIP3    H133422   6.112   1.138  11.273 -4.3110  2.6457 -1.6348
 3977TIP3    H233423   6.018   1.096  11.384  0.2468 -0.4402  1.4345
 3978TIP3   OH233424   1.842   0.046   5.297 -0.0785 -0.4628  0.1792
 3978TIP3    H133425   1.907   0.106   5.333  0.3940 -0.6846 -0.2828
 3978TIP3    H233426   1.791   0.017   5.372 -1.7351  2.1467  0.2064
 3979TIP3   OH233427   1.803   1.373   4.350  0.6676 -0.0287  0.1967
 3979TIP3    H133428   1.750   1.314   4.295  0.9880  0.2171 -0.3866
 3979TIP3    H233429   1.774   1.355   4.439 -0.1153 -0.1879 -0.0821
 3980TIP3   OH233430   2.178   4.098   5.938  0.5231  0.4119  0.2899
 3980TIP3    H133431   2.205   4.149   6.014 -0.1514 -0.0224  0.8308
 3980TIP3    H233432   2.213   4.147   5.863 -0.4196  1.8991  0.7604
 3981TIP3   OH233433   2.316   4.103  12.263  0.4333  0.6075 -0.3799
 3981TIP3    H133434   2.389   4.111  12.203  1.4638 -1.8339  0.4165
 3981TIP3    H233435   2.354   4.064  12.342 -1.3271  1.3661  0.9191
 3982TIP3   OH233436   2.727   0.724  14.858  0.2952  0.5528  0.4089
 3982TIP3    H133437   2.638   0.752  14.836  0.1526  1.3237  1.8609
 3982TIP3    H233438   2.781   0.801  14.841  0.7751 -0.0191 -0.8040
 3983TIP3   OH233439   1.931   2.663  10.500  0.8013  0.1355 -0.1687
 3983TIP3    H133440   1.934   2.742  10.447 -0.5332 -1.4972 -2.8719
 3983TIP3    H233441   1.842   2.661  10.536  0.2468 -0.9260 -1.5166
 3984TIP3   OH233442   6.241   3.905   1.755 -0.3609 -0.4611  0.3411
 3984TIP3    H133443   6.201   3.818   1.749  0.3301 -0.7086 -1.1846
 3984TIP3    H233444   6.196   3.956   1.688 -1.4646  0.6995  1.8922
 3985TIP3   OH233445   5.022   3.121   1.167 -0.1613 -0.1302 -0.2555
 3985TIP3    H133446   5.096   3.072   1.204  0.8530  0.4762 -1.4368
 3985TIP3    H233447   4.980   3.162   1.243  0.0652 -1.3137  0.5441
 3986TIP3   OH233448   2.492   5.313  15.792  0.4868 -0.2680 -0.1260
 3986TIP3    H133449   2.542   5.334  15.871 -1.9010  1.5521  1.0413
 3986TIP3    H233450   2.439   5.237  15.817  0.0193  0.0624 -0.1079
 3987TIP3   OH233451   2.535   4.551   5.833 -0.4491  0.1339  0.4072
 3987TIP3    H133452   2.511   4.641   5.854  0.4191  0.7688 -1.2023
 3987TIP3    H233453   2.630   4.548   5.845 -0.4143 -0.4458  0.0124
 3988TIP3   OH233454   5.227   2.399  13.454  0.1918  0.1587  0.6416
 3988TIP3    H133455   5.167   2.324  13.456  2.1279 -1.5288 -0.5748
 3988TIP3    H233456   5.231   2.422  13.361  1.3715  0.2623  0.7118
 3989TIP3   OH233457   3.347   1.314   4.032 -0.0079 -0.0749 -0.5724
 3989TIP3    H133458   3.268   1.308   3.979 -1.1076  2.3394  0.6140
 3989TIP3    H233459   3.319   1.285   4.119  1.0587 -1.3687 -0.6190
 3990TIP3   OH233460   1.097   2.149   4.345  0.2526 -0.1964 -0.3919
 3990TIP3    H133461   1.187   2.153   4.378 -0.5942 -0.1963  2.1125
 3990TIP3    H233462   1.044   2.134   4.423 -2.0869  1.4971 -1.5707
 3991TIP3   OH233463   4.570   1.387   3.652 -0.0190 -0.0510 -0.4124
 3991TIP3    H133464   4.603   1.394   3.742  0.6935 -0.3058 -0.6451
 3991TIP3    H233465   4.529   1.471   3.634  0.3062  0.1886 -0.0367
 3992TIP3   OH233466   5.805   4.788   4.609  0.2260  0.7366 -0.5077
 3992TIP3    H133467   5.736   4.802   4.544 -0.5473 -1.4503 -0.2250
 3992TIP3    H233468   5.824   4.694   4.605 -0.9010  0.1849  3.3961
 3993TIP3   OH233469   5.514   0.328  12.600 -0.4152  0.1036 -0.4212
 3993TIP3    H133470   5.571   0.254  12.582  1.5108  1.6505 -1.0356
 3993TIP3    H233471   5.541   0.395  12.537 -2.8614  0.9676 -0.6618
 3994TIP3   OH233472   6.605   3.178  11.713  0.0820 -0.3440 -0.0600
 3994TIP3    H133473   6.608   3.259  11.765 -0.3370  0.3812 -1.1333
 3994TIP3    H233474   6.577   3.111  11.775 -1.5709  0.7236  0.4202
 3995TIP3   OH233475   5.835   3.239   2.290  0.3378  0.2117  0.2720
 3995TIP3    H133476   5.866   3.151   2.310 -0.1742  0.5348  2.8122
 3995TIP3    H233477   5.915   3.290   2.276  0.6341 -0.6281 -1.3110
 3996TIP3   OH233478   2.579   0.746   2.481 -0.2544 -0.4898  0.3041
 3996TIP3    H133479   2.565   0.810   2.551 -0.0075  0.7818 -0.7678
 3996TIP3    H233480   2.493   0.706   2.467  0.1651 -2.7212  3.0724
 3997TIP3   OH233481   2.403   0.113   0.844 -0.0864 -0.2238  0.2073
 3997TIP3    H133482   2.472   0.178   0.857  0.9511 -0.6171 -2.8099
 3997TIP3    H233483   2.344   0.152   0.780 -0.9590 -1.1909  0.3818
 3998TIP3   OH233484   2.097   2.220  15.861  0.0225 -0.0824  0.4290
 3998TIP3    H133485   2.108   2.126  15.846 -0.4336  0.1584 -1.6768
 3998TIP3    H233486   2.186   2.253  15.872  0.5074 -0.2831 -2.2556
 3999TIP3   OH233487   3.754   4.837  16.328  0.6402 -0.6108 -0.2376
 3999TIP3    H133488   3.814   4.791  16.386 -0.9939 -0.7441  1.4429
 3999TIP3    H233489   3.755   4.786  16.247  1.3841 -1.6763  0.4235
 4000TIP3   OH233490   5.694   5.800  11.328  0.0243  0.2621 -0.2744
 4000TIP3    H133491   5.745   5.857  11.271 -0.9106 -0.0309 -1.4537
 4000TIP3    H233492   5.758   5.745  11.372  1.1004  3.1572  2.0544
 4001TIP3   OH233493   6.840   6.387   4.961 -0.2629  0.0231  0.1671
 4001TIP3    H133494   6.841   6.292   4.946 -0.1720 -0.2764  1.8455
 4001TIP3    H233495   6.807   6.424   4.879 -0.8832 -1.4959 -0.3088
 4002TIP3   OH233496   5.262   2.395   5.193  0.5330  0.4807  0.1861
 4002TIP3    H133497   5.245   2.480   5.233  0.7178  1.0735 -0.9769
 4002TIP3    H233498   5.213   2.397   5.111 -1.3771 -1.4234  1.1540
 4003TIP3   OH233499   4.209   6.453  10.986  0.2911  0.9785  0.4195
 4003TIP3    H133500   4.242   6.373  10.944  2.3284  1.8004  0.3093
 4003TIP3    H233501   4.119   6.461  10.956  0.6134 -0.3105 -1.0097
 4004TIP3   OH233502   2.508   1.942   2.316 -0.3383 -0.3153  0.3811
 4004TIP3    H133503   2.557   2.019   2.347 -0.1907 -1.1740  2.4743
 4004TIP3    H233504   2.432   1.938   2.375 -0.4618 -1.6321  0.1598
 4005TIP3   OH233505   0.919   3.637   1.739 -0.0429 -0.0109  0.1218
 4005TIP3    H133506   0.960   3.558   1.775  0.1309 -0.0587 -0.1818
 4005TIP3    H233507   0.989   3.682   1.692  0.0445  0.7060  0.8983
 4006TIP3   OH233508   6.839   0.549   2.489  0.2963  0.6726 -0.4559
 4006TIP3    H133509   6.769   0.605   2.523  0.4058  0.9441 -0.6743
 4006TIP3    H233510   6.832   0.558   2.394  0.2192  0.1954 -0.4963
 4007TIP3   OH233511   6.729   5.363   3.789  0.6570  0.0062 -0.6890
 4007TIP3    H133512   6.657   5.300   3.798  0.6184  0.1798  0.3388
 4007TIP3    H233513   6.689   5.439   3.747  0.6962 -0.6205 -1.9050
 4008TIP3   OH233514   6.485   1.344  12.384 -0.1707  0.0682  0.3673
 4008TIP3    H133515   6.470   1.321  12.292  3.4767  1.8417 -0.8374
 4008TIP3    H233516   6.528   1.266  12.421 -3.0608 -1.2819  1.1764
 4009TIP3   OH233517   3.588   4.572  13.593 -0.4410  0.0187  0.0663
 4009TIP3    H133518   3.522   4.641  13.603 -1.2080 -0.7332  0.2597
 4009TIP3    H233519   3.597   4.561  13.498  0.1165  0.7866  0.0245
 4010TIP3   OH233520   1.089   5.864  13.018  0.7798 -0.0134 -0.1530
 4010TIP3    H133521   1.165   5.901  13.063 -0.1439 -0.4838  1.9552
 4010TIP3    H233522   1.014   5.895  13.069 -0.3039 -1.0602 -1.0467
 4011TIP3   OH233523   4.584   4.345   5.260 -0.1191 -0.1478  0.3887
 4011TIP3    H133524   4.609   4.255   5.243  0.3603  0.0105  0.2511
 4011TIP3    H233525   4.642   4.374   5.331 -2.0961 -0.8010  2.3866
 4012TIP3   OH233526   1.857   5.280   3.248 -0.6128 -0.0595 -0.0408
 4012TIP3    H133527   1.789   5.255   3.312 -1.0400 -1.5642 -1.0348
 4012TIP3    H233528   1.888   5.197   3.212  0.8496  0.6772 -0.5680
 4013TIP3   OH233529   6.565   5.744   1.463  0.0788 -0.4596  0.2728
 4013TIP3    H133530   6.656   5.746   1.434  0.2421 -1.0892  0.7225
 4013TIP3    H233531   6.569   5.713   1.554 -0.6475 -1.2833  0.0344
 4014TIP3   OH233532   1.849   0.698   3.911  0.0567 -0.0434  0.3826
 4014TIP3    H133533   1.927   0.742   3.877 -0.5489 -1.5798 -3.4682
 4014TIP3    H233534   1.877   0.609   3.928  0.2628  0.5789  4.1742
 4015TIP3   OH233535   5.401   5.131  15.201  0.1909 -0.7999  0.3154
 4015TIP3    H133536   5.479   5.078  15.219 -0.0747 -1.2263  0.2383
 4015TIP3    H233537   5.328   5.078  15.235 -0.0154 -0.1510  0.9032
 4016TIP3   OH233538   3.886   5.831   6.233  0.1841  0.1738  0.5281
 4016TIP3    H133539   3.851   5.918   6.213  2.6754  0.9241 -0.9965
 4016TIP3    H233540   3.975   5.848   6.264  0.4158 -1.7906  1.0362
 4017TIP3   OH233541   2.979   6.078   3.327 -0.0278 -0.4774  0.4289
 4017TIP3    H133542   3.054   6.137   3.337  0.0275 -0.4972  0.1482
 4017TIP3    H233543   2.937   6.107   3.247 -0.0024 -0.8191  0.2896
 4018TIP3   OH233544   0.065   2.042   1.107  0.1377 -0.2951 -0.3066
 4018TIP3    H133545   0.044   2.122   1.154  0.5291  0.3331 -1.1731
 4018TIP3    H233546   0.038   1.971   1.166  0.3542  0.4610  0.7238
 4019TIP3   OH233547   0.727   4.368  17.053 -0.2435  0.0329 -0.1987
 4019TIP3    H133548   0.701   4.406  17.137  3.3789  1.1971  0.5774
 4019TIP3    H233549   0.745   4.276  17.073  0.7587  0.3413  0.4133
 4020TIP3   OH233550   5.296   3.067  12.317  0.4329 -0.6110 -0.3608
 4020TIP3    H133551   5.290   3.078  12.412 -0.6582  0.8145 -0.5559
 4020TIP3    H233552   5.382   3.102  12.293  0.4972 -0.4935  0.0433
 4021TIP3   OH233553   4.834   1.750  15.643  0.6562 -0.1767 -0.6708
 4021TIP3    H133554   4.920   1.738  15.683  0.1529  2.3098  1.4059
 4021TIP3    H233555   4.850   1.813  15.573  0.6027 -0.1091 -0.6218
 4022TIP3   OH233556   1.240   0.296   0.855 -0.9171  0.3163 -0.1421
 4022TIP3    H133557   1.211   0.250   0.933 -0.5227 -0.7206 -0.5984
 4022TIP3    H233558   1.332   0.316   0.872 -0.9382  0.4509 -0.1801
 4023TIP3   OH233559   2.569   2.596   3.492  0.1956 -0.1953 -0.1096
 4023TIP3    H133560   2.485   2.638   3.508 -0.2841 -1.0563 -0.2780
 4023TIP3    H233561   2.607   2.582   3.579 -0.3823 -0.8623  0.0462
 4024TIP3   OH233562   1.185   1.480   5.812  0.7102 -0.5066 -0.1587
 4024TIP3    H133563   1.247   1.522   5.871  0.3012  0.7996 -0.6163
 4024TIP3    H233564   1.128   1.428   5.869  1.5393 -0.8510  0.3690
 4025TIP3   OH233565   3.814   0.439   5.385 -0.0695  0.6948  0.4001
 4025TIP3    H133566   3.858   0.491   5.318 -1.0043 -0.7368 -1.4049
 4025TIP3    H233567   3.885   0.403   5.438  0.9129 -0.3002 -1.4888
 4026TIP3   OH233568   0.012   5.788  14.682 -0.5577 -0.9949 -0.4101
 4026TIP3    H133569   0.100   5.820  14.702 -0.5353 -1.6600  0.6015
 4026TIP3    H233570  -0.021   5.850  14.617 -0.6992  1.4621  1.8230
 4027TIP3   OH233571   2.511   0.871  16.118 -0.3982  0.1856 -0.3881
 4027TIP3    H133572   2.468   0.893  16.035  0.3211 -2.0121 -1.4404
 4027TIP3    H233573   2.454   0.804  16.156  0.2551 -0.1832 -0.0488
 4028TIP3   OH233574   1.333   1.388   4.236  0.1264  0.6038 -0.2896
 4028TIP3    H133575   1.353   1.404   4.144 -1.2270 -1.9442 -1.1358
 4028TIP3    H233576   1.239   1.368   4.236  0.2633 -0.1962  1.5020
 4029TIP3   OH233577   0.085   2.356  13.066 -0.4606 -0.2282 -0.6585
 4029TIP3    H133578   0.125   2.407  12.996  0.8855  0.8777  0.8302
 4029TIP3    H233579   0.096   2.265  13.040 -1.2383  0.1847 -2.5136
 4030TIP3   OH233580   3.290   3.542   0.025 -0.3157  0.7381 -0.8632
 4030TIP3    H133581   3.219   3.605   0.038 -0.6779  0.2872 -0.5915
 4030TIP3    H233582   3.254   3.479  -0.037 -1.7797 -1.8125  2.2162
 4031TIP3   OH233583   1.953   1.789   1.757 -0.0814  0.3477  0.5435
 4031TIP3    H133584   1.919   1.827   1.675 -0.0327 -0.8292 -0.0412
 4031TIP3    H233585   1.890   1.816   1.824 -1.1951 -0.2855 -0.2198
 4032TIP3   OH233586   4.578   6.147  13.394 -0.2705 -0.1470  0.1766
 4032TIP3    H133587   4.614   6.210  13.457 -0.4170 -1.0094  1.1367
 4032TIP3    H233588   4.493   6.183  13.370 -0.7141 -0.3787  1.3489
 4033TIP3   OH233589   3.933   0.795   0.368  0.5649  0.2993 -0.0309
 4033TIP3    H133590   3.847   0.776   0.330  1.1464  0.8628 -1.7061
 4033TIP3    H233591   3.915   0.854   0.441 -0.4269  0.9925 -0.8131
 4034TIP3   OH233592   4.703   6.613   5.509  0.0263 -0.5633 -0.3124
 4034TIP3    H133593   4.774   6.573   5.457  0.7870 -0.0092  0.2824
 4034TIP3    H233594   4.729   6.705   5.517 -2.2225  0.3713 -2.5660
 4035TIP3   OH233595   5.963   4.383   3.575  0.9869 -0.3273 -0.2239
 4035TIP3    H133596   6.056   4.390   3.599  0.7539 -1.3616  1.1097
 4035TIP3    H233597   5.962   4.324   3.500  1.5651  1.4674 -1.7448
 4036TIP3   OH233598   1.020   1.949   4.620  0.5107  0.5062 -0.3074
 4036TIP3    H133599   1.042   1.892   4.546  0.2291  1.3819 -1.0672
 4036TIP3    H233600   1.071   1.913   4.693 -0.9387 -1.7885 -0.3142
 4037TIP3   OH233601   4.523   4.644   2.876 -0.0907 -0.5183 -0.4980
 4037TIP3    H133602   4.590   4.577   2.873 -1.5588 -2.0257 -1.2757
 4037TIP3    H233603   4.508   4.659   2.970 -0.5937 -2.2119 -0.2699
 4038TIP3   OH233604   5.739   4.080  12.299 -1.0549 -0.7980  0.4333
 4038TIP3    H133605   5.787   4.137  12.240 -0.3351 -2.8849 -1.1309
 4038TIP3    H233606   5.653   4.121  12.308 -1.0575 -0.2109 -1.7764
 4039TIP3   OH233607   4.524   4.835   4.764  0.3054  0.0810 -0.3069
 4039TIP3    H133608   4.565   4.875   4.687  2.8076 -1.7152 -0.0518
 4039TIP3    H233609   4.468   4.767   4.729 -1.1350  1.3492 -0.5896
 4040TIP3   OH233610   4.196   6.054  15.669 -0.2208  0.3856 -0.1569
 4040TIP3    H133611   4.262   6.108  15.713  1.0671  0.4597 -2.0793
 4040TIP3    H233612   4.244   5.976  15.641 -1.6445 -0.9562  0.9597
 4041TIP3   OH233613   5.594   1.269   0.484  0.0974 -0.3701  0.2142
 4041TIP3    H133614   5.641   1.186   0.478  0.3366 -0.3719  1.7224
 4041TIP3    H233615   5.554   1.268   0.571 -0.8551  0.6059 -0.1874
 4042TIP3   OH233616   0.295   2.398  12.868  0.1577  0.8767  0.1752
 4042TIP3    H133617   0.362   2.332  12.889  0.4042  1.1375  0.2090
 4042TIP3    H233618   0.272   2.380  12.777  1.3332  1.7100 -0.3030
 4043TIP3   OH233619   4.574   3.967   4.363 -0.1121  0.0748 -0.2600
 4043TIP3    H133620   4.573   4.053   4.406 -1.7641 -0.2514  0.4412
 4043TIP3    H233621   4.563   3.987   4.270  1.2679  0.6855 -0.3182
 4044TIP3   OH233622   6.804   1.552   0.619 -0.1852 -0.2444 -0.0372
 4044TIP3    H133623   6.833   1.576   0.531 -1.3063  1.2583 -0.0239
 4044TIP3    H233624   6.781   1.635   0.660  0.7044 -0.8725  1.8427
 4045TIP3   OH233625   2.171   3.841  16.520  0.3769  0.1631  0.2385
 4045TIP3    H133626   2.181   3.884  16.605  0.8304  1.2065 -0.3176
 4045TIP3    H233627   2.171   3.748  16.540  1.0704  0.3765  1.3316
 4046TIP3   OH233628   5.501   1.373  12.248 -0.1840  0.1792 -0.2445
 4046TIP3    H133629   5.495   1.371  12.153 -1.6070  0.3254 -0.1742
 4046TIP3    H233630   5.511   1.280  12.273  2.2565  0.2720 -0.5992
 4047TIP3   OH233631   6.526   4.387   4.580 -0.0594 -0.0305  0.1725
 4047TIP3    H133632   6.567   4.375   4.495 -1.8557  1.4333 -0.9989
 4047TIP3    H233633   6.432   4.393   4.561 -0.3784  2.4371  1.9563
 4048TIP3   OH233634   4.192   2.932   5.684  0.2808 -0.0329 -0.3622
 4048TIP3    H133635   4.221   2.963   5.599  3.1677 -0.9205  0.1762
 4048TIP3    H233636   4.112   2.981   5.702  0.5289  1.4238 -2.8087
 4049TIP3   OH233637   4.432   6.276  16.314  0.3924 -0.4726 -0.5190
 4049TIP3    H133638   4.494   6.223  16.263  0.4208 -1.5704  0.6145
 4049TIP3    H233639   4.367   6.214  16.345  0.2303  0.2123  0.5581
 4050TIP3   OH233640   0.538   5.874  10.836 -0.0375  0.4564  0.4417
 4050TIP3    H133641   0.443   5.883  10.824 -0.4045  1.6669  3.3830
 4050TIP3    H233642   0.554   5.911  10.923  3.2478  0.8473 -0.2269
 4051TIP3   OH233643   0.239   1.614  14.600  0.4425 -0.3025 -0.3159
 4051TIP3    H133644   0.261   1.534  14.553  1.4533  0.1436 -0.6275
 4051TIP3    H233645   0.300   1.618  14.673  0.0255 -0.0997  0.0322
 4052TIP3   OH233646   0.551   1.091   4.223  0.3857 -0.7213 -0.1701
 4052TIP3    H133647   0.463   1.113   4.194 -0.1599 -0.4188  1.5804
 4052TIP3    H233648   0.551   0.996   4.233  0.4614 -0.7865 -0.7832
 4053TIP3   OH233649   5.553   3.241   1.272 -0.0258 -0.5134 -0.5340
 4053TIP3    H133650   5.502   3.313   1.310  0.5137 -0.0027 -0.7791
 4053TIP3    H233651   5.516   3.228   1.185 -0.1331 -0.5503 -0.4837
 4054TIP3   OH233652   3.443   6.124   4.821 -0.0488  0.1802  0.1345
 4054TIP3    H133653   3.474   6.047   4.772 -0.6946  0.3737 -0.6154
 4054TIP3    H233654   3.387   6.170   4.758 -0.1487  0.9443  0.7754
 4055TIP3   OH233655   5.915   6.822  17.118  0.6239  0.2011 -0.2578
 4055TIP3    H133656   5.978   6.779  17.175  0.9860  2.2825  1.0608
 4055TIP3    H233657   5.850   6.859  17.179  0.8609  2.2536 -1.1619
 4056TIP3   OH233658   1.151   5.979  12.788  0.4736 -0.5335 -0.3513
 4056TIP3    H133659   1.086   6.047  12.770  1.0057  0.2817  0.6377
 4056TIP3    H233660   1.108   5.922  12.851  0.1792 -0.8703 -0.8537
 4057TIP3   OH233661   5.298   1.209  11.118 -0.1769 -0.1051 -0.0957
 4057TIP3    H133662   5.258   1.287  11.156 -2.5759 -1.2741 -0.0012
 4057TIP3    H233663   5.294   1.144  11.188  0.4680 -0.7252 -0.6243
 4058TIP3   OH233664   2.705   6.349   2.371  0.5727  0.1003  0.0933
 4058TIP3    H133665   2.757   6.296   2.312  0.9104 -0.4846  0.8973
 4058TIP3    H233666   2.694   6.294   2.449 -1.1545  0.2353 -0.0086
 4059TIP3   OH233667   1.140   3.258  16.304  0.2710  0.0177  0.0535
 4059TIP3    H133668   1.075   3.270  16.373 -0.9969 -0.0713 -1.0859
 4059TIP3    H233669   1.117   3.323  16.237  0.3171 -1.1097 -1.1016
 4060TIP3   OH233670   5.139   2.372  15.578  0.0159 -0.8634 -0.5208
 4060TIP3    H133671   5.191   2.326  15.513 -0.6466 -0.5543 -1.2772
 4060TIP3    H233672   5.144   2.317  15.656  1.5313 -0.8095 -0.5400
 4061TIP3   OH233673   4.619   5.368   1.584 -0.2008 -0.0334 -0.3679
 4061TIP3    H133674   4.615   5.276   1.607 -1.9517 -0.1726 -1.1231
 4061TIP3    H233675   4.604   5.371   1.489 -1.8436  1.1026 -0.1205
 4062TIP3   OH233676   5.239   2.667  16.355  0.0426  0.0669  0.0261
 4062TIP3    H133677   5.322   2.696  16.395  0.4426  0.6733 -1.1873
 4062TIP3    H233678   5.223   2.730  16.285 -1.4901 -0.0187  0.2638
 4063TIP3   OH233679   1.864   5.339  11.851 -0.6457  0.4296  0.1768
 4063TIP3    H133680   1.949   5.298  11.830 -0.7856 -0.3077  0.9822
 4063TIP3    H233681   1.799   5.275  11.823 -1.0534  1.8054 -2.2467
 4064TIP3   OH233682   4.596   2.504  13.042 -0.0199 -0.2594 -0.2435
 4064TIP3    H133683   4.532   2.541  12.983 -1.0325 -0.9735  0.3732
 4064TIP3    H233684   4.602   2.412  13.017  0.7861 -0.1966 -0.3111
 4065TIP3   OH233685   0.704   5.303   2.431  0.0219 -0.1572 -0.7817
 4065TIP3    H133686   0.782   5.268   2.475  0.5395  0.5920 -1.0701
 4065TIP3    H233687   0.691   5.389   2.470 -0.4182 -0.1057 -1.0323
 4066TIP3   OH233688   5.784   0.577  16.847  0.4602 -0.0491 -0.1060
 4066TIP3    H133689   5.839   0.515  16.896  2.2259  0.9692 -0.7104
 4066TIP3    H233690   5.840   0.653  16.834 -1.3919  1.3661 -0.0982
 4067TIP3   OH233691   6.584   0.616   2.806  0.4484  0.2609  0.5968
 4067TIP3    H133692   6.533   0.660   2.875  2.0997  1.2407  1.2589
 4067TIP3    H233693   6.669   0.599   2.847  1.5760  1.1414 -1.2621
 4068TIP3   OH233694   6.093   2.402   4.345 -0.0316 -0.0470  0.0627
 4068TIP3    H133695   6.082   2.442   4.432 -0.6927  1.8704 -0.8562
 4068TIP3    H233696   6.010   2.359   4.328 -0.2229  0.3374  0.0149
 4069TIP3   OH233697   4.684   5.875  14.585  0.1973 -0.0542 -0.1399
 4069TIP3    H133698   4.689   5.808  14.517 -1.3629  1.4381 -1.8712
 4069TIP3    H233699   4.591   5.898  14.589  0.7210  2.4045 -0.1163
 4070TIP3   OH233700   6.351   3.802  13.333  0.0283  0.2397  0.2093
 4070TIP3    H133701   6.279   3.739  13.332  1.2460 -1.4787 -4.6208
 4070TIP3    H233702   6.413   3.767  13.398  0.1438 -3.1058 -1.5054
 4071TIP3   OH233703   2.184   6.672  14.954  0.5295 -0.1681 -0.1439
 4071TIP3    H133704   2.181   6.628  15.039 -2.8137 -0.9093 -0.5173
 4071TIP3    H233705   2.178   6.765  14.974  1.4947 -0.2145  0.4375
 4072TIP3   OH233706   0.402   6.580  15.581 -0.4949  0.2615  0.1509
 4072TIP3    H133707   0.472   6.639  15.552  2.0905 -2.8144 -0.4058
 4072TIP3    H233708   0.424   6.559  15.672  0.7082 -2.3469 -0.6331
 4073TIP3   OH233709   5.963   1.890   2.360 -0.4290 -0.0020  0.4592
 4073TIP3    H133710   5.898   1.906   2.291 -0.9094 -0.9652  0.6732
 4073TIP3    H233711   5.911   1.861   2.435  0.2534 -0.8562  0.6093
 4074TIP3   OH233712   0.514   1.240  14.815 -0.2532 -0.2948 -0.0434
 4074TIP3    H133713   0.501   1.217  14.907 -0.4635  0.3718  0.0939
 4074TIP3    H233714   0.488   1.331  14.809  1.3589  0.1660 -0.4199
 4075TIP3   OH233715   4.805   3.942  14.377 -0.7105 -0.1973  0.2248
 4075TIP3    H133716   4.807   4.008  14.447 -3.5315 -0.2143  0.4385
 4075TIP3    H233717   4.834   3.861  14.419 -1.4643 -0.0030  1.1424
 4076TIP3   OH233718   1.391   2.378  15.833  0.1181  0.9126 -0.0218
 4076TIP3    H133719   1.318   2.405  15.888  1.3539  1.2945  1.5007
 4076TIP3    H233720   1.442   2.458  15.818 -0.0173  0.7542 -1.4816
 4077TIP3   OH233721   4.030   5.039  15.346  0.1757 -0.2579  0.3575
 4077TIP3    H133722   3.934   5.042  15.342  0.0868 -1.0035  1.4891
 4077TIP3    H233723   4.057   5.020  15.256 -0.6804  0.8814 -0.1663
 4078TIP3   OH233724   0.129   1.512   2.984 -0.6568  0.3977 -0.3233
 4078TIP3    H133725   0.221   1.529   2.964 -0.3721 -1.7776 -1.1830
 4078TIP3    H233726   0.085   1.509   2.899 -1.2835  0.2298 -0.0056
 4079TIP3   OH233727   0.193   5.071  14.914 -0.1171 -0.3828 -0.0369
 4079TIP3    H133728   0.141   5.024  14.849  0.5924 -1.7318  0.3172
 4079TIP3    H233729   0.263   5.009  14.936  1.2003  1.0886  0.0362
 4080TIP3   OH233730   2.014   3.215   1.049  0.4931 -0.2677  0.1246
 4080TIP3    H133731   1.964   3.207   0.968 -0.3780 -0.3578  0.6564
 4080TIP3    H233732   2.013   3.308   1.069 -1.0503 -0.4679  1.0935
 4081TIP3   OH233733   1.111   1.642  12.137 -0.3525 -0.1690  0.2400
 4081TIP3    H133734   1.052   1.692  12.080  0.3973  0.0317 -0.3769
 4081TIP3    H233735   1.133   1.564  12.086 -0.1298 -0.2669  0.4849
 4082TIP3   OH233736   2.442   4.747   5.502  0.1190 -0.1690 -0.5810
 4082TIP3    H133737   2.368   4.733   5.560 -0.5235 -0.4199 -1.4403
 4082TIP3    H233738   2.402   4.766   5.417  1.0320  0.5903 -0.8585
 4083TIP3   OH233739   5.595   2.863   3.069 -0.2637 -0.6308 -0.1291
 4083TIP3    H133740   5.663   2.900   3.012  1.5575 -2.4996  0.7077
 4083TIP3    H233741   5.536   2.936   3.086  1.9344  1.3109 -0.3190
 4084TIP3   OH233742   1.678   4.918   5.088 -0.2755  0.5336 -0.1917
 4084TIP3    H133743   1.727   4.866   5.025  0.9756  1.2023  0.2033
 4084TIP3    H233744   1.603   4.863   5.112  0.9477 -1.0534  0.1385
 4085TIP3   OH233745   6.769   3.320   3.277 -0.2231 -0.5762  0.4941
 4085TIP3    H133746   6.801   3.406   3.249  0.4241 -1.0753 -0.3382
 4085TIP3    H233747   6.686   3.309   3.231  0.4412 -1.0432 -0.6240
 4086TIP3   OH233748   6.474   3.066  15.054  0.9199  0.1374 -0.2946
 4086TIP3    H133749   6.566   3.077  15.030  0.4890  0.7140 -1.8420
 4086TIP3    H233750   6.447   2.985  15.009  0.2464  0.8967 -1.2973
 4087TIP3   OH233751   2.891   2.337   1.698 -0.0241  0.2283 -0.0307
 4087TIP3    H133752   2.940   2.398   1.753  2.0210 -1.9306  0.7147
 4087TIP3    H233753   2.803   2.336   1.736  0.3286  1.5412  0.8891
 4088TIP3   OH233754   3.934   0.860   1.285  0.6669 -0.0145  0.4933
 4088TIP3    H133755   3.897   0.820   1.364  0.0297 -1.7961 -0.6285
 4088TIP3    H233756   3.865   0.916   1.252  0.0639 -0.9965  0.0357
 4089TIP3   OH233757   2.161   5.678  13.823 -0.0904 -0.0068  0.2822
 4089TIP3    H133758   2.141   5.713  13.910 -0.8876 -1.4286  0.7073
 4089TIP3    H233759   2.084   5.698  13.771  0.2491  0.5524 -0.0076
 4090TIP3   OH233760   5.474   1.045   0.892  0.3629  0.4420  0.7064
 4090TIP3    H133761   5.404   1.081   0.838 -0.1687 -0.5309  0.7345
 4090TIP3    H233762   5.550   1.100   0.872  0.0903  0.3248 -0.7699
 4091TIP3   OH233763   3.148   0.357  13.337 -0.4757  0.1834  0.3663
 4091TIP3    H133764   3.232   0.395  13.309 -0.3876 -0.2330  0.0529
 4091TIP3    H233765   3.107   0.328  13.255 -0.5458 -0.3868  0.5983
 4092TIP3   OH233766   0.715   3.623  16.547  0.2923 -0.0408 -0.0261
 4092TIP3    H133767   0.808   3.642  16.539  0.4425 -0.5636  0.4778
 4092TIP3    H233768   0.710   3.547  16.604 -0.3942 -0.6247 -0.8472
 4093TIP3   OH233769   6.735   6.371   2.027 -0.5343 -0.9105 -0.4868
 4093TIP3    H133770   6.808   6.428   2.001 -0.1302 -1.1234  0.1564
 4093TIP3    H233771   6.716   6.319   1.948  1.4328 -2.3640 -0.0678
 4094TIP3   OH233772   5.193   6.728  13.716  0.3265  0.1813  0.2461
 4094TIP3    H133773   5.234   6.799  13.666 -0.7225  0.7307  0.1426
 4094TIP3    H233774   5.188   6.762  13.805 -0.6282  0.4615  0.1019
 4095TIP3   OH233775   3.081   5.469  12.961  0.1493  0.6903  0.1816
 4095TIP3    H133776   3.142   5.510  13.022  0.5094 -0.1486  0.3951
 4095TIP3    H233777   2.998   5.514  12.976  0.6688  1.7326 -0.0037
 4096TIP3   OH233778   6.257   6.365   6.319 -0.1567  0.5294 -0.3835
 4096TIP3    H133779   6.321   6.324   6.260 -0.4046 -0.4699  0.0248
 4096TIP3    H233780   6.172   6.339   6.284 -0.3748  2.1982 -1.1702
 4097TIP3   OH233781   3.202   6.839   2.070  0.2696 -0.0966  0.2006
 4097TIP3    H133782   3.262   6.874   2.136  0.3722 -2.3200  1.4148
 4097TIP3    H233783   3.117   6.878   2.091  0.7391  0.8959  0.2673
 4098TIP3   OH233784   2.327   4.015  15.533 -0.3289 -0.6638  0.0968
 4098TIP3    H133785   2.360   3.928  15.553 -0.6565 -1.1818 -1.4791
 4098TIP3    H233786   2.241   4.000  15.493 -0.4185  0.3731 -0.1269
 4099TIP3   OH233787   2.908   6.782   0.553 -0.5543  0.1577 -0.1843
 4099TIP3    H133788   2.895   6.699   0.600 -1.8738  0.8285  0.7120
 4099TIP3    H233789   2.839   6.783   0.486 -1.0625  0.8680  0.3317
 4100TIP3   OH233790   2.525   2.543  16.546  0.7538 -0.5051 -0.1473
 4100TIP3    H133791   2.497   2.598  16.619 -0.5412 -1.8938  0.4475
 4100TIP3    H233792   2.536   2.456  16.584 -0.9974 -1.5175 -1.7709
 4101TIP3   OH233793   6.789   0.466   6.399 -0.0432 -0.2224 -0.0620
 4101TIP3    H133794   6.713   0.520   6.423 -1.1108 -1.6161 -0.1905
 4101TIP3    H233795   6.751   0.389   6.357  1.5534  0.0288 -2.1332
 4102TIP3   OH233796   6.743   5.023  11.677 -0.0945  0.5178  0.0601
 4102TIP3    H133797   6.748   4.949  11.736  0.2251  0.9964  0.6437
 4102TIP3    H233798   6.769   4.987  11.591  2.8222  0.4917  0.8330
 4103TIP3   OH233799   0.764   5.465   5.182  0.0315 -0.0848  0.5144
 4103TIP3    H133800   0.846   5.416   5.192 -0.7957 -2.1208 -1.6486
 4103TIP3    H233801   0.782   5.529   5.113  0.4754  1.2932  1.8404
 4104TIP3   OH233802   0.680   1.335  11.147  0.1883  0.2796 -0.5668
 4104TIP3    H133803   0.618   1.263  11.155  1.0571 -0.3278  1.0638
 4104TIP3    H233804   0.652   1.382  11.068 -2.7753  0.4717  0.4657
 4105TIP3   OH233805   3.000   4.416   2.516 -0.5959 -0.1785 -0.0856
 4105TIP3    H133806   3.011   4.440   2.608 -0.6263  0.4037 -0.2299
 4105TIP3    H233807   3.048   4.483   2.468  0.6446 -1.2978 -0.4440
 4106TIP3   OH233808   3.795   2.427   5.666 -0.4252  0.6354 -0.3432
 4106TIP3    H133809   3.747   2.472   5.735  1.0044  1.0936  0.3970
 4106TIP3    H233810   3.732   2.366   5.628 -1.3710  0.6961  1.0693
 4107TIP3   OH233811   4.595   1.749  14.453  0.0662 -0.4190  0.9114
 4107TIP3    H133812   4.541   1.741  14.532  1.7714  0.6595  2.2408
 4107TIP3    H233813   4.658   1.818  14.473  0.2453  0.2428 -1.6074
 4108TIP3   OH233814   6.821   4.988   4.293 -0.1083 -0.7816 -0.2336
 4108TIP3    H133815   6.813   5.037   4.211  1.9077  1.9057  1.0445
 4108TIP3    H233816   6.767   5.036   4.356  1.1824 -0.6964  0.8519
 4109TIP3   OH233817   4.144   2.877   3.211 -0.2826 -0.1591  0.0086
 4109TIP3    H133818   4.092   2.951   3.242  0.8942  1.0326 -0.7936
 4109TIP3    H233819   4.233   2.911   3.202  0.3297 -1.7238 -0.1946
 4110TIP3   OH233820   4.164   0.121  11.162 -0.1783 -0.0569  0.0158
 4110TIP3    H133821   4.147   0.029  11.138 -0.3394  0.1693 -0.7865
 4110TIP3    H233822   4.232   0.149  11.101  1.9912 -0.4601  2.1290
 4111TIP3   OH233823   5.911   2.831   3.511 -0.0705 -0.2010  0.0616
 4111TIP3    H133824   5.895   2.883   3.433  0.8194  0.8105  0.5410
 4111TIP3    H233825   6.004   2.811   3.509  1.2403  4.0190  3.2498
 4112TIP3   OH233826   6.646   5.480   0.808 -0.0636 -0.5103 -0.3192
 4112TIP3    H133827   6.686   5.464   0.893  0.2562 -1.7129 -0.6679
 4112TIP3    H233828   6.615   5.570   0.812  0.9628 -0.1780  0.6567
 4113TIP3   OH233829   0.304   5.209   0.414 -0.2701 -0.6793  0.0672
 4113TIP3    H133830   0.222   5.174   0.381 -0.4394 -0.5857  0.3803
 4113TIP3    H233831   0.278   5.286   0.466  0.0150 -0.6386  0.1521
 4114TIP3   OH233832   5.291   4.530  13.990  0.9743 -0.2705 -0.0024
 4114TIP3    H133833   5.240   4.462  13.946 -1.8773  0.2156  2.2496
 4114TIP3    H233834   5.254   4.612  13.958  0.1608  0.0974  1.7696
 4115TIP3   OH233835   5.907   0.918  12.510 -0.1980 -0.9749  0.3878
 4115TIP3    H133836   5.908   0.994  12.452 -0.4991 -2.9977 -2.4885
 4115TIP3    H233837   5.817   0.912  12.541 -0.4229 -0.7411 -0.2052
 4116TIP3   OH233838   5.468   2.840  16.793 -0.1754 -0.5461 -0.2312
 4116TIP3    H133839   5.490   2.857  16.885  0.2039  1.9470 -0.6970
 4116TIP3    H233840   5.452   2.746  16.789  1.2815 -0.9803  2.0617
 4117TIP3   OH233841   2.502   4.848   6.687 -0.2763 -0.1080  0.0724
 4117TIP3    H133842   2.422   4.886   6.723 -0.7258 -0.8649 -0.0962
 4117TIP3    H233843   2.543   4.919   6.639 -1.0703  0.1823 -0.1958
 4118TIP3   OH233844   3.208   6.347   2.195  0.4448 -0.0182 -0.2054
 4118TIP3    H133845   3.282   6.404   2.177 -1.6307  2.6091 -1.0924
 4118TIP3    H233846   3.205   6.287   2.120  0.0968  1.7048 -1.6468
 4119TIP3   OH233847   0.926   5.916  11.754  0.0367 -0.2880 -0.0480
 4119TIP3    H133848   0.944   5.926  11.661 -1.8670  3.1252 -0.1761
 4119TIP3    H233849   0.979   5.983  11.797  0.4106 -1.3913  1.3076
 4120TIP3   OH233850   4.753   4.366   4.098  0.0174 -0.0039 -0.2308
 4120TIP3    H133851   4.734   4.459   4.114 -1.5405 -0.0463 -1.5582
 4120TIP3    H233852   4.817   4.343   4.165  0.8007  2.1427 -0.1601
 4121TIP3   OH233853   0.245   6.656  14.170  0.7757  0.3583 -0.3993
 4121TIP3    H133854   0.222   6.732  14.224 -0.0815  0.3480 -0.7288
 4121TIP3    H233855   0.194   6.584  14.207  2.1876 -0.2625  0.4131
 4122TIP3   OH233856   5.964   0.756   3.586  0.1447  0.3459  0.0012
 4122TIP3    H133857   5.899   0.820   3.612  0.3652  0.3586  0.5276
 4122TIP3    H233858   5.914   0.675   3.572 -0.3749  0.9826 -2.2051
 4123TIP3   OH233859   0.672   5.033  17.053  0.0202 -0.9659 -0.3832
 4123TIP3    H133860   0.667   5.058  16.961  1.4939 -0.7217 -0.4220
 4123TIP3    H233861   0.678   5.116  17.100 -2.4716 -0.9931  0.1228
 4124TIP3   OH233862   2.441   1.335  11.252 -0.1853  0.6397 -0.1949
 4124TIP3    H133863   2.362   1.389  11.252  0.4698  1.6063  0.2097
 4124TIP3    H233864   2.458   1.318  11.159 -1.4980 -0.5529 -0.2675
 4125TIP3   OH233865   6.248   4.099   4.850  0.7119 -0.3082 -0.4093
 4125TIP3    H133866   6.290   4.030   4.901  0.2182 -0.7017 -0.5247
 4125TIP3    H233867   6.155   4.074   4.846  0.2605  1.0528  0.6745
 4126TIP3   OH233868   5.311   3.874  14.449  0.0706  0.0895  0.2391
 4126TIP3    H133869   5.249   3.934  14.490  0.0323 -0.2471  0.6844
 4126TIP3    H233870   5.271   3.852  14.365 -0.4758 -0.2209  0.5767
 4127TIP3   OH233871   5.398   2.023   2.206  0.4046  0.1973 -0.0570
 4127TIP3    H133872   5.332   1.998   2.270  0.7697 -0.5193  0.0500
 4127TIP3    H233873   5.362   1.996   2.122  0.7326 -0.5809  0.0430
 4128TIP3   OH233874   3.291   3.950  14.128  0.3840 -0.0009  0.2080
 4128TIP3    H133875   3.358   3.915  14.186  0.3282  1.7271  1.4162
 4128TIP3    H233876   3.216   3.891  14.138  0.0215  0.7206  2.7385
 4129TIP3   OH233877   2.638   3.565  14.520  0.4136  0.5781  0.0334
 4129TIP3    H133878   2.604   3.593  14.605 -2.3989 -1.4182 -0.2805
 4129TIP3    H233879   2.569   3.589  14.458  0.6399 -1.4492 -1.0799
 4130TIP3   OH233880   1.980   4.444  15.025 -0.3036 -0.0011 -0.2861
 4130TIP3    H133881   2.021   4.390  14.958  1.0563 -1.5880  1.6759
 4130TIP3    H233882   1.921   4.384  15.071 -1.2675  1.0594 -0.1015
 4131TIP3   OH233883   5.108   4.316  13.951 -0.2893 -0.0368 -0.1871
 4131TIP3    H133884   5.046   4.255  13.911  0.0400 -0.2493 -0.3830
 4131TIP3    H233885   5.069   4.340  14.035 -0.4582 -0.4551 -0.1478
 4132TIP3   OH233886   0.688   6.776   5.401 -0.0846 -0.0640  0.0722
 4132TIP3    H133887   0.645   6.701   5.360  0.3371 -1.5244  2.1383
 4132TIP3    H233888   0.646   6.783   5.487  0.9204  1.1216  0.4863
 4133TIP3   OH233889   1.375   5.549   1.411 -0.1615  0.2067  0.0142
 4133TIP3    H133890   1.437   5.599   1.464  0.2922 -0.2161 -0.1069
 4133TIP3    H233891   1.430   5.493   1.356 -0.6357  0.3916 -0.6559
 4134TIP3   OH233892   6.600   3.117   0.291  0.3544  0.8050 -0.2604
 4134TIP3    H133893   6.609   3.212   0.291  1.3203  0.7378 -1.7383
 4134TIP3    H233894   6.687   3.085   0.315  0.1419  0.2869 -0.1826
 4135TIP3   OH233895   2.197   0.562   4.260 -0.1888 -0.0249  0.4864
 4135TIP3    H133896   2.107   0.540   4.238 -0.1493 -1.3191  1.4912
 4135TIP3    H233897   2.202   0.657   4.249 -0.8514 -0.2146 -2.4075
 4136TIP3   OH233898   6.828   6.823   4.021 -0.0234 -0.8336  0.4025
 4136TIP3    H133899   6.847   6.828   3.927  0.4874  0.5816  0.5599
 4136TIP3    H233900   6.893   6.880   4.062 -1.7137  0.4876  1.3871
 4137TIP3   OH233901   5.760   2.881   5.432 -0.1898 -0.2712  0.0188
 4137TIP3    H133902   5.830   2.937   5.466 -3.1322  3.3966  0.7631
 4137TIP3    H233903   5.765   2.801   5.484  1.8002  0.9351  1.8663
 4138TIP3   OH233904   2.395   3.287   1.863  0.4688  0.1617  0.2192
 4138TIP3    H133905   2.393   3.192   1.847  0.3025  0.4103 -1.3726
 4138TIP3    H233906   2.307   3.317   1.838 -0.6273  0.3416  3.7249
 4139TIP3   OH233907   5.401   0.361   1.457  0.6795 -0.2350  0.1209
 4139TIP3    H133908   5.448   0.360   1.540  1.7538 -2.0858 -0.4607
 4139TIP3    H233909   5.309   0.354   1.481  0.8812  0.4899  1.1761
 4140TIP3   OH233910   4.918   5.356   3.393  0.4926 -0.1613 -0.0328
 4140TIP3    H133911   4.965   5.303   3.329  0.1515  1.6591 -1.8748
 4140TIP3    H233912   4.951   5.445   3.381 -1.2458  0.6382  0.6941
 4141TIP3   OH233913   6.200   3.269   4.791 -0.3167  0.1538  0.3510
 4141TIP3    H133914   6.122   3.317   4.764  0.0372  0.5240 -0.0364
 4141TIP3    H233915   6.258   3.274   4.715  0.4996  0.7747  0.9927
 4142TIP3   OH233916   2.170   5.254   0.592 -0.0946 -0.5557 -0.0813
 4142TIP3    H133917   2.205   5.187   0.651 -0.0743 -0.9158 -0.4990
 4142TIP3    H233918   2.091   5.215   0.556  0.3470 -0.6812 -0.9435
 4143TIP3   OH233919   1.852   6.834   3.164  0.1904 -0.3641  0.2897
 4143TIP3    H133920   1.845   6.746   3.202 -0.3688 -0.5317 -0.1913
 4143TIP3    H233921   1.945   6.844   3.145  0.2988 -0.7473  0.5972
 4144TIP3   OH233922   0.550   1.387  13.309 -0.2449  0.3466  0.1409
 4144TIP3    H133923   0.525   1.473  13.344  2.0169  1.5801 -1.0812
 4144TIP3    H233924   0.576   1.404  13.218  0.0437 -1.6824 -0.2110
 4145TIP3   OH233925   5.350   5.500   5.804 -0.1882  0.0236 -0.0808
 4145TIP3    H133926   5.342   5.460   5.717  0.1406 -0.2365  0.0086
 4145TIP3    H233927   5.290   5.448   5.858  0.4631 -0.5505  0.1033
 4146TIP3   OH233928   0.887   3.510  14.788 -0.2032 -0.3505  0.0900
 4146TIP3    H133929   0.832   3.440  14.824  0.1400  0.3348  2.0600
 4146TIP3    H233930   0.866   3.586  14.841 -0.6507  1.1184 -2.0934
 4147TIP3   OH233931   4.219   0.636   1.132 -0.4975  0.1893 -0.4557
 4147TIP3    H133932   4.186   0.583   1.205 -2.5997  1.0172 -0.7305
 4147TIP3    H233933   4.257   0.713   1.173 -1.7933  0.7145 -0.2020
 4148TIP3   OH233934   4.304   2.251   5.131 -0.4192 -0.4188 -0.5363
 4148TIP3    H133935   4.335   2.200   5.206 -1.1292 -0.0862 -0.0100
 4148TIP3    H233936   4.383   2.294   5.097 -0.1917 -0.0472  0.4238
 4149TIP3   OH233937   3.263   0.141  11.683 -0.0010  0.0217  0.2428
 4149TIP3    H133938   3.289   0.171  11.770  1.2758 -1.6678  0.4883
 4149TIP3    H233939   3.258   0.221  11.630  3.2409  0.7522  0.8371
 4150TIP3   OH233940   2.246   2.477  10.516  0.2258 -0.4521 -0.7125
 4150TIP3    H133941   2.264   2.389  10.549  0.5228  0.2435  1.0865
 4150TIP3    H233942   2.332   2.517  10.504  0.1070  0.5122  1.2183
 4151TIP3   OH233943   2.628   4.705   2.492 -0.6120 -0.1491  0.7102
 4151TIP3    H133944   2.539   4.708   2.527 -0.7896 -2.7162  0.6775
 4151TIP3    H233945   2.682   4.680   2.567  0.0624  1.0821  0.6552
 4152TIP3   OH233946   1.425   4.435  11.349 -0.2565  0.1472 -0.0536
 4152TIP3    H133947   1.344   4.428  11.299 -1.1770 -0.8619  1.5088
 4152TIP3    H233948   1.457   4.523  11.329 -0.4769 -0.2489 -2.4866
 4153TIP3   OH233949   4.300   0.074   5.633  0.2596  0.5391  0.3651
 4153TIP3    H133950   4.321   0.168   5.629  0.9624  0.4118  0.9216
 4153TIP3    H233951   4.332   0.039   5.550  0.9587  0.6107  0.5963
 4154TIP3   OH233952   1.133   3.387  11.498  0.5542 -0.1736  0.4337
 4154TIP3    H133953   1.090   3.396  11.583  0.6736 -0.4912  0.5290
 4154TIP3    H233954   1.226   3.402  11.517  0.5614 -0.0802  0.3283
 4155TIP3   OH233955   2.597   0.209  15.448 -0.2169  0.4064  0.8791
 4155TIP3    H133956   2.584   0.254  15.364 -1.9867  0.6769  1.2701
 4155TIP3    H233957   2.634   0.124  15.424 -0.1763  0.6941 -0.1276
 4156TIP3   OH233958   6.384   3.256  12.248  0.1016 -0.0099 -0.4455
 4156TIP3    H133959   6.309   3.199  12.229  0.6153 -1.1784  0.7935
 4156TIP3    H233960   6.458   3.214  12.203  0.3826 -0.0290  0.0231
 4157TIP3   OH233961   1.973   0.584  13.290  0.2664 -0.9646  0.1810
 4157TIP3    H133962   1.994   0.495  13.263 -0.1723 -1.0758  0.2006
 4157TIP3    H233963   1.995   0.587  13.383  1.0912 -0.7975 -0.0177
 4158TIP3   OH233964   3.647   1.433  13.993  0.5041  0.5284 -0.1248
 4158TIP3    H133965   3.615   1.379  14.065  1.0572 -0.7713 -0.8301
 4158TIP3    H233966   3.715   1.380  13.951  1.1733  1.8335 -0.7525
 4159TIP3   OH233967   0.690   6.466  15.971  0.2378  0.1770  0.0753
 4159TIP3    H133968   0.668   6.411  16.047 -1.8733 -0.0653 -0.6760
 4159TIP3    H233969   0.736   6.541  16.009 -0.5199 -0.0843  1.5795
 4160TIP3   OH233970   2.906   2.485   3.262 -0.7891 -0.3483  0.0822
 4160TIP3    H133971   2.930   2.393   3.272 -1.8093 -0.8111 -1.3975
 4160TIP3    H233972   2.959   2.531   3.326  0.3767 -1.8736  0.2544
 4161TIP3   OH233973   4.417   0.948   0.115  0.3497  0.1011 -0.3345
 4161TIP3    H133974   4.328   0.981   0.132 -0.1393 -1.3047 -0.0562
 4161TIP3    H233975   4.404   0.864   0.072  1.5741  0.4916 -1.5585
 4162TIP3   OH233976   3.785   6.586  16.747 -0.0396 -0.3556  0.3062
 4162TIP3    H133977   3.787   6.559  16.839  3.5140 -1.6518  0.0063
 4162TIP3    H233978   3.764   6.506  16.699  0.1174 -0.1453 -0.1156
 4163TIP3   OH233979   6.593   1.815  15.548  0.0126  0.4698  0.6453
 4163TIP3    H133980   6.680   1.775  15.534 -0.4360 -0.3250 -0.0209
 4163TIP3    H233981   6.588   1.883  15.481 -0.3059 -0.2287 -0.0521
 4164TIP3   OH233982   0.374   4.829   3.435  0.3533  0.4536 -0.4320
 4164TIP3    H133983   0.440   4.849   3.502 -0.0584 -1.0609  0.4800
 4164TIP3    H233984   0.416   4.763   3.380  0.2538  0.8368 -0.9730
 4165TIP3   OH233985   4.054   5.945   5.818  0.1726  0.0992  0.0309
 4165TIP3    H133986   4.081   5.922   5.907  0.8059  0.2885 -0.1014
 4165TIP3    H233987   4.116   6.014   5.792  0.3891 -0.3848 -0.7771
 4166TIP3   OH233988   3.583   0.231  15.445 -0.4040  0.5006 -0.3166
 4166TIP3    H133989   3.591   0.226  15.540 -0.7363  3.1048 -0.0715
 4166TIP3    H233990   3.671   0.211  15.413 -0.3973 -0.8786  0.4664
 4167TIP3   OH233991   4.295   5.294   5.384  0.1275  0.7000 -0.3227
 4167TIP3    H133992   4.293   5.198   5.383 -1.9867  0.7018 -1.0197
 4167TIP3    H233993   4.233   5.320   5.316  0.5417  2.5755 -0.0416
 4168TIP3   OH233994   2.020   6.198  15.134 -0.5696  0.2221 -0.1208
 4168TIP3    H133995   2.102   6.158  15.163 -0.1226  1.9061  1.1587
 4168TIP3    H233996   2.011   6.174  15.042  1.3477 -0.0239 -0.2714
 4169TIP3   OH233997   2.364   1.183  15.011  0.3501  0.8594  0.2018
 4169TIP3    H133998   2.369   1.088  15.027 -0.4489  0.2538 -2.6703
 4169TIP3    H233999   2.274   1.197  14.981  0.4652  2.5782  0.5872
 4170TIP3   OH234000   1.579   2.253   2.714 -0.1459  0.3549 -0.1691
 4170TIP3    H134001   1.666   2.230   2.679 -0.2762 -0.1666 -0.1688
 4170TIP3    H234002   1.597   2.312   2.787  0.2105  0.2779 -0.1906
 4171TIP3   OH234003   1.487   1.103  13.717 -0.1546 -0.2641 -0.3465
 4171TIP3    H134004   1.407   1.101  13.769  0.5736 -0.5544  0.8258
 4171TIP3    H234005   1.524   1.189  13.733  0.6041 -0.7247  0.4992
 4172TIP3   OH234006   1.002   6.644  11.554  0.0768 -0.1555  0.0542
 4172TIP3    H134007   0.942   6.582  11.596  0.8041 -0.1286  1.1620
 4172TIP3    H234008   0.947   6.719  11.533 -0.5199 -0.5977  0.0083
 4173TIP3   OH234009   1.345   6.680  14.001  0.3047 -0.1326 -0.0492
 4173TIP3    H134010   1.426   6.663  14.049 -0.2276 -0.3597  0.7911
 4173TIP3    H234011   1.281   6.699  14.069  0.1450  2.2850 -0.7731
 4174TIP3   OH234012   5.270   2.812   6.333 -0.1007 -0.6236 -0.0781
 4174TIP3    H134013   5.226   2.787   6.252  1.2500 -2.4855 -0.2944
 4174TIP3    H234014   5.280   2.907   6.327  0.5979 -0.7852 -2.4587
 4175TIP3   OH234015   6.444   4.252  13.605  0.8261 -0.2795  0.4316
 4175TIP3    H134016   6.440   4.251  13.510  0.0582 -0.0759  0.4554
 4175TIP3    H234017   6.436   4.160  13.631 -0.4548 -0.1996  0.3459
 4176TIP3   OH234018   1.347   2.588  10.959  0.2322 -0.9806 -0.0551
 4176TIP3    H134019   1.375   2.645  11.031 -3.0230  2.5081 -1.1777
 4176TIP3    H234020   1.407   2.608  10.888  1.2868 -1.7313  0.6036
 4177TIP3   OH234021   2.852   2.556   2.365  0.0368  0.0153  0.0519
 4177TIP3    H134022   2.927   2.564   2.306 -0.2734  0.3944 -0.2940
 4177TIP3    H234023   2.829   2.463   2.361 -1.2831  0.3712 -2.0660
 4178TIP3   OH234024   4.152   1.675  14.076  0.4382  0.0491  0.2672
 4178TIP3    H134025   4.089   1.742  14.047  1.7156  0.5585 -1.5615
 4178TIP3    H234026   4.233   1.723  14.090  1.1362 -0.9716 -0.1509
 4179TIP3   OH234027   6.048   5.613   4.362  0.2783  0.4622  0.1645
 4179TIP3    H134028   6.066   5.668   4.286  2.1281 -1.1397 -0.6316
 4179TIP3    H234029   5.964   5.572   4.343 -0.1964  1.5230 -0.0987
 4180TIP3   OH234030   1.121   2.274  13.614 -0.3040  0.4919 -0.5123
 4180TIP3    H134031   1.105   2.368  13.627  1.7521  1.1867 -2.4237
 4180TIP3    H234032   1.130   2.264  13.519 -0.4056 -1.6585 -0.3452
 4181TIP3   OH234033   3.043   4.468   2.180  0.0935  0.3611 -0.2684
 4181TIP3    H134034   2.988   4.391   2.198  0.0384  0.3901 -0.3138
 4181TIP3    H234035   3.123   4.432   2.142  0.0963  0.3208 -0.2247
 4182TIP3   OH234036   0.362   6.298   5.078  0.4374 -0.1912 -0.2499
 4182TIP3    H134037   0.369   6.272   4.987  0.1648 -2.2312  0.2800
 4182TIP3    H234038   0.313   6.380   5.076 -1.2359 -1.1805 -1.7996
 4183TIP3   OH234039   5.812   3.902   2.046  0.1298  0.0102 -0.6596
 4183TIP3    H134040   5.812   3.881   1.953 -2.0049 -2.0630 -0.3142
 4183TIP3    H234041   5.734   3.956   2.058 -0.2467 -0.6805  0.0690
 4184TIP3   OH234042   2.881   3.029   0.392 -0.2409 -0.4188 -0.5812
 4184TIP3    H134043   2.809   3.071   0.346  0.4219 -0.3089 -1.5537
 4184TIP3    H234044   2.948   3.097   0.401  0.5235 -1.0202 -1.4647
 4185TIP3   OH234045   5.511   3.880  15.944 -0.4846  0.1870 -0.0190
 4185TIP3    H134046   5.590   3.858  15.993 -0.5437  0.5592  0.2449
 4185TIP3    H234047   5.458   3.800  15.946 -0.7527  0.3839  1.0356
 4186TIP3   OH234048   4.361   2.015  15.993 -0.4002  0.3130  0.6908
 4186TIP3    H134049   4.346   1.957  15.919 -0.4505  1.0799  0.0924
 4186TIP3    H234050   4.426   1.970  16.046 -0.7238 -0.4658  0.4394
 4187TIP3   OH234051   4.488   2.664   1.964  0.1465 -0.6234 -0.3005
 4187TIP3    H134052   4.548   2.728   2.002 -2.0319  2.7293 -1.9865
 4187TIP3    H234053   4.514   2.658   1.872 -0.4621 -1.1319 -0.4508
 4188TIP3   OH234054   2.326   2.403  16.145  0.2129  0.7661  0.1481
 4188TIP3    H134055   2.299   2.464  16.213 -1.2701 -0.9709  1.1865
 4188TIP3    H234056   2.261   2.414  16.075  1.8592  2.7132 -1.2106
 4189TIP3   OH234057   1.392   5.302  13.968 -0.3274 -0.2764 -0.0431
 4189TIP3    H134058   1.311   5.253  13.982  0.0850 -1.8142 -2.3619
 4189TIP3    H234059   1.435   5.256  13.896  3.8885 -1.1497  2.6850
 4190TIP3   OH234060   2.407   3.989   6.175  0.5145  0.1991  0.1512
 4190TIP3    H134061   2.415   4.065   6.117 -1.0961  0.3632  0.0838
 4190TIP3    H234062   2.421   3.914   6.117  3.5832  0.3843  0.4874
 4191TIP3   OH234063   3.939   0.586   5.198  0.6360 -0.3144 -0.0653
 4191TIP3    H134064   3.991   0.517   5.156  0.2165 -1.2875  0.9627
 4191TIP3    H234065   3.996   0.619   5.268  0.8499  0.4304 -0.5776
 4192TIP3   OH234066   5.073   5.146   4.125  0.0000  0.4609 -0.4373
 4192TIP3    H134067   5.166   5.147   4.146 -0.4794  0.3762  1.8568
 4192TIP3    H234068   5.070   5.173   4.032  2.1943  1.7309 -0.2254
 4193TIP3   OH234069   3.168   5.340  10.523 -0.3832  0.2710  0.1991
 4193TIP3    H134070   3.176   5.244  10.516 -0.3933  0.3309 -0.8849
 4193TIP3    H234071   3.074   5.356  10.531 -0.5925  0.2753 -1.8168
 4194TIP3   OH234072   2.770   1.252  13.214 -0.2193 -0.1237  0.4449
 4194TIP3    H134073   2.780   1.160  13.236  0.1750 -0.2435 -0.2181
 4194TIP3    H234074   2.854   1.277  13.175 -1.8488 -0.8643 -4.2743
 4195TIP3   OH234075   4.481   0.183   3.356 -0.1359  0.2406 -0.2551
 4195TIP3    H134076   4.486   0.088   3.348  1.0575  0.2485  0.1529
 4195TIP3    H234077   4.497   0.216   3.268  1.1005  0.0865 -0.1019
 4196TIP3   OH234078   4.568   5.353   3.811 -0.2587  0.1378 -0.3741
 4196TIP3    H134079   4.560   5.444   3.839  1.6378  1.0049 -2.3541
 4196TIP3    H234080   4.491   5.337   3.756 -0.8527  0.3511  0.3771
 4197TIP3   OH234081   5.132   6.466   2.847  0.3286  0.3908 -0.3788
 4197TIP3    H134082   5.144   6.462   2.942  1.8745 -1.1130 -0.5926
 4197TIP3    H234083   5.084   6.386   2.825  2.0996 -0.5203 -1.0957
 4198TIP3   OH234084   2.879   5.526  15.531 -0.0607 -0.2998  0.2752
 4198TIP3    H134085   2.850   5.463  15.465  0.2491  0.4934 -0.6405
 4198TIP3    H234086   2.963   5.491  15.562  0.9317  0.4540 -1.4123
 4199TIP3   OH234087   5.166   6.666  11.556  0.3812 -0.4070 -0.2497
 4199TIP3    H134088   5.216   6.601  11.606  1.3121 -0.1644 -0.8422
 4199TIP3    H234089   5.227   6.696  11.488 -0.4628  0.1522 -0.7750
 4200TIP3   OH234090   1.712   1.990   5.596  0.0322  0.1308  0.0163
 4200TIP3    H134091   1.743   1.944   5.518  0.0008  1.2459 -0.6650
 4200TIP3    H234092   1.771   2.065   5.605  0.6223 -0.4759  1.6088
 4201TIP3   OH234093   5.552   3.749  16.924  0.4793 -0.1652  0.2477
 4201TIP3    H134094   5.559   3.685  16.996 -1.9251 -0.3547  0.3776
 4201TIP3    H234095   5.632   3.801  16.931  1.1645 -1.3499  1.9177
 4202TIP3   OH234096   1.839   2.195   4.919 -0.2324  0.2323 -0.0672
 4202TIP3    H134097   1.754   2.213   4.961  0.0459  0.4278  0.4138
 4202TIP3    H234098   1.836   2.102   4.898 -1.4151  0.6225 -1.9595
 4203TIP3   OH234099   5.371   3.987   4.406  0.1681  0.2671 -0.0916
 4203TIP3    H134100   5.443   3.926   4.422  1.4854  1.2730 -1.9482
 4203TIP3    H234101   5.352   4.024   4.492  1.4907 -0.4092  0.5250
 4204TIP3   OH234102   0.301   2.185   2.829  0.0774  0.6356  0.9960
 4204TIP3    H134103   0.332   2.275   2.829 -0.5569  0.8542  1.7698
 4204TIP3    H234104   0.223   2.185   2.884 -1.0907  0.0134 -0.5525
 4205TIP3   OH234105   5.467   5.930   1.953 -0.2526 -0.4368  0.1531
 4205TIP3    H134106   5.475   6.017   1.991  0.9854 -0.9018  1.0159
 4205TIP3    H234107   5.511   5.936   1.869 -0.4737 -0.1384  0.0586
 4206TIP3   OH234108   3.113   0.247  12.153  0.6600  0.1538  0.1053
 4206TIP3    H134109   3.193   0.202  12.178  1.3099  0.3130 -1.5866
 4206TIP3    H234110   3.127   0.338  12.179  0.1555 -0.1810  1.6847
 4207TIP3   OH234111   4.610   1.270  11.031 -0.2666  0.0170 -0.3471
 4207TIP3    H134112   4.685   1.287  11.088 -1.3470 -0.0664  1.1425
 4207TIP3    H234113   4.649   1.240  10.948  1.3200 -0.4827  0.5423
 4208TIP3   OH234114   4.925   5.732  16.976  0.3289  0.2553  0.2896
 4208TIP3    H134115   4.920   5.763  16.885  0.6086 -0.2391  0.0996
 4208TIP3    H234116   5.017   5.708  16.987  0.6240  1.6757  1.1610
 4209TIP3   OH234117   0.710   4.200   4.361 -0.1641 -0.0650 -0.4204
 4209TIP3    H134118   0.689   4.110   4.388  1.2435 -0.2642  0.0958
 4209TIP3    H234119   0.631   4.231   4.317 -1.5691 -0.6880  1.5514
 4210TIP3   OH234120   4.687   5.870   3.451  0.3850  0.0884 -0.2166
 4210TIP3    H134121   4.695   5.966   3.451  2.4063 -0.0125 -1.5677
 4210TIP3    H234122   4.602   5.853   3.410 -0.0156  1.2971  0.0794
 4211TIP3   OH234123   2.664   4.242   3.498  0.0433 -0.4347 -0.2746
 4211TIP3    H134124   2.616   4.159   3.505 -0.4664 -0.2203 -1.0004
 4211TIP3    H234125   2.609   4.296   3.442 -0.4984  1.0389  1.5738
 4212TIP3   OH234126   3.520   1.812   0.276  0.3685  0.4934 -0.3687
 4212TIP3    H134127   3.557   1.897   0.300  1.6663  0.3995 -1.8836
 4212TIP3    H234128   3.524   1.760   0.356 -0.5967  1.8845  0.6187
 4213TIP3   OH234129   4.352   2.132  16.636  0.0234  0.1313 -0.2911
 4213TIP3    H134130   4.382   2.116  16.547  0.3640  0.6975 -0.2859
 4213TIP3    H234131   4.307   2.051  16.662 -1.5395  0.5421 -1.5549
 4214TIP3   OH234132   4.724   4.057  13.560  0.3403 -0.6703 -0.5531
 4214TIP3    H134133   4.662   3.996  13.518  1.4818 -1.7647 -0.7071
 4214TIP3    H234134   4.810   4.029  13.528  0.8061  2.4068 -2.3868
 4215TIP3   OH234135   6.160   2.952   2.286 -0.1305 -0.1237  0.1446
 4215TIP3    H134136   6.125   3.000   2.211  1.0041 -0.8393 -0.8699
 4215TIP3    H234137   6.206   3.019   2.337 -0.0316  0.1942 -0.3473
 4216TIP3   OH234138   5.970   4.058  13.255 -0.0159  0.3235  0.3541
 4216TIP3    H134139   5.997   3.982  13.305 -0.0589  1.1383  1.6723
 4216TIP3    H234140   6.032   4.062  13.182 -1.3939 -2.2405 -1.0656
 4217TIP3   OH234141   2.563   4.334  13.443  0.0950 -0.1134  0.7604
 4217TIP3    H134142   2.467   4.328  13.440  0.1816 -1.5287  0.0208
 4217TIP3    H234143   2.591   4.324  13.352  0.8969  2.3773  0.6541
 4218TIP3   OH234144   5.270   1.562  12.211  0.0879 -0.5114 -0.1792
 4218TIP3    H134145   5.268   1.478  12.165 -0.0641  0.3443 -1.8138
 4218TIP3    H234146   5.297   1.625  12.144  0.5555  0.6993  1.1020
 4219TIP3   OH234147   2.879   3.374  16.031  0.2034 -0.0040  0.1897
 4219TIP3    H134148   2.921   3.309  15.975 -0.0372  0.5319 -0.6315
 4219TIP3    H234149   2.927   3.455  16.014 -0.2258  0.2870  0.3457
 4220TIP3   OH234150   1.931   6.677   1.654  0.1123  0.6434  0.0629
 4220TIP3    H134151   1.883   6.696   1.573 -0.9644  2.4415  1.0671
 4220TIP3    H234152   1.950   6.763   1.691 -0.4641 -0.1390  2.3160
 4221TIP3   OH234153   3.969   0.123   3.396 -0.3165 -0.5921 -0.2356
 4221TIP3    H134154   4.019   0.071   3.334 -0.2698 -0.4360 -0.3270
 4221TIP3    H234155   3.960   0.066   3.473 -0.9187 -1.0262 -0.6189
 4222TIP3   OH234156   4.459   2.535   6.212 -0.2880 -0.2858  0.3165
 4222TIP3    H134157   4.439   2.624   6.240  2.2920  0.5142 -0.0285
 4222TIP3    H234158   4.545   2.517   6.250  0.1834 -1.8096 -1.3182
 4223TIP3   OH234159   4.341   1.512   2.677 -0.4586 -0.2016 -0.3982
 4223TIP3    H134160   4.427   1.473   2.664 -0.1270  0.1359  0.7169
 4223TIP3    H234161   4.349   1.600   2.640 -0.2504 -0.0903 -0.0926
 4224TIP3   OH234162   3.345   6.542  11.227  0.0038 -0.2547 -0.6121
 4224TIP3    H134163   3.267   6.498  11.193  0.4544 -2.0759  0.5647
 4224TIP3    H234164   3.414   6.522  11.164  0.7664 -3.3775  0.9807
 4225TIP3   OH234165   2.488   2.557  13.367  0.1448  0.1760 -0.1213
 4225TIP3    H134166   2.489   2.466  13.337  0.5499  0.0645  0.2368
 4225TIP3    H234167   2.557   2.562  13.433  1.0987  1.0895 -1.1463
 4226TIP3   OH234168   0.616   3.974   4.795 -0.0034 -0.4026 -0.0125
 4226TIP3    H134169   0.572   3.893   4.820  0.7511 -0.2203  2.1884
 4226TIP3    H234170   0.684   3.985   4.862  0.4563  1.6080 -0.7447
 4227TIP3   OH234171   5.774   5.816   0.851 -0.4887 -0.2847  0.1644
 4227TIP3    H134172   5.823   5.868   0.915 -1.8278 -0.3086  1.2488
 4227TIP3    H234173   5.684   5.818   0.882 -0.9697 -1.3314 -1.0673
 4228TIP3   OH234174   5.798   4.616  10.556 -0.0943 -0.4979 -0.4241
 4228TIP3    H134175   5.715   4.580  10.588 -0.7304 -2.0567 -3.4375
 4228TIP3    H234176   5.779   4.707  10.535 -0.9738 -0.7547 -0.7805
 4229TIP3   OH234177   1.630   5.541  10.978  0.2092  0.0234 -0.2966
 4229TIP3    H134178   1.621   5.493  10.896  1.1785 -1.7974  0.6007
 4229TIP3    H234179   1.722   5.567  10.981  0.5050 -1.0590  0.7643
 4230TIP3   OH234180   4.468   5.437  12.918  0.0627 -0.1953 -0.0284
 4230TIP3    H134181   4.392   5.488  12.946  0.2973  0.7776 -1.0792
 4230TIP3    H234182   4.531   5.446  12.989 -0.3336  0.0479  0.2953
 4231TIP3   OH234183   2.216   5.732   3.526  0.5688  0.5647 -0.2354
 4231TIP3    H134184   2.203   5.663   3.592 -0.8493  1.0430  0.0393
 4231TIP3    H234185   2.308   5.725   3.501  0.1600 -2.4280 -1.3582
 4232TIP3   OH234186   4.513   3.211   3.600  0.1841  0.7675 -0.0046
 4232TIP3    H134187   4.457   3.192   3.525  1.2317  1.0222 -0.8813
 4232TIP3    H234188   4.470   3.167   3.674 -0.6322  0.1372 -0.8320
 4233TIP3   OH234189   2.528   6.081   4.469  0.0132 -0.2690  0.4289
 4233TIP3    H134190   2.443   6.096   4.511  0.0171 -2.0979  1.1740
 4233TIP3    H234191   2.580   6.157   4.493 -2.3279  2.6851 -2.8286
 4234TIP3   OH234192   3.225   2.087   4.684 -0.4725 -0.3712 -0.1813
 4234TIP3    H134193   3.161   2.032   4.640  0.7558 -0.9043 -1.3909
 4234TIP3    H234194   3.248   2.153   4.619  0.1954 -0.1854  0.2359
 4235TIP3   OH234195   1.371   5.855   5.058  0.0892 -0.1006 -0.4704
 4235TIP3    H134196   1.406   5.923   5.115 -0.7171 -0.7907  0.8971
 4235TIP3    H234197   1.449   5.814   5.019  0.8401 -1.1264  1.9420
 4236TIP3   OH234198   1.877   0.940   1.217  0.0466 -0.5766 -0.0798
 4236TIP3    H134199   1.855   0.855   1.180 -0.4223 -1.6964  2.5274
 4236TIP3    H234200   1.796   0.971   1.258  0.7235  0.1263  0.7817
 4237TIP3   OH234201   1.014   1.686  12.391  0.1860  0.0031 -0.6656
 4237TIP3    H134202   0.928   1.725  12.373 -0.6447 -1.3266  0.3304
 4237TIP3    H234203   1.053   1.675  12.304  0.2350  2.4823 -1.0352
 4238TIP3   OH234204   6.322   3.152   3.328 -0.6500  0.6494  0.4599
 4238TIP3    H134205   6.375   3.133   3.405 -0.3870  1.9926  0.6495
 4238TIP3    H234206   6.383   3.196   3.268 -0.7705 -0.6417 -0.6643
 4239TIP3   OH234207   3.414   3.824  12.493  0.2910 -0.4476 -0.1352
 4239TIP3    H134208   3.485   3.888  12.487 -0.1853  0.0671 -0.3867
 4239TIP3    H234209   3.341   3.873  12.530  0.1393 -1.0390  0.3675
 4240TIP3   OH234210   5.607   6.491   3.715  0.2118  0.0627  0.8395
 4240TIP3    H134211   5.663   6.547   3.769  0.2312  1.8676 -0.9106
 4240TIP3    H234212   5.647   6.405   3.718  1.1553  0.5292  2.3073
 4241TIP3   OH234213   1.023   0.628   1.347 -0.0844 -0.9895  0.1809
 4241TIP3    H134214   0.997   0.536   1.348 -1.0607 -0.7475 -1.0404
 4241TIP3    H234215   0.955   0.673   1.398  0.0345 -0.8602  0.2273
 4242TIP3   OH234216   0.751   4.260  13.677  0.6910 -0.3446 -0.2953
 4242TIP3    H134217   0.710   4.346  13.669  0.3284 -0.1811  2.3421
 4242TIP3    H234218   0.843   4.276  13.657  0.3348  0.2829 -1.5231
 4243TIP3   OH234219   0.739   5.799  15.230 -0.0145 -0.3096 -0.6388
 4243TIP3    H134220   0.660   5.814  15.178 -0.3836 -0.9016 -0.2568
 4243TIP3    H234221   0.780   5.722  15.191  1.5364  1.2155 -2.1911
 4244TIP3   OH234222   1.935   6.220  16.093 -1.3632 -0.3769 -0.3591
 4244TIP3    H134223   2.017   6.178  16.070 -1.7432 -1.4881  0.2581
 4244TIP3    H234224   1.925   6.204  16.187 -1.4168  1.2905 -0.0397
 4245TIP3   OH234225   3.053   1.902   2.268  0.3635  0.2103  0.1678
 4245TIP3    H134226   3.006   1.970   2.316  2.5229  0.9787  1.2888
 4245TIP3    H234227   3.100   1.853   2.335  0.4197 -1.1631 -0.8294
 4246TIP3   OH234228   4.848   2.074  12.091 -0.1474 -0.3353  0.7836
 4246TIP3    H134229   4.764   2.116  12.073 -0.6068 -1.6442 -0.2472
 4246TIP3    H234230   4.910   2.117  12.031 -0.4698 -0.6554  0.2205
 4247TIP3   OH234231   5.430   3.139  16.243  0.2511 -0.6406  0.3109
 4247TIP3    H134232   5.454   3.064  16.188  1.6449  1.7888 -2.6912
 4247TIP3    H234233   5.509   3.193  16.247 -0.4460  0.3213  3.1096
 4248TIP3   OH234234   1.695   1.357  13.528  0.2479  0.4232  0.4843
 4248TIP3    H134235   1.751   1.431  13.501  0.7441 -0.1127  0.0313
 4248TIP3    H234236   1.757   1.287  13.549 -0.2342  0.0520  0.6720
 4249TIP3   OH234237   3.338   4.185  14.945  0.2410  0.0007  0.2270
 4249TIP3    H134238   3.355   4.185  14.851  1.6580  1.0232  0.4545
 4249TIP3    H234239   3.328   4.093  14.968  1.5634 -0.3829 -0.6482
 4250TIP3   OH234240   4.598   1.840  11.123  0.2427  0.2906 -0.9284
 4250TIP3    H134241   4.658   1.897  11.171  1.1616 -0.6705 -0.9042
 4250TIP3    H234242   4.596   1.877  11.035  1.1213  0.1635 -1.0127
 4251TIP3   OH234243   3.401   4.345  13.865  0.0966 -0.4162  0.0294
 4251TIP3    H134244   3.378   4.408  13.797 -0.3716 -0.3570  0.2439
 4251TIP3    H234245   3.424   4.265  13.816  0.7181 -0.0791 -0.2409
 4252TIP3   OH234246   2.726   5.982  15.243  0.3780 -0.1033  0.2144
 4252TIP3    H134247   2.780   6.062  15.246 -0.2090  0.3189 -0.3565
 4252TIP3    H234248   2.652   6.005  15.187 -0.7213 -0.4872  1.4746
 4253TIP3   OH234249   5.111   5.604  13.532 -0.3381  0.9783  0.8291
 4253TIP3    H134250   5.153   5.626  13.449  1.1953  1.0389  1.5916
 4253TIP3    H234251   5.019   5.626  13.519 -0.3128  0.1555 -1.1539
 4254TIP3   OH234252   0.593   2.322  14.571  0.3494  0.4107 -0.7713
 4254TIP3    H134253   0.590   2.360  14.483  2.3489 -1.0062 -1.5267
 4254TIP3    H234254   0.529   2.251  14.569 -0.6778  1.3128 -0.5737
 4255TIP3   OH234255   5.458   6.544  13.448  0.5350  0.1786  0.1386
 4255TIP3    H134256   5.418   6.500  13.523  0.3957 -0.1816 -0.1427
 4255TIP3    H234257   5.439   6.487  13.374 -0.0296  0.9291 -0.3114
 4256TIP3   OH234258   0.771   5.310  13.044  0.0976 -0.2339 -0.1601
 4256TIP3    H134259   0.827   5.272  12.976 -1.0185 -0.9520 -0.7164
 4256TIP3    H234260   0.736   5.390  13.005  1.2372  0.5769  0.4381
 4257TIP3   OH234261   6.633   0.476  15.710 -0.0512 -0.2888  0.0342
 4257TIP3    H134262   6.546   0.505  15.682 -0.1650  0.7362  1.3252
 4257TIP3    H234263   6.694   0.530  15.660 -0.0799 -1.8048 -1.7322
 4258TIP3   OH234264   4.910   6.743   0.876  0.5442  0.6636  0.6777
 4258TIP3    H134265   4.835   6.690   0.903  1.2608 -0.5271  0.3908
 4258TIP3    H234266   4.871   6.824   0.843 -0.8018 -0.7246 -1.3715
 4259TIP3   OH234267   0.570   6.707   5.654 -0.2740  0.0630 -0.3369
 4259TIP3    H134268   0.636   6.640   5.639  0.1739  0.3875  0.1669
 4259TIP3    H234269   0.614   6.774   5.706 -1.3027 -0.2753  1.0390
 4260TIP3   OH234270   4.423   3.546   5.902  0.4665 -0.3697 -0.1420
 4260TIP3    H134271   4.377   3.493   5.967 -0.1963  2.1676  1.6139
 4260TIP3    H234272   4.383   3.521   5.818  0.0499 -2.4193  0.6117
 4261TIP3   OH234273   1.312   0.357  16.934 -0.3023 -0.2203 -0.6643
 4261TIP3    H134274   1.298   0.387  16.844  0.4867 -1.1050 -1.0933
 4261TIP3    H234275   1.311   0.262  16.928  3.1343 -0.4173 -0.3638
 4262TIP3   OH234276   4.912   1.139  15.296 -0.1267  0.3053  0.2721
 4262TIP3    H134277   4.939   1.076  15.363  1.7965 -2.6883 -2.9962
 4262TIP3    H234278   4.988   1.195  15.284 -0.2782  0.5066  0.2525
 4263TIP3   OH234279   3.831   6.692  11.254  0.0262 -0.0176  0.4342
 4263TIP3    H134280   3.748   6.684  11.208 -0.3990  0.6734  1.0730
 4263TIP3    H234281   3.824   6.773  11.304  1.2804  0.3218  0.1029
 4264TIP3   OH234282   5.494   3.133   6.184 -0.2361 -0.2098 -0.1542
 4264TIP3    H134283   5.535   3.105   6.102  0.8058  2.4551 -0.6652
 4264TIP3    H234284   5.400   3.122   6.170 -0.0367 -0.3261 -1.5060
 4265TIP3   OH234285   1.740   3.232   4.377  0.3356 -0.0641 -0.3117
 4265TIP3    H134286   1.673   3.243   4.444 -0.0971  2.7330 -1.0823
 4265TIP3    H234287   1.821   3.219   4.426 -0.0029  1.7473  0.8203
 4266TIP3   OH234288   1.753   0.408   5.167 -0.1575 -0.0857 -0.0800
 4266TIP3    H134289   1.735   0.453   5.085  0.8200  3.2049  1.3418
 4266TIP3    H234290   1.834   0.360   5.152 -1.1620 -1.3883 -1.6221
 4267TIP3   OH234291   5.300   0.476  11.613 -0.2021  0.2973 -0.0071
 4267TIP3    H134292   5.302   0.538  11.686  0.0085  0.5329 -0.2115
 4267TIP3    H234293   5.210   0.442  11.613  0.4753 -1.7070  2.0102
 4268TIP3   OH234294   0.218   3.107  16.878 -0.3076  0.1940  0.5473
 4268TIP3    H134295   0.128   3.135  16.895 -0.2351 -0.3194  1.8642
 4268TIP3    H234296   0.242   3.153  16.797 -1.4862  0.9280  0.5851
 4269TIP3   OH234297   4.296   3.349   6.048 -0.1421  0.2158  0.1941
 4269TIP3    H134298   4.214   3.354   6.096 -0.2253 -1.5942  0.3209
 4269TIP3    H234299   4.352   3.293   6.103  0.1618 -0.9335 -1.2198
 4270TIP3   OH234300   0.608   2.425  15.455  0.3960 -0.0055  0.8824
 4270TIP3    H134301   0.651   2.471  15.383  2.2002 -0.4563  1.5974
 4270TIP3    H234302   0.661   2.449  15.532 -0.7512 -0.4973  1.8422
 4271TIP3   OH234303   0.218   5.851  12.470 -0.0632 -0.0274  0.2761
 4271TIP3    H134304   0.228   5.880  12.379 -0.6763 -1.4165 -0.2677
 4271TIP3    H234305   0.302   5.872  12.511  0.1738  0.7528 -0.5568
 4272TIP3   OH234306   6.582   3.665   4.682  0.3854 -0.2149 -0.2696
 4272TIP3    H134307   6.664   3.705   4.711  0.7499  0.6963 -2.3178
 4272TIP3    H234308   6.527   3.739   4.654 -0.0463 -0.9393 -1.4681
 4273TIP3   OH234309   5.854   3.915  16.708  0.5741 -0.2006  0.1898
 4273TIP3    H134310   5.883   3.839  16.657  1.0734  0.2291 -0.1848
 4273TIP3    H234311   5.932   3.970  16.714  0.7143 -0.5455  2.0044
 4274TIP3   OH234312   3.472   0.040  12.139  0.6295 -0.0431  0.0651
 4274TIP3    H134313   3.485   0.087  12.056 -0.2400 -1.0841 -0.6813
 4274TIP3    H234314   3.533  -0.034  12.134  0.8462  0.0984  0.5345
 4275TIP3   OH234315   4.573   5.748  11.437  0.0564  0.5901  0.4568
 4275TIP3    H134316   4.500   5.809  11.422 -0.5226 -0.1140  0.3401
 4275TIP3    H234317   4.532   5.671  11.477  0.9690  0.7933  1.8534
 4276TIP3   OH234318   3.690   1.956  14.387 -0.1930 -0.2600 -0.2892
 4276TIP3    H134319   3.713   1.963  14.480  0.8424 -2.4102 -0.3246
 4276TIP3    H234320   3.720   2.039  14.349  0.1256  0.3196  1.1367
 4277TIP3   OH234321   2.332   6.013  13.764  0.2646  0.2609 -0.0138
 4277TIP3    H134322   2.241   6.016  13.792  0.1443  0.1829 -0.3934
 4277TIP3    H234323   2.376   5.962  13.832  0.2550  1.2744  0.7727
 4278TIP3   OH234324   1.494   1.120  15.555 -0.2575 -0.0754  0.0265
 4278TIP3    H134325   1.412   1.119  15.605  0.1361  1.6717  0.7713
 4278TIP3    H234326   1.560   1.087  15.617  0.1570  1.7015  0.5882
 4279TIP3   OH234327   4.708   2.778   2.350  0.6334 -0.5965 -0.0672
 4279TIP3    H134328   4.769   2.818   2.411 -0.9364  1.2157  0.4129
 4279TIP3    H234329   4.708   2.835   2.273  0.5269 -1.3187 -0.6260
 4280TIP3   OH234330   0.986   0.763   2.159 -0.0652 -0.1576 -0.5445
 4280TIP3    H134331   0.988   0.704   2.235  1.2220 -0.6768 -0.9555
 4280TIP3    H234332   1.047   0.833   2.182  0.1304 -0.1817 -0.9815
 4281TIP3   OH234333   3.183   4.012  16.872 -0.1379  0.1295 -0.3088
 4281TIP3    H134334   3.243   3.997  16.799 -2.1260  0.0502 -2.0328
 4281TIP3    H234335   3.177   4.107  16.879  0.1774  0.1380 -0.1231
 4282TIP3   OH234336   6.124   0.032  10.469  0.0777 -0.1921 -0.1131
 4282TIP3    H134337   6.049   0.008  10.522 -0.2809  0.1648 -0.4500
 4282TIP3    H234338   6.088   0.047  10.381  0.8361 -1.8980 -0.7439
 4283TIP3   OH234339   3.491   0.330  16.380  0.2259  0.2504  0.0354
 4283TIP3    H134340   3.401   0.344  16.351 -0.0745 -1.2864  0.1396
 4283TIP3    H234341   3.494   0.238  16.405  1.3158  0.7487  1.9100
 4284TIP3   OH234342   5.978   3.911   2.595 -0.1166  0.0553  0.2716
 4284TIP3    H134343   6.001   3.965   2.519 -0.7870  1.4270  0.9924
 4284TIP3    H234344   6.052   3.920   2.654  0.6564 -1.4708 -0.4218
 4285TIP3   OH234345   6.023   2.149  12.512 -0.6462  0.1619 -0.3232
 4285TIP3    H134346   6.076   2.150  12.592 -0.6512  0.1065 -0.3195
 4285TIP3    H234347   6.075   2.198  12.448 -1.3652  1.6405  0.1688
 4286TIP3   OH234348   1.252   4.022   3.603 -0.2957  0.0023 -0.5400
 4286TIP3    H134349   1.222   3.944   3.650 -2.1325  0.6669 -0.4923
 4286TIP3    H234350   1.347   4.012   3.596 -0.5655 -2.6379 -1.3043
 4287TIP3   OH234351   2.630   5.602  14.991 -0.1645  0.0806 -0.7643
 4287TIP3    H134352   2.615   5.644  15.075  1.1984 -0.4919 -0.2030
 4287TIP3    H234353   2.580   5.521  14.995  1.3219 -0.8405  0.2749
 4288TIP3   OH234354   0.467   2.421   2.882 -0.0569  0.2350 -0.2962
 4288TIP3    H134355   0.514   2.453   2.958  1.2206 -3.1538  0.5016
 4288TIP3    H234356   0.412   2.495   2.855 -0.2977  1.7169  3.6329
 4289TIP3   OH234357   5.470   6.818  16.467 -0.1681  0.4704 -0.1714
 4289TIP3    H134358   5.417   6.789  16.393 -0.5669  1.6860 -0.3822
 4289TIP3    H234359   5.454   6.912  16.473  2.1243  0.9361 -0.3794
 4290TIP3   OH234360   4.602   2.308   3.122 -0.0120 -0.3568 -0.4004
 4290TIP3    H134361   4.647   2.386   3.089 -0.5452 -0.1420 -0.6287
 4290TIP3    H234362   4.672   2.251   3.152  0.3523  0.5323  0.4859
 4291TIP3   OH234363   6.414   5.520  14.737  0.0696 -0.8211 -0.1005
 4291TIP3    H134364   6.398   5.513  14.643  1.5661 -2.2882 -0.2870
 4291TIP3    H234365   6.358   5.592  14.766 -0.1359 -0.0966 -2.1765
 4292TIP3   OH234366   1.673   1.600  14.411 -0.2182  0.9744  0.0230
 4292TIP3    H134367   1.645   1.688  14.386  0.2655  0.4371 -2.6226
 4292TIP3    H234368   1.676   1.551  14.329 -0.0290 -1.4087  1.3704
 4293TIP3   OH234369   1.632   5.790   5.819 -0.7215  0.0664  0.3093
 4293TIP3    H134370   1.680   5.719   5.778 -1.8334  0.2801 -1.4646
 4293TIP3    H234371   1.545   5.755   5.835 -1.2043  0.9331 -0.3437
 4294TIP3   OH234372   3.301   4.873  16.500  0.6077  0.0043 -0.3216
 4294TIP3    H134373   3.220   4.834  16.533  0.3849 -0.2119 -1.1056
 4294TIP3    H234374   3.299   4.857  16.406  1.1456  0.7719 -0.4744
 4295TIP3   OH234375   1.350   5.952  13.080  0.0693 -0.9083 -0.6374
 4295TIP3    H134376   1.352   5.994  12.994  1.7966 -1.3648 -0.8380
 4295TIP3    H234377   1.399   6.011  13.137 -1.7002 -0.2156  0.2735
 4296TIP3   OH234378   1.677   1.528  14.696  0.1557 -0.4134  0.0457
 4296TIP3    H134379   1.698   1.621  14.692  0.9304 -0.5843  0.0875
 4296TIP3    H234380   1.684   1.498  14.605 -0.1037 -0.4340  0.0303
 4297TIP3   OH234381   2.527   1.977  16.189 -0.6426  0.4819 -0.0959
 4297TIP3    H134382   2.518   2.035  16.114 -0.6403  1.0777  0.3574
 4297TIP3    H234383   2.453   1.916  16.181 -1.6304  1.5877  0.3240
 4298TIP3   OH234384   4.321   5.863  12.892 -0.3215 -0.0573 -0.1868
 4298TIP3    H134385   4.405   5.899  12.866  0.1500 -0.1218  1.1637
 4298TIP3    H234386   4.296   5.805  12.820  1.8246 -1.7099  0.2922
 4299TIP3   OH234387   5.354   0.803  14.899  0.2149  0.2614  0.1239
 4299TIP3    H134388   5.287   0.746  14.862  3.2580 -3.3790 -0.4032
 4299TIP3    H234389   5.395   0.844  14.822  0.5225  0.1021  0.2022
 4300TIP3   OH234390   2.779   2.123   3.689  0.2489 -0.3470  0.3867
 4300TIP3    H134391   2.780   2.163   3.602  1.4105 -0.0579  0.5152
 4300TIP3    H234392   2.687   2.102   3.704 -0.2503  1.2298 -0.1768
 4301TIP3   OH234393   1.404   1.553  12.283 -0.1895 -0.2462 -0.0379
 4301TIP3    H134394   1.315   1.520  12.272 -1.1168  1.9574  0.3635
 4301TIP3    H234395   1.442   1.496  12.350 -1.6243 -0.6138  0.5082
 4302TIP3   OH234396   1.854   4.936   3.688 -0.2349  0.4566  0.4855
 4302TIP3    H134397   1.830   4.843   3.696 -1.0677  0.5835 -0.4109
 4302TIP3    H234398   1.832   4.973   3.773 -3.0953  0.5049 -0.1794
 4303TIP3   OH234399   4.991   1.285   0.690 -0.1076  0.2847 -0.0791
 4303TIP3    H134400   4.976   1.357   0.752  1.9316 -0.4752  1.4163
 4303TIP3    H234401   5.040   1.325   0.618  0.9288  0.4306  0.6986
 4304TIP3   OH234402   0.914   0.222   1.014  0.0800 -0.1943  0.2313
 4304TIP3    H134403   0.925   0.220   0.919  0.0742  0.5271  0.2113
 4304TIP3    H234404   0.897   0.131   1.038  1.6291 -0.6440 -0.2668
 4305TIP3   OH234405   4.522   0.432   5.361 -0.1757 -0.3140 -0.3408
 4305TIP3    H134406   4.557   0.398   5.279 -1.9608 -1.4660 -0.6952
 4305TIP3    H234407   4.518   0.355   5.419  0.3132  0.3193  0.5482
 4306TIP3   OH234408   4.457   5.216  13.422 -0.0918  0.1335  0.0554
 4306TIP3    H134409   4.388   5.216  13.356  0.2067 -1.9747 -0.3010
 4306TIP3    H234410   4.412   5.202  13.504 -0.2150  0.1486 -0.0092
 4307TIP3   OH234411   2.251   3.941   4.300  0.1366 -0.1362  0.0312
 4307TIP3    H134412   2.165   3.970   4.332 -0.5556 -2.0617  0.0553
 4307TIP3    H234413   2.314   3.983   4.359 -0.8501  0.3594  0.7656
 4308TIP3   OH234414   0.760   2.796  10.853 -0.2151 -0.2087 -0.4868
 4308TIP3    H134415   0.769   2.875  10.799  0.1509  0.2542  0.2506
 4308TIP3    H234416   0.789   2.725  10.795 -1.0511  0.1151 -1.3364
 4309TIP3   OH234417   0.195   4.893   5.372 -0.3418 -0.2915  0.3444
 4309TIP3    H134418   0.240   4.975   5.393 -2.0222  0.5263  0.9213
 4309TIP3    H234419   0.203   4.885   5.277  0.6004  0.0666  0.3842
 4310TIP3   OH234420   0.042   5.686  12.607 -0.1131  0.1436  0.2851
 4310TIP3    H134421   0.035   5.607  12.553  0.1332 -0.2219  0.7777
 4310TIP3    H234422   0.104   5.742  12.560 -0.1697 -0.0228  0.0098
 4311TIP3   OH234423   0.958   4.390  15.696  0.3447 -0.3577 -0.0696
 4311TIP3    H134424   0.881   4.446  15.692 -0.0938 -0.8728  0.8223
 4311TIP3    H234425   0.931   4.316  15.752  1.6946 -0.1853  0.8579
 4312TIP3   OH234426   3.490   5.177  15.748 -0.1940 -0.5363 -0.4198
 4312TIP3    H134427   3.472   5.149  15.838  0.5955 -0.3038 -0.1813
 4312TIP3    H234428   3.581   5.207  15.750 -0.2778 -0.2040 -1.2187
 4313TIP3   OH234429   0.300   2.384  14.412  0.6135  0.0033 -0.1612
 4313TIP3    H134430   0.272   2.371  14.322  2.0821  0.7960 -0.7552
 4313TIP3    H234431   0.321   2.477  14.418 -1.0448  0.3476  1.4998
 4314TIP3   OH234432   2.001   0.588   2.691 -0.0154  0.0826  0.2594
 4314TIP3    H134433   1.935   0.520   2.676  0.3331 -0.2262  0.0840
 4314TIP3    H234434   2.066   0.574   2.621  0.3001  0.2940  0.5065
 4315TIP3   OH234435   4.429   1.240   4.471 -0.0359  0.2714 -0.0334
 4315TIP3    H134436   4.483   1.288   4.408  0.2129 -2.0805 -1.7706
 4315TIP3    H234437   4.492   1.186   4.520 -0.3253  1.4468  1.7160
 4316TIP3   OH234438   3.155   6.563   1.600 -0.0715  0.4047 -0.1996
 4316TIP3    H134439   3.096   6.522   1.537 -1.6535 -0.1697  1.5730
 4316TIP3    H234440   3.137   6.657   1.592 -0.7260  0.2849 -0.1621
 4317TIP3   OH234441   2.762   5.169  12.389  0.1084 -0.3193 -0.0745
 4317TIP3    H134442   2.671   5.177  12.420  0.5459 -0.9771  1.4483
 4317TIP3    H234443   2.814   5.158  12.469  1.5474  0.0772 -0.9197
 4318TIP3   OH234444   2.835   2.566  14.014  0.0682  0.6897  0.2367
 4318TIP3    H134445   2.770   2.511  13.969  1.1983  0.1351 -0.7929
 4318TIP3    H234446   2.839   2.646  13.962 -2.0829  2.1259  2.1310
 4319TIP3   OH234447   4.976   6.285   2.735  0.3127  0.2973  0.0989
 4319TIP3    H134448   4.949   6.198   2.708  0.0695  1.2038 -2.8359
 4319TIP3    H234449   4.894   6.332   2.750  0.4255  0.4070  0.3771
 4320TIP3   OH234450   0.022   6.568   4.205  0.0198  0.1660  0.8838
 4320TIP3    H134451  -0.040   6.533   4.142  0.4106 -0.2490  0.7260
 4320TIP3    H234452   0.020   6.663   4.191 -2.0154  0.3973  2.2005
 4321TIP3   OH234453   3.111   4.904   5.441  0.9453  0.1453 -0.2888
 4321TIP3    H134454   3.026   4.911   5.483  1.2435 -0.7048  0.5123
 4321TIP3    H234455   3.145   4.993   5.438  0.1500  0.4473 -0.3533
 4322TIP3   OH234456   0.950   1.445   5.361  0.7349 -0.2604 -0.3313
 4322TIP3    H134457   0.858   1.465   5.374  0.7882 -0.1889 -0.0668
 4322TIP3    H234458   0.950   1.363   5.312  0.5356 -0.4328 -0.0458
 4323TIP3   OH234459   1.828   6.021  16.729  0.0398  0.2024 -0.2970
 4323TIP3    H134460   1.757   5.999  16.669 -0.2291 -0.6995  0.3321
 4323TIP3    H234461   1.786   6.075  16.796 -0.0529 -0.2942  0.0511
 4324TIP3   OH234462   4.120   0.493   4.994 -0.3200  0.1063  0.2250
 4324TIP3    H134463   4.199   0.542   5.018 -0.5366  1.0297 -0.8621
 4324TIP3    H234464   4.064   0.557   4.950 -2.0625 -0.3182  1.6981
 4325TIP3   OH234465   0.012   3.046  12.144 -0.5954  0.5521 -0.7654
 4325TIP3    H134466   0.021   3.006  12.057 -1.6874 -0.6902 -0.3446
 4325TIP3    H234467   0.022   2.973  12.205  1.5637  1.6147  0.2698
 4326TIP3   OH234468   3.220   3.972   6.145 -0.1840 -0.1298  0.2740
 4326TIP3    H134469   3.234   3.922   6.225 -2.4019 -0.8319  0.2900
 4326TIP3    H234470   3.162   4.043   6.170  0.2392  0.4918 -0.4420
 4327TIP3   OH234471   0.704   0.033  13.915 -0.4127  0.5495  0.1192
 4327TIP3    H134472   0.627   0.065  13.961 -0.4953  0.3846  0.0952
 4327TIP3    H234473   0.775   0.090  13.946 -0.2904 -0.1437  1.1652
 4328TIP3   OH234474   5.243   2.315  11.351  0.0439  0.0044 -0.2500
 4328TIP3    H134475   5.282   2.313  11.439  1.1037  0.6387 -0.6956
 4328TIP3    H234476   5.226   2.407  11.334 -2.6975 -0.2819  0.3325
 4329TIP3   OH234477   1.437   6.240  10.693  0.4324 -0.2475  0.1252
 4329TIP3    H134478   1.444   6.146  10.708 -0.2818 -0.3194  0.0217
 4329TIP3    H234479   1.378   6.248  10.618  0.7171  0.2730 -0.0470
 4330TIP3   OH234480   5.870   0.945  15.276 -0.9691  0.0606 -0.3966
 4330TIP3    H134481   5.873   0.961  15.182  1.0011  0.5595 -0.2828
 4330TIP3    H234482   5.916   1.019  15.316  0.5622 -1.4316  0.7542
 4331TIP3   OH234483   3.952   6.205  15.629 -0.2669 -0.2047  0.3778
 4331TIP3    H134484   3.868   6.163  15.641 -0.9943  1.3623  1.0839
 4331TIP3    H234485   4.017   6.137  15.648 -1.3130 -1.6829 -1.0567
 4332TIP3   OH234486   0.241   1.765   4.735 -0.1196  0.4675 -0.3152
 4332TIP3    H134487   0.167   1.825   4.729  0.2405  0.9463 -0.0719
 4332TIP3    H234488   0.233   1.709   4.658  0.0023  1.3646 -0.9974
 4333TIP3   OH234489   6.092   3.012   0.457 -0.6182  0.2205  0.4734
 4333TIP3    H134490   6.055   3.064   0.387 -1.1687 -0.8725 -0.0805
 4333TIP3    H234491   6.016   2.971   0.499 -0.2294  0.1402  1.1116
 4334TIP3   OH234492   5.079   2.162  13.485  0.3580  0.2697  0.6131
 4334TIP3    H134493   5.069   2.093  13.420  2.1751  0.6210 -0.1046
 4334TIP3    H234494   5.034   2.129  13.562 -1.4717 -0.3541 -0.6430
 4335TIP3   OH234495   1.904   3.384  14.252 -0.0516 -0.1178  0.0521
 4335TIP3    H134496   1.914   3.375  14.347  0.6021  1.3047  0.1278
 4335TIP3    H234497   1.809   3.376  14.238 -0.1259 -0.6452  0.7735
 4336TIP3   OH234498   6.221   1.398   1.631  0.2478  0.0705  0.0526
 4336TIP3    H134499   6.185   1.311   1.650 -0.5397  0.2716 -0.4915
 4336TIP3    H234500   6.152   1.443   1.582  1.1104  0.5863 -0.7184
 4337TIP3   OH234501   6.203   6.502   3.066 -0.1078  0.3532 -0.2017
 4337TIP3    H134502   6.258   6.459   3.001  0.5130 -0.8065  1.0332
 4337TIP3    H234503   6.125   6.446   3.073  0.5016 -0.3975  1.0832
 4338TIP3   OH234504   1.948   5.633  12.438  0.1969  0.4502 -0.3523
 4338TIP3    H134505   1.979   5.717  12.474  2.1519 -0.9163  1.4219
 4338TIP3    H234506   2.015   5.608  12.374 -0.3765  0.2264 -0.8771
 4339TIP3   OH234507   3.873   0.733   1.515 -0.1723  0.0480  0.1295
 4339TIP3    H134508   3.929   0.657   1.528  1.2034  0.5791 -2.1522
 4339TIP3    H234509   3.923   0.807   1.550 -1.7515 -0.0348  2.9047
 4340TIP3   OH234510   6.737   3.612   3.867 -0.0306  0.4032 -0.2659
 4340TIP3    H134511   6.666   3.655   3.819  1.2123 -0.6317 -3.2652
 4340TIP3    H234512   6.741   3.524   3.831  2.2997  0.2163  0.2792
 4341TIP3   OH234513   0.982   1.563  11.513 -0.0297  0.0889  0.0000
 4341TIP3    H134514   0.924   1.562  11.437 -1.2106 -0.4291  0.8696
 4341TIP3    H234515   1.052   1.501  11.492 -1.6110 -1.8704  0.2446
 4342TIP3   OH234516   3.862   0.759  11.951  0.3780  0.1996 -0.2319
 4342TIP3    H134517   3.859   0.815  12.028 -1.4781  0.2805 -0.3219
 4342TIP3    H234518   3.915   0.808  11.888  1.8257  0.1780  0.9068
 4343TIP3   OH234519   6.566   1.991   1.543 -0.8729  0.1177  0.1502
 4343TIP3    H134520   6.507   2.058   1.508  1.6112  1.3156 -2.1044
 4343TIP3    H234521   6.585   1.934   1.468  2.3648  1.0282  0.1514
 4344TIP3   OH234522   5.778   3.827  12.176  0.4667  0.5576 -0.2542
 4344TIP3    H134523   5.742   3.905  12.220  1.2148  0.4091  0.6558
 4344TIP3    H234524   5.871   3.826  12.201 -0.0613 -2.1685  2.1655
 4345TIP3   OH234525   0.788   0.838   3.098  0.2612 -0.3711  0.1713
 4345TIP3    H134526   0.735   0.812   3.023 -0.3885 -1.1651  0.9048
 4345TIP3    H234527   0.878   0.822   3.070 -0.0076 -1.1770 -0.2460
 4346TIP3   OH234528   2.147   4.954   4.485  0.6882  0.0171 -0.6911
 4346TIP3    H134529   2.148   4.864   4.453  0.8830 -1.2635  2.5165
 4346TIP3    H234530   2.124   5.006   4.409  0.5461 -2.7235 -2.6890
 4347TIP3   OH234531   0.673   0.197  12.930 -0.2556  0.0304  0.2953
 4347TIP3    H134532   0.590   0.165  12.897 -0.1967 -0.1610  0.3326
 4347TIP3    H234533   0.694   0.272  12.874 -0.0943 -0.3690 -0.1755
 4348TIP3   OH234534   5.624   6.550   5.848 -0.2629  0.7696 -0.3343
 4348TIP3    H134535   5.551   6.509   5.803  1.5886 -2.8376 -0.3939
 4348TIP3    H234536   5.624   6.511   5.936  0.9613  1.4915  0.0162
 4349TIP3   OH234537   3.717   4.161  13.205 -0.3384  0.1444 -0.2267
 4349TIP3    H134538   3.809   4.168  13.231 -0.2946 -1.0190 -0.0108
 4349TIP3    H234539   3.698   4.243  13.160  0.4010  1.0045  0.9705
 4350TIP3   OH234540   5.563   4.985   3.212  0.1937 -0.5593 -0.4664
 4350TIP3    H134541   5.495   4.920   3.192  0.1905 -0.2587 -1.5034
 4350TIP3    H234542   5.642   4.952   3.169  0.4911 -0.4868  0.0222
 4351TIP3   OH234543   1.644   4.975  16.467 -0.1251  0.2048  0.3049
 4351TIP3    H134544   1.658   4.891  16.510  0.6096 -0.0352 -0.3925
 4351TIP3    H234545   1.571   4.959  16.407  1.4323 -0.5841 -1.4757
 4352TIP3   OH234546   1.512   0.919   3.307 -0.0101 -0.3665  0.0312
 4352TIP3    H134547   1.539   1.010   3.316 -0.6298 -0.0483 -1.1305
 4352TIP3    H234548   1.595   0.870   3.303  0.4004  0.4000 -1.6965
 4353TIP3   OH234549   5.128   2.439  13.872  0.5086 -0.0618 -0.4882
 4353TIP3    H134550   5.057   2.466  13.931  1.7185  1.3521  0.3768
 4353TIP3    H234551   5.118   2.496  13.796  1.3389  0.9112  0.1062
 4354TIP3   OH234552   0.915   5.559  14.573 -0.6072 -0.7907 -0.2664
 4354TIP3    H134553   0.981   5.617  14.534 -0.5491  0.2422  1.2924
 4354TIP3    H234554   0.932   5.473  14.534  2.2606 -0.7676  0.7030
 4355TIP3   OH234555   1.250   6.172   2.429 -0.1795  0.3463  0.4072
 4355TIP3    H134556   1.303   6.220   2.365  0.1366  0.4119  0.7112
 4355TIP3    H234557   1.162   6.208   2.420 -0.8720 -1.6214 -2.0379
 4356TIP3   OH234558   5.963   4.179   0.725  0.3152  0.2797  0.2953
 4356TIP3    H134559   5.964   4.227   0.642  0.4344  1.0015  0.7014
 4356TIP3    H234560   5.897   4.224   0.778 -0.5397 -0.8513  0.2127
 4357TIP3   OH234561   3.103   5.979   3.682 -0.3568  0.0194 -0.2101
 4357TIP3    H134562   3.158   6.055   3.704  2.0217 -2.0341  1.5754
 4357TIP3    H234563   3.139   5.947   3.599  1.3262 -1.3080  0.9443
 4358TIP3   OH234564   0.914   3.855  11.183 -0.2305 -0.4400  0.1286
 4358TIP3    H134565   0.886   3.774  11.141 -2.3705 -0.3508  1.2297
 4358TIP3    H234566   0.949   3.909  11.112 -3.1879 -0.4854 -1.5126
 4359TIP3   OH234567   0.087   5.555  12.849  0.0614 -0.1855 -0.1213
 4359TIP3    H134568   0.168   5.504  12.849  0.8258  0.9503 -1.4455
 4359TIP3    H234569   0.080   5.588  12.759 -0.7668  1.4789  0.5195
 4360TIP3   OH234570   5.383   2.462   4.036 -0.3847  0.2813  0.0564
 4360TIP3    H134571   5.326   2.496   4.105  0.3863  0.4544  0.6252
 4360TIP3    H234572   5.390   2.368   4.055  0.8340  0.5310  0.9941
 4361TIP3   OH234573   0.310   5.747  16.440 -0.1909 -0.0584 -0.2280
 4361TIP3    H134574   0.249   5.820  16.446 -0.7868 -0.5906  0.2955
 4361TIP3    H234575   0.386   5.774  16.492 -0.0335  0.5465 -0.7685
 4362TIP3   OH234576   0.976   5.199   1.269 -0.4449 -0.1762 -0.1634
 4362TIP3    H134577   1.028   5.139   1.215 -1.2363 -1.8083  0.8102
 4362TIP3    H234578   1.041   5.254   1.312  0.2841 -0.0609 -1.3609
 4363TIP3   OH234579   5.393   6.296  12.890 -0.2345 -0.7968  0.0468
 4363TIP3    H134580   5.371   6.318  12.980 -1.4206  0.1389 -0.4494
 4363TIP3    H234581   5.460   6.360  12.865 -0.8376 -0.2280 -0.1362
 4364TIP3   OH234582   1.406   5.005   5.476  0.5323 -0.3848  0.1267
 4364TIP3    H134583   1.323   4.998   5.428  0.2037 -1.8507  0.8550
 4364TIP3    H234584   1.472   5.023   5.409 -0.2423 -0.0547 -0.5648
 4365TIP3   OH234585   2.634   6.240  15.461 -0.2095  0.4068  0.4899
 4365TIP3    H134586   2.552   6.192  15.452  1.4263 -2.2864 -1.7256
 4365TIP3    H234587   2.645   6.285  15.377  0.3864  1.1503  0.9437
 4366TIP3   OH234588   2.173   5.361  16.729  0.1097  0.2579  0.3210
 4366TIP3    H134589   2.134   5.418  16.663 -0.2480 -0.2866  0.0484
 4366TIP3    H234590   2.183   5.277  16.685 -0.5302 -0.2310  1.0777
 4367TIP3   OH234591   3.553   3.100   2.014  0.1216  1.0424 -0.0384
 4367TIP3    H134592   3.582   3.189   1.992  2.0473  1.1031  2.3260
 4367TIP3    H234593   3.623   3.064   2.067 -1.8292 -0.9040  1.4252
 4368TIP3   OH234594   5.047   3.974  16.400  0.6147 -0.2072 -0.0372
 4368TIP3    H134595   5.124   4.030  16.391 -0.2154  0.7257 -1.7127
 4368TIP3    H234596   5.082   3.892  16.436  2.2655  0.4426 -0.0543
 4369TIP3   OH234597   6.350   4.999   3.984  0.0572  0.0926 -0.1422
 4369TIP3    H134598   6.357   4.994   3.889  1.8201  0.3693 -0.0596
 4369TIP3    H234599   6.272   4.948   4.006 -1.7484  1.9216 -1.8950
 4370TIP3   OH234600   1.665   6.433  15.791 -0.0688  0.2439  0.3647
 4370TIP3    H134601   1.668   6.508  15.733  0.4035 -0.1693 -0.1601
 4370TIP3    H234602   1.726   6.455  15.862  1.6707 -0.4506 -0.8217
 4371TIP3   OH234603   3.267   1.126  11.991  0.2965  0.2357 -0.2719
 4371TIP3    H134604   3.240   1.208  11.949  0.4109  0.7889  0.7142
 4371TIP3    H234605   3.281   1.149  12.083  0.2226 -0.9191  0.0445
 4372TIP3   OH234606   5.589   0.246  13.420 -0.4719 -0.4880  0.1848
 4372TIP3    H134607   5.544   0.270  13.339  2.0083 -0.8173 -1.4091
 4372TIP3    H234608   5.539   0.172  13.455 -0.9042 -1.1662 -1.7568
 4373TIP3   OH234609   2.462   0.674  11.229  0.1501 -0.2509 -0.4874
 4373TIP3    H134610   2.462   0.688  11.324 -0.2531  2.6470 -0.8159
 4373TIP3    H234611   2.413   0.592  11.217  0.0438 -0.5954  1.7689
 4374TIP3   OH234612   1.984   2.413   5.683 -0.0477  0.1109  0.0669
 4374TIP3    H134613   2.054   2.461   5.640  1.4154  1.1159  3.2732
 4374TIP3    H234614   1.929   2.480   5.723 -0.4696 -0.7406  0.9891
 4375TIP3   OH234615   5.258   0.351  13.315  0.0272 -0.4086 -0.4306
 4375TIP3    H134616   5.220   0.263  13.315  0.6482 -0.6829 -0.8963
 4375TIP3    H234617   5.336   0.343  13.261 -0.3726  0.6313 -1.1930
 4376TIP3   OH234618   0.462   3.045  11.502  0.1575 -1.4426 -0.2044
 4376TIP3    H134619   0.438   2.953  11.487  1.8449 -2.1389  0.9979
 4376TIP3    H234620   0.423   3.066  11.586  1.3355 -1.6980  0.4281
 4377TIP3   OH234621   6.322   6.680   3.728  0.1464  0.1992  0.0182
 4377TIP3    H134622   6.298   6.594   3.695 -0.3727 -0.1642  1.2768
 4377TIP3    H234623   6.239   6.721   3.751  0.3557  1.1983 -0.8880
 4378TIP3   OH234624   1.361   6.036   3.989  0.2396 -0.6183  0.6825
 4378TIP3    H134625   1.451   6.039   4.023  0.1279  0.9195  0.9388
 4378TIP3    H234626   1.367   6.074   3.902 -0.2116 -0.1722  0.8400
 4379TIP3   OH234627   3.108   2.169  13.670 -0.6168  0.0338 -0.1758
 4379TIP3    H134628   3.027   2.218  13.656 -0.8731  0.2663  1.9062
 4379TIP3    H234629   3.166   2.231  13.713 -0.4994 -1.0728  1.3301
 4380TIP3   OH234630   6.131   6.752   5.861 -0.1318 -0.0431  0.3834
 4380TIP3    H134631   6.089   6.800   5.932 -1.1487  1.4394 -1.1245
 4380TIP3    H234632   6.211   6.803   5.842  0.0497 -0.3354  0.3599
 4381TIP3   OH234633   4.007   3.378   4.379 -0.4606  0.1582  0.2415
 4381TIP3    H134634   4.072   3.408   4.315 -0.8026  1.0137  0.2774
 4381TIP3    H234635   3.971   3.459   4.416 -0.5755 -0.3200  1.2043
 4382TIP3   OH234636   1.331   5.622   0.746  0.4587  0.3408 -0.0488
 4382TIP3    H134637   1.414   5.659   0.715  1.2072 -1.9699 -1.0131
 4382TIP3    H234638   1.352   5.586   0.832  0.2156  0.5652  0.1044
 4383TIP3   OH234639   0.122   0.718  13.064  0.1600 -0.1263  0.0075
 4383TIP3    H134640   0.076   0.678  13.138  0.7674  1.0537  1.0634
 4383TIP3    H234641   0.169   0.645  13.022 -2.6399 -1.3913 -1.1727
 4384TIP3   OH234642   0.363   3.461  17.044  0.1188 -0.1739 -0.0004
 4384TIP3    H134643   0.329   3.548  17.067  0.6558  0.5095 -1.6716
 4384TIP3    H234644   0.387   3.468  16.952  1.4861 -1.6923  0.1984
 4385TIP3   OH234645   4.940   5.780  12.751  0.0893  0.0183  0.0538
 4385TIP3    H134646   4.991   5.725  12.809 -1.3109 -1.6573 -0.2213
 4385TIP3    H234647   4.855   5.790  12.796  0.0722  1.3930 -0.2278
 4386TIP3   OH234648   4.541   5.236   0.197 -0.6046  0.4896  0.5089
 4386TIP3    H134649   4.633   5.260   0.189 -0.7873  1.5047  1.2611
 4386TIP3    H234650   4.500   5.274   0.119 -0.5466  0.8404  0.6499
 4387TIP3   OH234651   0.577   1.509  10.949 -0.4289  0.4523  0.1091
 4387TIP3    H134652   0.562   1.506  10.855  0.8410  0.9722 -0.1218
 4387TIP3    H234653   0.573   1.602  10.971  0.8935  0.4792  0.2870
 4388TIP3   OH234654   2.813   6.107  16.280  0.5636 -0.9090  0.1559
 4388TIP3    H134655   2.749   6.037  16.296  1.0191 -1.3169  0.1990
 4388TIP3    H234656   2.860   6.079  16.202  1.5162 -1.2134  0.8201
 4389TIP3   OH234657   2.902   0.649  14.121 -0.0149  0.2580 -0.4522
 4389TIP3    H134658   2.916   0.740  14.096 -0.4484  0.3481 -0.3613
 4389TIP3    H234659   2.824   0.621  14.074 -0.5950  0.3083  0.4666
 4390TIP3   OH234660   2.329   1.486   4.408 -0.1384 -0.0747  0.2795
 4390TIP3    H134661   2.369   1.571   4.426 -1.1655  0.5909 -0.3976
 4390TIP3    H234662   2.291   1.459   4.492 -0.9990  0.8205  0.2025
 4391TIP3   OH234663   4.460   1.277   1.066  0.1344 -0.3397 -0.1574
 4391TIP3    H134664   4.518   1.308   1.135  0.0598  0.2659 -0.3599
 4391TIP3    H234665   4.400   1.216   1.109  0.4995 -0.4582  0.1806
 4392TIP3   OH234666   1.355   4.384  12.359 -0.2953  0.2875  0.3100
 4392TIP3    H134667   1.300   4.397  12.436 -0.8286 -0.4615  0.0653
 4392TIP3    H234668   1.441   4.418  12.385 -0.5763  0.4252  1.0840
 4393TIP3   OH234669   6.569   6.500  14.498  0.1224 -0.2287 -0.1115
 4393TIP3    H134670   6.599   6.440  14.566  0.4457  1.0550  0.9312
 4393TIP3    H234671   6.518   6.446  14.439 -0.7382 -1.2860  1.5209
 4394TIP3   OH234672   4.061   5.169   4.523 -0.4678 -0.0997 -0.1680
 4394TIP3    H134673   3.978   5.191   4.565 -1.2208 -1.2741 -0.9963
 4394TIP3    H234674   4.106   5.253   4.514 -1.1014  0.4089  1.2423
 4395TIP3   OH234675   4.214   6.696   2.792  0.3037  0.0007  0.2548
 4395TIP3    H134676   4.258   6.675   2.875 -0.9156 -2.2648  0.3947
 4395TIP3    H234677   4.132   6.738   2.819 -0.1233 -0.7963  0.2327
 4396TIP3   OH234678   3.138   2.665  13.711  0.6595  0.7018  0.6297
 4396TIP3    H134679   3.066   2.697  13.764 -1.1887 -0.9691 -0.7132
 4396TIP3    H234680   3.142   2.726  13.637 -1.1058 -0.5097 -0.5602
 4397TIP3   OH234681   3.166   4.556   4.321 -0.7157  0.8253 -0.1956
 4397TIP3    H134682   3.209   4.587   4.242 -2.0039 -0.6301 -1.5654
 4397TIP3    H234683   3.237   4.535   4.381  0.3929  0.6106 -1.5287
 4398TIP3   OH234684   3.311   2.058  13.073 -0.0134  0.2128 -0.0027
 4398TIP3    H134685   3.361   2.115  13.014 -0.5945  0.5236 -0.1977
 4398TIP3    H234686   3.268   2.118  13.133 -1.5981  0.0799 -0.9587
 4399TIP3   OH234687   4.267   3.210   4.476 -0.0823  0.1873  0.4763
 4399TIP3    H134688   4.343   3.268   4.475 -0.2958  0.4625  0.0472
 4399TIP3    H234689   4.236   3.208   4.385 -0.7506  0.2911  0.6960
 4400TIP3   OH234690   3.645   4.962  12.990 -0.4151  0.2361 -0.3080
 4400TIP3    H134691   3.695   5.041  13.011  3.4082 -1.2791 -2.7378
 4400TIP3    H234692   3.608   4.980  12.904  1.6202 -0.9383 -1.5102
 4401TIP3   OH234693   5.195   6.825  16.303 -0.1739 -0.6340 -0.5297
 4401TIP3    H134694   5.116   6.801  16.350 -0.5369  1.0314 -0.2230
 4401TIP3    H234695   5.163   6.862  16.220  0.1876  1.1362  0.0867
 4402TIP3   OH234696   5.404   6.059  14.628  0.1876  0.0006 -0.0528
 4402TIP3    H134697   5.386   6.118  14.554  1.4351  0.4714 -0.0053
 4402TIP3    H234698   5.462   5.992  14.591  1.1826  0.4851  0.5760
 4403TIP3   OH234699   5.566   4.070   6.633  0.0917 -0.3283  0.4841
 4403TIP3    H134700   5.648   4.097   6.592  1.0758 -2.3946  0.9962
 4403TIP3    H234701   5.566   3.975   6.628 -1.3897 -0.4737  2.1818
 4404TIP3   OH234702   4.395   4.602   5.058  0.3939  0.3957 -0.6861
 4404TIP3    H134703   4.409   4.537   4.990  0.7366  0.2211 -0.4495
 4404TIP3    H234704   4.401   4.553   5.140  3.7613  1.1885 -0.3231
 4405TIP3   OH234705   2.565   3.109  11.394  0.2553 -0.6290 -0.5385
 4405TIP3    H134706   2.575   3.177  11.461  0.7054 -0.1024 -1.1326
 4405TIP3    H234707   2.500   3.050  11.430 -0.0981  0.0850  0.0197
 4406TIP3   OH234708   3.032   2.486  11.544 -0.3042  0.3620 -0.3338
 4406TIP3    H134709   2.950   2.483  11.594 -0.3869 -0.1675 -0.4937
 4406TIP3    H234710   3.022   2.561  11.486 -1.0151 -0.1731 -0.9239
 4407TIP3   OH234711   6.501   0.572  11.560 -0.6680  0.3592  0.5215
 4407TIP3    H134712   6.574   0.540  11.508  0.6870  0.0556  2.5038
 4407TIP3    H234713   6.424   0.531  11.522  0.3674 -0.5340 -0.6695
 4408TIP3   OH234714   4.286   4.938  15.839 -0.1463  0.3151 -0.3618
 4408TIP3    H134715   4.256   4.961  15.751 -0.5768  0.8776 -0.0753
 4408TIP3    H234716   4.271   5.017  15.891  3.1177  1.1580 -0.4730
 4409TIP3   OH234717   3.877   0.287  12.864  0.4595 -0.0718  0.0348
 4409TIP3    H134718   3.924   0.219  12.913 -1.3017 -0.8840  0.6996
 4409TIP3    H234719   3.787   0.280  12.895 -0.1647  1.2353 -1.3782
 4410TIP3   OH234720   1.721   1.464  11.573  0.2678  0.4608 -0.4772
 4410TIP3    H134721   1.749   1.426  11.490  0.0732 -1.8841  0.4630
 4410TIP3    H234722   1.625   1.461  11.569  0.2622 -0.4818  0.1652
 4411TIP3   OH234723   5.975   2.910   0.998  0.1435  0.1265 -0.3743
 4411TIP3    H134724   5.884   2.887   0.978  0.3290 -0.2557 -0.8061
 4411TIP3    H234725   6.023   2.885   0.919  0.0336  4.2542 -2.0373
 4412TIP3   OH234726   1.614   1.797  11.964 -0.1359  0.1232  0.2799
 4412TIP3    H134727   1.540   1.796  12.025 -0.5191 -0.5891 -0.1775
 4412TIP3    H234728   1.618   1.708  11.930 -0.3601  0.6497 -1.2344
 4413TIP3   OH234729   3.448   4.309   2.984 -0.8061  0.1099  0.5159
 4413TIP3    H134730   3.395   4.389   2.982 -2.2900 -0.8449 -0.5283
 4413TIP3    H234731   3.401   4.251   3.044  0.4310  0.0940  1.5150
 4414TIP3   OH234732   2.678   5.729   0.597 -0.9669 -0.6230 -0.1410
 4414TIP3    H134733   2.626   5.802   0.632 -0.3519 -0.8590  1.3624
 4414TIP3    H234734   2.752   5.771   0.553 -0.1203 -0.2852  1.5021
 4415TIP3   OH234735   1.557   2.115   4.016  0.3557 -0.3233  0.0850
 4415TIP3    H134736   1.538   2.148   3.928 -0.5900  1.5486  0.9242
 4415TIP3    H234737   1.478   2.068   4.041  1.2540 -2.3183 -0.6512
 4416TIP3   OH234738   0.202   0.348  13.710  0.3148  0.6538 -0.2682
 4416TIP3    H134739   0.294   0.341  13.734  0.5370  0.0994 -1.2478
 4416TIP3    H234740   0.155   0.339  13.793  1.0311 -1.8137 -0.0514
 4417TIP3   OH234741   3.528   1.879   6.022 -0.5099 -0.2222  0.1779
 4417TIP3    H134742   3.483   1.797   6.044 -1.4624  0.4586  0.8658
 4417TIP3    H234743   3.607   1.879   6.076 -0.1732 -0.9673 -0.2982
 4418TIP3   OH234744   2.385   6.828   0.017  0.6584  0.1016 -0.3655
 4418TIP3    H134745   2.426   6.791  -0.062 -1.4170 -1.8751 -0.6117
 4418TIP3    H234746   2.298   6.856  -0.013  0.4353  0.8053  0.8986
 4419TIP3   OH234747   3.137   6.279   4.955  0.1830 -0.2283  0.3515
 4419TIP3    H134748   3.220   6.258   4.999  0.7283  0.1295 -0.4711
 4419TIP3    H234749   3.070   6.256   5.019  0.9209 -0.3536  1.1128
 4420TIP3   OH234750   0.263   2.396   0.895 -0.5229  0.0961  0.1242
 4420TIP3    H134751   0.197   2.375   0.961 -0.3176 -0.8989  0.0233
 4420TIP3    H234752   0.212   2.422   0.818 -0.7629  1.5275  0.7214
 4421TIP3   OH234753   5.853   3.494   1.705  0.1010  0.0696 -0.6523
 4421TIP3    H134754   5.781   3.544   1.665 -0.2870 -0.5160 -0.6984
 4421TIP3    H234755   5.822   3.474   1.794  0.2072 -0.1780 -0.6704
 4422TIP3   OH234756   3.964   4.669  10.508 -0.3043  0.0104  0.2646
 4422TIP3    H134757   3.879   4.626  10.517  0.0107 -0.6633  0.1348
 4422TIP3    H234758   3.999   4.634  10.426 -0.3690  1.1296 -0.2589
 4423TIP3   OH234759   2.878   3.465   1.104 -0.2759 -0.5374  0.0727
 4423TIP3    H134760   2.820   3.418   1.044 -0.2843  0.1358 -0.4578
 4423TIP3    H234761   2.819   3.522   1.154 -0.2371 -0.8980  0.5363
 4424TIP3   OH234762   2.463   0.763   0.196 -0.2907  0.2574  0.1170
 4424TIP3    H134763   2.520   0.714   0.137  2.0665  1.6077  1.0928
 4424TIP3    H234764   2.482   0.726   0.283  0.4082  1.8417  0.6692
 4425TIP3   OH234765   3.145   3.135   1.219  0.1870  0.3039  0.1756
 4425TIP3    H134766   3.211   3.101   1.159  0.5471  0.7891  0.2894
 4425TIP3    H234767   3.082   3.063   1.230 -0.8065  0.7391 -2.0855
 4426TIP3   OH234768   5.295   3.709  11.364 -0.5478 -0.3021  0.2585
 4426TIP3    H134769   5.289   3.692  11.458  0.2129 -0.9165  0.2016
 4426TIP3    H234770   5.311   3.803  11.358 -2.0724  0.0071  0.6770
 4427TIP3   OH234771   4.531   0.938  13.388 -0.4078  0.4415  0.1010
 4427TIP3    H134772   4.592   0.990  13.334  1.4511 -0.7337  0.9578
 4427TIP3    H234773   4.473   1.003  13.428 -0.3560  1.5327 -1.4906
 4428TIP3   OH234774   2.166   6.443  15.162  0.1836 -0.0653  0.0139
 4428TIP3    H134775   2.237   6.382  15.183  0.6668  0.5106  0.0757
 4428TIP3    H234776   2.086   6.392  15.176  0.5908 -1.0922 -1.2101
 4429TIP3   OH234777   4.068   3.811  14.409 -0.0753 -0.7812  0.7173
 4429TIP3    H134778   4.161   3.790  14.406  0.3698  1.0550  0.0125
 4429TIP3    H234779   4.066   3.905  14.429 -1.6442 -0.1982 -1.7305
 4430TIP3   OH234780   3.312   0.748  15.788 -0.1012 -0.0222 -0.2481
 4430TIP3    H134781   3.334   0.838  15.812 -0.8899  0.3913 -1.0438
 4430TIP3    H234782   3.336   0.696  15.865  0.5297  0.8357  0.1444
 4431TIP3   OH234783   2.892   3.869   3.120 -0.0170 -0.6908  0.4515
 4431TIP3    H134784   2.811   3.870   3.171 -0.6027  1.3539 -0.4118
 4431TIP3    H234785   2.863   3.861   3.029  0.8156 -1.0418  0.2095
 4432TIP3   OH234786   1.024   2.247  13.991  0.2091 -0.3512 -0.2846
 4432TIP3    H134787   1.000   2.339  14.003 -0.3480 -0.4404 -0.6208
 4432TIP3    H234788   1.118   2.244  14.008 -0.1630 -0.1484  2.0239
 4433TIP3   OH234789   4.545   5.733  11.048  0.2238  0.4297 -0.2006
 4433TIP3    H134790   4.566   5.640  11.060  1.6990  0.5583 -1.5584
 4433TIP3    H234791   4.505   5.738  10.961 -2.0576  0.7786  0.7840
 4434TIP3   OH234792   3.680   3.562  10.526  0.0819  0.2483  0.0062
 4434TIP3    H134793   3.618   3.634  10.542  1.6126  1.0999  2.8954
 4434TIP3    H234794   3.627   3.483  10.536 -0.5381  0.9298  3.1593
 4435TIP3   OH234795   5.587   3.367   5.216 -0.8018 -0.0394  0.3981
 4435TIP3    H134796   5.650   3.358   5.145  1.0455  3.0399  1.4643
 4435TIP3    H234797   5.603   3.291   5.272  1.4625  0.2500  0.2127
 4436TIP3   OH234798   5.063   2.560  13.621 -0.3168 -0.2126  0.2603
 4436TIP3    H134799   5.129   2.534  13.556  0.1933 -0.9558  1.0609
 4436TIP3    H234800   5.024   2.640  13.584  0.8293  0.0880 -0.3632
 4437TIP3   OH234801   5.792   4.269   5.162  0.0087  0.0357 -0.3402
 4437TIP3    H134802   5.782   4.185   5.205 -1.1644 -1.2337 -2.8583
 4437TIP3    H234803   5.725   4.325   5.201  0.1772 -0.4767  0.7016
 4438TIP3   OH234804   0.962   1.825   2.058  0.4131 -0.1888 -0.0226
 4438TIP3    H134805   0.942   1.841   2.150 -2.8202 -2.3598 -0.1951
 4438TIP3    H234806   0.878   1.833   2.013  1.8221  0.3950 -2.7752
 4439TIP3   OH234807   6.211   3.595   4.263  0.2289  0.4062  0.3205
 4439TIP3    H134808   6.174   3.594   4.175 -0.6584  1.8004  0.6465
 4439TIP3    H234809   6.264   3.516   4.267 -2.5485 -1.6278 -0.2408
 4440TIP3   OH234810   0.396   0.314   4.974 -0.0798  0.0209  0.2638
 4440TIP3    H134811   0.311   0.327   4.932  0.4167  0.3601 -0.6726
 4440TIP3    H234812   0.427   0.230   4.940  0.0657  0.0163  0.4066
 4441TIP3   OH234813   4.410   5.362   3.523 -0.0161  0.0072 -0.1038
 4441TIP3    H134814   4.379   5.272   3.513 -0.5282  0.2252 -0.5404
 4441TIP3    H234815   4.503   5.353   3.544 -0.2979 -0.6489  0.9229
 4442TIP3   OH234816   5.503   2.494  12.878  0.0696  0.2690  0.5397
 4442TIP3    H134817   5.541   2.501  12.791  1.1224  2.0484  1.0966
 4442TIP3    H234818   5.474   2.583  12.900 -0.8411 -0.2769  1.7347
 4443TIP3   OH234819   0.121   6.076  16.129 -0.5609 -0.7254 -0.1236
 4443TIP3    H134820   0.072   5.995  16.142 -0.8744 -0.7047 -1.0796
 4443TIP3    H234821   0.110   6.124  16.211 -1.9065 -0.8476 -0.2124
 4444TIP3   OH234822   1.683   3.799   2.252  0.7390 -0.0261 -0.3528
 4444TIP3    H134823   1.758   3.853   2.229  1.5557 -0.6166  0.8155
 4444TIP3    H234824   1.718   3.711   2.259 -0.0599 -0.3136  0.1893
 4445TIP3   OH234825   2.402   3.398   0.324  0.2057  0.2699 -0.4773
 4445TIP3    H134826   2.493   3.424   0.307  0.7739 -0.6519  0.8970
 4445TIP3    H234827   2.410   3.317   0.376 -1.3992  0.4455  0.1023
 4446TIP3   OH234828   3.231   6.083   6.449  0.7980  0.2756 -0.3704
 4446TIP3    H134829   3.283   6.125   6.518 -0.2306  1.1042 -0.0733
 4446TIP3    H234830   3.198   6.003   6.488 -0.9137  1.4010  0.6210
 4447TIP3   OH234831   3.031   4.522   2.791  0.1534  0.1401 -0.0993
 4447TIP3    H134832   2.943   4.547   2.762 -0.5116  0.3026  1.8579
 4447TIP3    H234833   3.034   4.551   2.883  1.7122 -1.1882  0.3075
 4448TIP3   OH234834   2.150   3.001  16.380  0.0893 -0.0510 -0.2021
 4448TIP3    H134835   2.056   3.001  16.358  0.3176 -0.4477 -1.2525
 4448TIP3    H234836   2.193   2.972  16.299  1.1134  0.0178  0.3076
 4449TIP3   OH234837   6.409   4.760  14.282  0.0265  0.0190  0.0162
 4449TIP3    H134838   6.389   4.725  14.195  0.4035 -1.4768  0.4948
 4449TIP3    H234839   6.353   4.709  14.342  0.5657  0.2647  0.7459
 4450TIP3   OH234840   3.684   2.393   1.021 -0.2417 -0.4198 -0.1051
 4450TIP3    H134841   3.654   2.481   1.043 -0.8593 -0.7001  0.1980
 4450TIP3    H234842   3.759   2.378   1.078  2.1550  1.2450 -2.5934
 4451TIP3   OH234843   3.009   5.627  13.504 -0.0436 -0.1304  0.9648
 4451TIP3    H134844   2.947   5.696  13.526  0.9469  0.6398  1.4284
 4451TIP3    H234845   2.971   5.548  13.542 -1.2740  0.1125  0.2764
 4452TIP3   OH234846   3.482   3.634   3.609 -0.7932  0.3234  0.4717
 4452TIP3    H134847   3.453   3.587   3.531 -0.2213 -1.3013  1.1853
 4452TIP3    H234848   3.467   3.572   3.681  3.4770 -0.3431  1.0273
 4453TIP3   OH234849   3.940   5.299   1.383 -0.0952  0.1178 -0.3766
 4453TIP3    H134850   3.916   5.375   1.436  1.5991 -0.2877  1.0776
 4453TIP3    H234851   4.004   5.333   1.320  0.3142  0.0185 -0.0255
 4454TIP3   OH234852   4.240   4.910   1.943 -0.2360  0.0779  0.1799
 4454TIP3    H134853   4.216   4.822   1.970 -1.1153  0.3220  0.2225
 4454TIP3    H234854   4.294   4.897   1.865  1.6946 -0.5924  1.5456
 4455TIP3   OH234855   2.335   4.426  14.100  0.5603 -0.0718 -0.2184
 4455TIP3    H134856   2.379   4.349  14.065  0.0919 -0.5847  0.3079
 4455TIP3    H234857   2.390   4.500  14.072  0.6458 -0.5333 -1.2923
 4456TIP3   OH234858   5.435   3.387  15.786  0.3770 -1.2135  0.0441
 4456TIP3    H134859   5.418   3.297  15.757 -2.9864 -0.1275 -1.9845
 4456TIP3    H234860   5.441   3.437  15.704  4.1599  0.2653  1.0251
 4457TIP3   OH234861   5.481   6.084  15.580  0.0277 -0.9464 -0.2186
 4457TIP3    H134862   5.406   6.041  15.621 -0.5125  0.0179 -0.1646
 4457TIP3    H234863   5.509   6.024  15.512 -1.1899 -1.0613 -0.6495
 4458TIP3   OH234864   4.278   0.912   1.750 -0.1062  0.1775  0.6001
 4458TIP3    H134865   4.334   0.847   1.793  0.8508 -0.0128 -0.8801
 4458TIP3    H234866   4.271   0.983   1.814 -0.3597 -0.9144  1.8507
 4459TIP3   OH234867   5.506   0.715  11.415 -0.1020  0.1668  0.3444
 4459TIP3    H134868   5.486   0.640  11.359  0.1042  0.5956 -0.3156
 4459TIP3    H234869   5.422   0.741  11.452  0.0446 -1.4303  1.9448
 4460TIP3   OH234870   5.585   1.012   5.868 -0.0538 -0.1249 -0.0617
 4460TIP3    H134871   5.575   0.949   5.796 -2.0608 -0.7688  0.7042
 4460TIP3    H234872   5.663   0.983   5.914 -0.9075 -2.0951  0.2531
 4461TIP3   OH234873   3.408   3.747  13.773  0.5327  0.5141  0.5147
 4461TIP3    H134874   3.483   3.767  13.718  0.6401 -0.3475  0.3344
 4461TIP3    H234875   3.442   3.686  13.839 -0.0341 -0.0035  0.3365
 4462TIP3   OH234876   2.421   5.456   3.593  0.0597  0.4683  0.2162
 4462TIP3    H134877   2.384   5.536   3.632 -1.8760  0.9282 -2.3013
 4462TIP3    H234878   2.513   5.477   3.579  0.0208  1.5223  1.3183
 4463TIP3   OH234879   6.485   1.124   2.021  0.4715 -0.1321 -0.6259
 4463TIP3    H134880   6.442   1.062   1.962  0.0596  0.4409 -0.9369
 4463TIP3    H234881   6.414   1.170   2.065  0.7439 -1.7805  1.6956
 4464TIP3   OH234882   1.777   2.609  15.405  0.0526 -0.0353 -0.2195
 4464TIP3    H134883   1.689   2.639  15.427 -0.3687 -1.2133 -0.2189
 4464TIP3    H234884   1.803   2.554  15.479  0.9846  0.6760 -0.0044
 4465TIP3   OH234885   1.723   4.095  10.326 -0.0977 -0.7193 -0.6650
 4465TIP3    H134886   1.804   4.145  10.331  0.1892 -1.1946  4.0253
 4465TIP3    H234887   1.657   4.159  10.300  0.8074  1.3819  1.7938
 4466TIP3   OH234888   5.827   3.777  15.306  0.5552  0.0849  0.5515
 4466TIP3    H134889   5.908   3.746  15.347  2.2388  1.2228 -1.6464
 4466TIP3    H234890   5.815   3.720  15.230 -0.2422  0.4499  0.3960
 4467TIP3   OH234891   0.740   3.087  14.644 -0.2122  0.8395 -0.0981
 4467TIP3    H134892   0.736   3.134  14.561 -0.5723 -0.6703 -0.9940
 4467TIP3    H234893   0.825   3.110  14.681  0.2742  0.9769 -1.2547
 4468TIP3   OH234894   3.209   1.288  14.760  0.4754 -0.3685  0.3041
 4468TIP3    H134895   3.116   1.312  14.758  0.4227 -0.5958 -0.9228
 4468TIP3    H234896   3.215   1.211  14.704  1.5419  0.1630 -0.3518
 4469TIP3   OH234897   4.507   0.700  16.003  0.5675 -0.0438  0.2284
 4469TIP3    H134898   4.550   0.724  15.921  2.2586 -1.2251  0.7189
 4469TIP3    H234899   4.414   0.716  15.986  0.9377  0.4642 -1.6412
 4470TIP3   OH234900   2.693   6.215   2.616 -0.6424  0.1227 -0.0714
 4470TIP3    H134901   2.763   6.248   2.672  0.3911  0.4501 -1.5139
 4470TIP3    H234902   2.713   6.122   2.606 -1.0545 -0.0220  0.4112
 4471TIP3   OH234903   3.627   2.073  15.806 -0.4351  0.2154 -0.0885
 4471TIP3    H134904   3.532   2.085  15.799 -0.7644 -1.9931 -0.1573
 4471TIP3    H234905   3.640   2.049  15.898 -0.0644 -0.2960 -0.2730
 4472TIP3   OH234906   6.575   4.237   5.219 -0.0679  0.0217  0.3554
 4472TIP3    H134907   6.610   4.258   5.305 -1.0109  0.5153  0.6384
 4472TIP3    H234908   6.482   4.222   5.234 -0.5769  1.6395 -0.7840
 4473TIP3   OH234909   3.556   2.257   5.219 -0.7974 -0.1207  0.3196
 4473TIP3    H134910   3.568   2.349   5.194  0.1339 -0.6657 -1.3780
 4473TIP3    H234911   3.614   2.208   5.161 -0.6474 -1.7441  1.7548
 4474TIP3   OH234912   5.196   5.378   4.483  0.4436  0.0026 -0.1730
 4474TIP3    H134913   5.216   5.317   4.555  3.1198  1.2665  0.2936
 4474TIP3    H234914   5.280   5.390   4.438 -0.7913  0.6251 -2.4625
 4475TIP3   OH234915   1.372   1.922  13.973  0.1183  0.3300 -0.3706
 4475TIP3    H134916   1.343   1.929  13.882 -0.5367 -0.5876 -0.2503
 4475TIP3    H234917   1.442   1.987  13.981  0.5139  0.0981 -1.6535
 4476TIP3   OH234918   1.043   2.292  11.837  0.1246 -0.2953  0.1277
 4476TIP3    H134919   1.060   2.247  11.754  0.5126  0.4552 -0.2096
 4476TIP3    H234920   0.985   2.365  11.813  2.8529  1.9647 -0.1051
 4477TIP3   OH234921   3.093   1.268   5.338 -0.1656 -0.1151 -0.0732
 4477TIP3    H134922   3.110   1.262   5.432  0.0194  1.1104 -0.0100
 4477TIP3    H234923   3.177   1.294   5.300 -0.8471  2.0670 -0.2307
 4478TIP3   OH234924   6.366   0.041  15.733 -0.4349  1.0144  0.4971
 4478TIP3    H134925   6.322   0.126  15.732 -0.2842  1.1028 -1.3507
 4478TIP3    H234926   6.346   0.002  15.647 -0.9774 -1.0774  1.4943
 4479TIP3   OH234927   6.289   5.308   4.649  0.7077  0.8057 -0.0665
 4479TIP3    H134928   6.377   5.288   4.681  0.7829  0.6881 -0.3465
 4479TIP3    H234929   6.294   5.400   4.622 -0.2259  2.0017  3.2919
 4480TIP3   OH234930   6.594   3.528   5.457  0.3353  0.3097 -0.0747
 4480TIP3    H134931   6.613   3.582   5.534  0.0858 -0.9618  0.9181
 4480TIP3    H234932   6.679   3.517   5.414  0.2837  1.9781 -0.6350
 4481TIP3   OH234933   2.734   1.154  17.072 -0.1631  0.0768 -0.0311
 4481TIP3    H134934   2.726   1.102  16.992  1.0481 -0.7183  0.3364
 4481TIP3    H234935   2.828   1.159  17.088 -0.3305  1.2832  0.6766
 4482TIP3   OH234936   1.166   0.123   3.675  0.2279 -0.0920 -0.3028
 4482TIP3    H134937   1.233   0.190   3.691 -0.9976  1.3056 -0.7202
 4482TIP3    H234938   1.206   0.063   3.613  0.9699  0.9412 -0.8518
 4483TIP3   OH234939   1.387   5.490  16.982  0.0451  0.5960  0.3844
 4483TIP3    H134940   1.377   5.409  16.932  0.8595  0.2168  0.8166
 4483TIP3    H234941   1.479   5.491  17.008  0.3751  2.3269 -0.7420
 4484TIP3   OH234942   3.667   2.099   4.829 -0.3173  0.5663  0.3710
 4484TIP3    H134943   3.688   2.180   4.784 -1.3431  0.6633  0.0315
 4484TIP3    H234944   3.572   2.104   4.845 -0.4667 -0.6995  0.0359
 4485TIP3   OH234945   3.166   4.851  12.593 -0.3171  0.0314 -0.5231
 4485TIP3    H134946   3.229   4.813  12.532 -1.1761 -1.1342 -0.7197
 4485TIP3    H234947   3.194   4.942  12.603  2.3201 -0.8206  0.6088
 4486TIP3   OH234948   5.378   1.333  12.566  0.1497  0.5695 -0.4946
 4486TIP3    H134949   5.366   1.403  12.502  1.3039  0.4874 -0.8175
 4486TIP3    H234950   5.338   1.366  12.646 -0.2292  1.1657 -0.9241
 4487TIP3   OH234951   3.663   3.712   3.164  0.0732  0.2900 -0.5351
 4487TIP3    H134952   3.705   3.762   3.235 -2.5122  1.2008  0.4622
 4487TIP3    H234953   3.715   3.734   3.087  3.0395 -0.7846  0.9960
 4488TIP3   OH234954   1.332   1.327  13.849  0.1771  0.2671  0.4866
 4488TIP3    H134955   1.303   1.335  13.940  1.0007 -1.8726  1.0002
 4488TIP3    H234956   1.427   1.337  13.853  0.0592  2.3594 -0.4985
 4489TIP3   OH234957   0.584   6.059   1.944  0.1800  0.0718 -0.1450
 4489TIP3    H134958   0.552   6.146   1.969 -0.8987  0.0184 -1.2480
 4489TIP3    H234959   0.515   5.999   1.973  0.6597 -0.3714  0.0973
 4490TIP3   OH234960   3.507   2.949   5.323  0.1130  0.1666 -0.2767
 4490TIP3    H134961   3.581   2.945   5.384 -0.0228 -0.6758 -0.1565
 4490TIP3    H234962   3.434   2.912   5.371 -0.7451  2.1991  0.0684
 4491TIP3   OH234963   3.500   5.080   2.336 -0.2182 -0.5009  0.2563
 4491TIP3    H134964   3.427   5.100   2.394 -0.2656 -0.2881  0.1234
 4491TIP3    H234965   3.460   5.068   2.250 -0.5883 -3.9652  0.7762
 4492TIP3   OH234966   3.281   6.586  14.301 -0.3400 -0.3752  0.4803
 4492TIP3    H134967   3.238   6.563  14.219  0.1452 -0.5555  0.2778
 4492TIP3    H234968   3.307   6.677  14.291  0.7773 -0.7390 -0.0272
 4493TIP3   OH234969   4.898   2.108   4.203 -0.2376  0.5330 -0.2143
 4493TIP3    H134970   4.949   2.033   4.173 -0.6231 -0.0421  0.5470
 4493TIP3    H234971   4.913   2.175   4.135  0.8771  0.1154 -0.4144
 4494TIP3   OH234972   2.556   4.200  16.122  0.0409  0.3498 -0.1048
 4494TIP3    H134973   2.602   4.117  16.137  0.0223  0.3867  0.1489
 4494TIP3    H234974   2.473   4.191  16.168  0.4828  0.9169  0.8235
 4495TIP3   OH234975   5.156   2.691  16.055 -0.3652  0.3230 -0.2036
 4495TIP3    H134976   5.133   2.783  16.068 -1.1246  0.6004 -2.9749
 4495TIP3    H234977   5.111   2.645  16.126  1.3564  2.1584  2.2525
 4496TIP3   OH234978   0.648   6.813   1.620 -0.0800  0.6807  0.7578
 4496TIP3    H134979   0.681   6.727   1.649  1.3183  0.8773 -0.1492
 4496TIP3    H234980   0.718   6.874   1.641 -0.0434  1.2067 -0.7570
 4497TIP3   OH234981   6.514   0.306   0.621 -0.0942 -0.2843 -0.1429
 4497TIP3    H134982   6.546   0.371   0.683  0.3248  0.0092 -0.6594
 4497TIP3    H234983   6.570   0.230   0.634 -0.5330 -0.5124  0.4065
 4498TIP3   OH234984   2.008   2.651  14.707  0.3931 -0.3627  0.7152
 4498TIP3    H134985   2.073   2.600  14.658  1.2743  2.2484 -1.0255
 4498TIP3    H234986   2.005   2.609  14.793  3.0255 -1.6906  0.2556
 4499TIP3   OH234987   3.524   0.347   3.241  0.2458  0.5055  0.3460
 4499TIP3    H134988   3.563   0.318   3.323 -0.0825  0.3495  0.4469
 4499TIP3    H234989   3.460   0.280   3.219  1.7968 -0.5480 -1.1356
 4500TIP3   OH234990   1.239   5.776   1.686 -0.0448 -0.4273 -0.2147
 4500TIP3    H134991   1.183   5.836   1.637 -0.9803 -0.0387  1.2573
 4500TIP3    H234992   1.269   5.827   1.761  3.3898 -0.2143 -1.5486
 4501TIP3   OH234993   6.702   5.138  15.326 -0.0908 -0.3505 -0.0467
 4501TIP3    H134994   6.772   5.189  15.367 -0.9497  0.3688  0.5544
 4501TIP3    H234995   6.720   5.144  15.232  0.9377 -0.6157  0.1153
 4502TIP3   OH234996   1.636   1.501   3.803  0.2092 -0.1844  0.2454
 4502TIP3    H134997   1.698   1.497   3.876 -2.0845 -0.6398  2.2980
 4502TIP3    H234998   1.567   1.560   3.832 -0.1529  0.7226 -2.1655
 4503TIP3   OH234999   3.267   0.360   2.598  0.4518 -0.0657 -0.0685
 4503TIP3    H135000   3.297   0.355   2.689 -1.0478 -1.0284  0.4100
 4503TIP3    H235001   3.172   0.349   2.604  0.0307  2.2688 -1.5760
 4504TIP3   OH235002   0.046   3.945  12.683 -0.1517 -0.7851 -0.2593
 4504TIP3    H135003   0.072   3.975  12.596 -1.6487 -1.3735 -0.9416
 4504TIP3    H235004   0.039   4.025  12.735  1.0880 -0.4599 -0.5764
 4505TIP3   OH235005   0.954   3.073   3.669 -0.1039 -0.5177 -0.1350
 4505TIP3    H135006   0.893   3.040   3.735 -3.2307  3.6339 -0.5199
 4505TIP3    H235007   0.911   3.055   3.586  0.6642 -0.0536 -0.6459
 4506TIP3   OH235008   1.626   3.442   3.007 -0.5478 -0.3996 -0.1045
 4506TIP3    H135009   1.651   3.441   2.915  1.7605  0.8459  0.4231
 4506TIP3    H235010   1.572   3.521   3.016  0.0055  0.0039 -0.2401
 4507TIP3   OH235011   4.753   3.885   4.581  0.3992 -0.3184  0.0546
 4507TIP3    H135012   4.766   3.931   4.664 -0.1817  0.5184 -0.3055
 4507TIP3    H235013   4.694   3.942   4.531  0.1611 -1.1613 -0.6466
 4508TIP3   OH235014   2.257   0.159  16.189  0.3249 -0.8922 -0.6302
 4508TIP3    H135015   2.317   0.196  16.125  0.1303  0.9887  0.1963
 4508TIP3    H235016   2.286   0.195  16.273 -0.6954 -1.6016  0.0623
 4509TIP3   OH235017   2.554   5.062   1.329  0.0990 -0.6544 -0.1236
 4509TIP3    H135018   2.597   4.991   1.378  0.2425 -0.3186  0.2387
 4509TIP3    H235019   2.467   5.027   1.308 -0.3814 -0.3888  1.3381
 4510TIP3   OH235020   4.585   2.082  12.497 -0.6090 -0.6680  0.1947
 4510TIP3    H135021   4.529   2.146  12.452 -2.7905 -1.8738  1.0173
 4510TIP3    H235022   4.665   2.130  12.517 -0.9014  0.8789 -1.9229
 4511TIP3   OH235023   6.214   2.519  13.717 -0.0767 -0.0468 -0.3743
 4511TIP3    H135024   6.260   2.547  13.796 -1.1314  3.5723 -0.8659
 4511TIP3    H235025   6.280   2.522  13.648  0.2551 -0.7340 -0.0990
 4512TIP3   OH235026   4.367   5.682  15.873  0.1559 -0.2238 -0.1171
 4512TIP3    H135027   4.293   5.623  15.887  0.6843 -0.3430  2.7795
 4512TIP3    H235028   4.329   5.769  15.876 -0.4659 -0.2903 -3.3192
 4513TIP3   OH235029   3.791   1.551  13.625  0.1352  0.0342 -0.1345
 4513TIP3    H135030   3.730   1.485  13.659 -1.2705  0.8819 -0.8839
 4513TIP3    H235031   3.789   1.621  13.690  2.7337 -1.1504  1.4047
 4514TIP3   OH235032   3.705   1.446  15.631 -0.2075  0.0962  0.0731
 4514TIP3    H135033   3.637   1.509  15.609  0.4712  0.4914 -0.9952
 4514TIP3    H235034   3.750   1.429  15.548 -0.2631 -1.6787  0.3534
 4515TIP3   OH235035   6.267   3.949   1.309 -0.0707  0.7049 -0.2403
 4515TIP3    H135036   6.201   3.902   1.360  0.0256  2.6245  1.8043
 4515TIP3    H235037   6.329   3.981   1.374  1.7363  0.7858 -1.9072
 4516TIP3   OH235038   5.371   2.428   5.608  0.0600  0.1264 -0.3737
 4516TIP3    H135039   5.278   2.429   5.631  0.0077  1.0757 -0.5705
 4516TIP3    H235040   5.416   2.396   5.686  0.0231  4.3917  1.6713
 4517TIP3   OH235041   2.809   6.582  16.061  0.3899 -0.1120  0.0652
 4517TIP3    H135042   2.885   6.639  16.061 -1.9456  3.3183 -0.7239
 4517TIP3    H235043   2.784   6.576  15.969 -1.1515  0.1419  0.4383
 4518TIP3   OH235044   2.361   3.826   4.937  0.0187 -0.2991 -0.2445
 4518TIP3    H135045   2.447   3.807   4.900 -0.7866  0.3434 -2.6421
 4518TIP3    H235046   2.379   3.875   5.017  1.8772  0.5353 -1.1266
 4519TIP3   OH235047   0.772   3.495  13.136 -0.1511  0.0043  0.0157
 4519TIP3    H135048   0.822   3.466  13.213 -0.8634 -2.4025 -0.3577
 4519TIP3    H235049   0.838   3.512  13.070  0.3996  1.0427  0.7947
 4520TIP3   OH235050   4.526   5.998   3.988  0.6638  0.3890  0.1776
 4520TIP3    H135051   4.613   6.003   4.026  0.7706 -1.2901  0.2170
 4520TIP3    H235052   4.530   5.925   3.926  0.2176  2.4168 -2.4118
 4521TIP3   OH235053   1.275   0.796   0.021 -0.1801  0.0196 -0.5089
 4521TIP3    H135054   1.342   0.756  -0.035  0.5174 -0.7021  0.7661
 4521TIP3    H235055   1.324   0.826   0.098 -0.9872  1.6586 -0.5872
 4522TIP3   OH235056   4.252   6.140  16.834 -0.4520 -0.4888  0.3015
 4522TIP3    H135057   4.167   6.100  16.851 -0.0245 -0.8763  1.6685
 4522TIP3    H235058   4.233   6.233  16.822 -1.1682 -0.7153 -0.3800
 4523TIP3   OH235059   5.893   2.157   1.877 -0.1085  0.5532 -0.0077
 4523TIP3    H135060   5.861   2.244   1.857 -0.3109  0.1445 -1.5781
 4523TIP3    H235061   5.974   2.172   1.926 -0.6809  1.5941  0.6664
 4524TIP3   OH235062   6.244   5.793  16.667 -0.3396 -1.1818 -0.2003
 4524TIP3    H135063   6.231   5.711  16.621 -0.9434 -1.0745 -0.2223
 4524TIP3    H235064   6.309   5.840  16.615 -0.0667 -1.6013 -0.2395
 4525TIP3   OH235065   1.546   3.672  11.746 -0.1840 -0.1017 -0.7798
 4525TIP3    H135066   1.485   3.629  11.806  0.4229  0.9368  0.6371
 4525TIP3    H235067   1.611   3.606  11.726  0.4782 -0.0301  0.9950
 4526TIP3   OH235068   1.039   6.039  15.681 -0.3111  0.5042 -0.1878
 4526TIP3    H135069   1.031   6.129  15.711  0.2682  0.6147 -0.3458
 4526TIP3    H235070   1.121   6.038  15.631 -0.3832 -0.0757 -0.2998
 4527TIP3   OH235071   0.717   0.275  16.069 -0.2764 -0.3061 -0.4750
 4527TIP3    H135072   0.719   0.357  16.118  3.0821  0.3690 -1.4733
 4527TIP3    H235073   0.649   0.289  16.003 -2.0213  0.3254  1.3364
 4528TIP3   OH235074   3.824   0.450   1.073  0.5296  0.1028 -0.2204
 4528TIP3    H135075   3.786   0.385   1.131 -0.4990 -0.4916 -1.5181
 4528TIP3    H235076   3.751   0.508   1.050  0.0153 -1.6221 -3.5221
 4529TIP3   OH235077   6.064   5.887  13.807  0.4228  0.3256  0.0158
 4529TIP3    H135078   6.080   5.981  13.818  0.2424  0.2913  0.5871
 4529TIP3    H235079   6.129   5.860  13.742  0.7750  0.7609  0.1782
 4530TIP3   OH235080   3.496   6.197  16.077  0.5545  0.1316 -0.1890
 4530TIP3    H135081   3.423   6.134  16.076  0.4244  0.2815 -0.1193
 4530TIP3    H235082   3.455   6.281  16.099 -0.0571  1.2049 -4.5664
 4531TIP3   OH235083   3.052   2.389  12.408 -0.0468  0.4124  0.5535
 4531TIP3    H135084   3.140   2.351  12.407 -0.4985 -0.6657  0.4408
 4531TIP3    H235085   3.001   2.334  12.349 -2.0345 -2.1465  4.2435
 4532TIP3   OH235086   4.755   2.529   2.971 -0.1666 -0.3270 -0.7807
 4532TIP3    H135087   4.783   2.555   3.059 -2.5057 -0.8385  0.1899
 4532TIP3    H235088   4.818   2.462   2.945  0.9365  0.2768  0.2244
 4533TIP3   OH235089   4.870   6.060   3.642 -0.0367  0.6590  0.2683
 4533TIP3    H135090   4.816   6.058   3.722 -0.5339  1.6226 -0.0200
 4533TIP3    H235091   4.856   6.148   3.607  1.0137  0.6029 -0.3174
 4534TIP3   OH235092   3.584   3.501  14.805 -0.4568  0.1845 -0.4477
 4534TIP3    H135093   3.658   3.496  14.745  0.8608  1.6479  0.9720
 4534TIP3    H235094   3.610   3.450  14.881 -0.1052  2.1184  0.7973
 4535TIP3   OH235095   2.388   4.830   5.925 -0.0351 -0.2590  0.2126
 4535TIP3    H135096   2.438   4.889   5.982  1.0303 -0.0246 -0.9312
 4535TIP3    H235097   2.325   4.788   5.984  0.2052  0.8809  1.3342
 4536TIP3   OH235098   0.609   2.021  14.470 -0.6519  0.1747  0.3169
 4536TIP3    H135099   0.518   2.048  14.483 -1.3234 -1.9563  0.3505
 4536TIP3    H235100   0.657   2.064  14.541 -1.7794  0.5806  0.8668
 4537TIP3   OH235101   5.575   4.834   6.276  0.2160  0.5129  0.3697
 4537TIP3    H135102   5.623   4.757   6.246  0.1172  0.2617  0.8552
 4537TIP3    H235103   5.574   4.826   6.371  0.9043  1.5350  0.4775
 4538TIP3   OH235104   5.124   2.954   3.093 -0.8997 -0.3182  0.1124
 4538TIP3    H135105   5.206   2.980   3.052  0.2476 -1.4374  1.6009
 4538TIP3    H235106   5.057   2.976   3.029  0.5778  0.3805 -1.2476
 4539TIP3   OH235107   0.035   0.174  16.971 -0.2190 -0.1103  0.3117
 4539TIP3    H135108   0.059   0.154  17.062  1.1648 -1.0574 -0.2443
 4539TIP3    H235109   0.090   0.117  16.918 -2.2854 -0.9259 -1.1117
 4540TIP3   OH235110   6.196   1.074  13.041  0.0695 -0.8280  0.3289
 4540TIP3    H135111   6.120   1.017  13.048 -0.6296  0.0467  0.0667
 4540TIP3    H235112   6.185   1.137  13.112  0.2545 -0.3643 -0.0470
 4541TIP3   OH235113   3.173   4.228  15.446  0.1666  0.3442  0.3563
 4541TIP3    H135114   3.267   4.217  15.456 -0.3076 -2.5458  3.9264
 4541TIP3    H235115   3.151   4.302  15.503  0.2293  0.8023 -0.2107
 4542TIP3   OH235116   0.317   5.545  14.126  0.3282 -1.3030  0.0866
 4542TIP3    H135117   0.254   5.562  14.196 -0.7715 -1.2597 -0.8880
 4542TIP3    H235118   0.323   5.628  14.079  0.7456 -1.4542 -0.1312
 4543TIP3   OH235119   2.779   5.277  10.384  0.1112  0.3851  0.3977
 4543TIP3    H135120   2.847   5.322  10.434  0.0393  2.1968 -1.0516
 4543TIP3    H235121   2.740   5.345  10.329 -1.4540 -1.0406 -0.3547
 4544TIP3   OH235122   1.069   2.503  16.490 -0.2600  0.0279  0.3847
 4544TIP3    H135123   1.149   2.456  16.513  0.0992  0.2940 -0.2843
 4544TIP3    H235124   1.005   2.434  16.473  0.0053 -0.2019  0.3048
 4545TIP3   OH235125   5.815   5.007   3.512 -0.1108 -0.2942 -0.1264
 4545TIP3    H135126   5.776   4.921   3.526  1.4261 -1.0490 -0.3175
 4545TIP3    H235127   5.907   4.989   3.495  0.4608  1.4641  0.9030
 4546TIP3   OH235128   2.269   4.355   1.656  0.3223  0.1199 -0.0076
 4546TIP3    H135129   2.274   4.265   1.624  3.1072  0.2354 -0.1177
 4546TIP3    H235130   2.303   4.350   1.746  0.3113  1.0499  0.0583
 4547TIP3   OH235131   0.375   0.459   2.393  0.4267  0.0991  0.1510
 4547TIP3    H135132   0.468   0.465   2.413  0.0856  0.3918  1.8736
 4547TIP3    H235133   0.337   0.536   2.436 -0.4601  0.7183 -1.6396
 4548TIP3   OH235134   0.744   1.745  12.374 -0.4115  0.0935  0.6908
 4548TIP3    H135135   0.752   1.731  12.280 -1.5341 -3.0437  0.9559
 4548TIP3    H235136   0.711   1.835  12.383  0.6051  0.7782 -1.8064
 4549TIP3   OH235137   1.653   1.804  15.889 -0.1289 -0.0356  0.2096
 4549TIP3    H135138   1.578   1.746  15.903  0.6502 -1.6867 -1.9229
 4549TIP3    H235139   1.618   1.875  15.835 -1.0846  1.6621  2.8278
 4550TIP3   OH235140   1.264   0.844  13.463 -0.7466  0.2053  0.1256
 4550TIP3    H135141   1.241   0.927  13.507 -2.6995 -0.5251  0.5625
 4550TIP3    H235142   1.204   0.839  13.389  0.2568 -0.2206 -0.6777
 4551TIP3   OH235143   5.257   5.744   2.517  0.2530  0.1592 -0.5392
 4551TIP3    H135144   5.344   5.773   2.543 -0.4116  2.1501 -0.3967
 4551TIP3    H235145   5.246   5.776   2.427 -0.4377  0.1936 -0.4494
 4552TIP3   OH235146   3.056   6.217   6.295 -0.3104  0.0099 -0.3319
 4552TIP3    H135147   3.128   6.271   6.326  0.0832 -0.0266 -1.1818
 4552TIP3    H235148   3.077   6.129   6.327  0.4006 -0.1427 -1.1965
 4553TIP3   OH235149   4.867   4.828  14.251  0.1719  0.3272  0.0466
 4553TIP3    H135150   4.899   4.768  14.317 -1.7118 -1.6445 -0.7240
 4553TIP3    H235151   4.892   4.915  14.283 -0.5915 -0.5319  3.2726
 4554TIP3   OH235152   2.457   6.585   4.282  0.0742 -0.2101  0.1320
 4554TIP3    H135153   2.363   6.592   4.296  0.0162  0.1583 -0.4214
 4554TIP3    H235154   2.465   6.555   4.191  0.5119  0.8789 -0.1999
 4555TIP3   OH235155   5.287   6.325  13.485  0.8616 -0.0978 -0.7855
 4555TIP3    H135156   5.327   6.319  13.399 -2.9510  1.3897 -2.8836
 4555TIP3    H235157   5.261   6.235  13.506  3.2485 -0.7408 -0.2873
 4556TIP3   OH235158   0.716   4.277  15.776 -0.5360 -0.9392  0.2629
 4556TIP3    H135159   0.656   4.337  15.821  1.4507 -1.0195  3.3481
 4556TIP3    H235160   0.665   4.197  15.763 -1.8928 -0.1035  0.1742
 4557TIP3   OH235161   6.662   5.153   3.173  0.0756 -0.5589 -0.5836
 4557TIP3    H135162   6.657   5.060   3.150 -2.1126 -0.3938 -1.0034
 4557TIP3    H235163   6.598   5.164   3.243  0.8638  0.5150  0.0084
 4558TIP3   OH235164   2.281   5.875  15.349  0.0112 -0.9682  0.0330
 4558TIP3    H135165   2.265   5.803  15.289  0.8058 -0.5789 -0.6704
 4558TIP3    H235166   2.330   5.837  15.422 -0.7442 -1.3917  0.3311
 4559TIP3   OH235167   5.988   6.097   6.366  0.4450  0.2862  0.2594
 4559TIP3    H135168   5.953   6.011   6.387  1.7198  0.2991  2.8676
 4559TIP3    H235169   5.954   6.154   6.434  2.0999  1.1473  0.4281
 4560TIP3   OH235170   2.528   5.390  11.225 -0.5008  0.1937  0.6654
 4560TIP3    H135171   2.587   5.347  11.286 -3.5239 -3.0179  1.6738
 4560TIP3    H235172   2.559   5.363  11.139  0.1287 -0.5937  1.1203
 4561TIP3   OH235173   4.822   5.779  10.953 -0.5346  0.1172 -0.4364
 4561TIP3    H135174   4.753   5.783  11.019  0.0965  2.4315  0.1686
 4561TIP3    H235175   4.840   5.870  10.930  0.6872 -0.5255 -2.3343
 4562TIP3   OH235176   0.367   1.854  11.624  0.1495  0.6432 -0.2664
 4562TIP3    H135177   0.444   1.893  11.667  0.1277 -0.6808  1.0371
 4562TIP3    H235178   0.305   1.926  11.617  0.1433  0.9414  2.0113
 4563TIP3   OH235179   1.575   4.617   1.444  0.2518  0.2153  0.4480
 4563TIP3    H135180   1.501   4.669   1.474 -0.8623 -0.3805 -1.1562
 4563TIP3    H235181   1.617   4.671   1.377  0.7147  0.1624  0.6928
 4564TIP3   OH235182   1.878   5.725  14.698  0.2997  0.2660 -0.4333
 4564TIP3    H135183   1.925   5.744  14.779 -1.0073  0.7935  0.2425
 4564TIP3    H235184   1.925   5.652  14.659 -0.6696 -1.9849  2.2779
 4565TIP3   OH235185   5.050   4.907   4.499  0.1219  0.4903 -0.2363
 4565TIP3    H135186   5.023   4.943   4.584  0.5829  0.0543  0.1052
 4565TIP3    H235187   5.145   4.919   4.498  0.0172  1.3473 -1.1046
 4566TIP3   OH235188   6.186   4.995  15.661  0.5721 -0.2285  0.0550
 4566TIP3    H135189   6.280   5.004  15.647  0.3057  2.0507 -0.6879
 4566TIP3    H235190   6.149   4.981  15.574  0.0470  1.3976 -0.0233
 4567TIP3   OH235191   2.250   3.175   0.098 -0.1212 -0.4207 -0.9528
 4567TIP3    H135192   2.333   3.129   0.107  0.6689  0.7085 -2.0737
 4567TIP3    H235193   2.200   3.150   0.176  1.6847 -0.2908  0.3082
 4568TIP3   OH235194   6.655   3.841   6.044  0.0914 -0.4150 -0.2447
 4568TIP3    H135195   6.736   3.804   6.077  0.9317  0.3051 -1.4416
 4568TIP3    H235196   6.669   3.936   6.044 -0.8916 -0.2565 -0.0878
 4569TIP3   OH235197   6.407   5.299   0.937  0.9007 -0.5029 -0.5566
 4569TIP3    H135198   6.394   5.389   0.906  1.7671  0.8631  2.6318
 4569TIP3    H235199   6.319   5.265   0.951  0.5583  0.4877 -0.2135
 4570TIP3   OH235200   3.840   2.176  14.285 -0.0171  0.5313  0.2187
 4570TIP3    H135201   3.827   2.265  14.317 -0.9088  0.7741 -0.7505
 4570TIP3    H235202   3.932   2.157  14.302  0.1872  1.6483  0.4091
 4571TIP3   OH235203   0.471   4.397  14.079 -0.0471  0.0132  0.0291
 4571TIP3    H135204   0.400   4.342  14.112  1.3918 -1.5388  0.6810
 4571TIP3    H235205   0.493   4.359  13.994  1.0830 -0.5615  0.5653
 4572TIP3   OH235206   4.922   5.244  13.057  0.0075  0.2683  0.6479
 4572TIP3    H135207   4.956   5.321  13.102 -0.5204  0.7183  0.2952
 4572TIP3    H235208   4.828   5.261  13.048 -0.5626 -1.4704  2.6502
 4573TIP3   OH235209   3.561   1.259  16.626 -0.4152 -0.0996  0.3606
 4573TIP3    H135210   3.622   1.186  16.621  0.8588  0.9973 -0.5856
 4573TIP3    H235211   3.572   1.293  16.715 -2.3077 -2.0656  1.4592
 4574TIP3   OH235212   1.683   6.018  13.020  0.0683 -0.2904  0.2647
 4574TIP3    H135213   1.655   6.093  13.072  0.7770 -0.4913  0.9517
 4574TIP3    H235214   1.608   6.000  12.963 -1.7375 -1.5102  2.7842
 4575TIP3   OH235215   5.500   3.011   2.147  0.0291 -0.4424 -0.2413
 4575TIP3    H135216   5.408   3.026   2.123  0.1726 -0.9975 -1.1993
 4575TIP3    H235217   5.526   2.935   2.094  0.9966 -0.3841  0.1360
 4576TIP3   OH235218   4.171   1.817  14.968 -0.3889 -0.3369 -0.1966
 4576TIP3    H135219   4.090   1.860  14.995  0.5928  1.6280 -0.1980
 4576TIP3    H235220   4.214   1.793  15.050  0.5828  1.7467 -0.0299
 4577TIP3   OH235221   4.341   0.532  11.420  0.2551  0.0513  0.8591
 4577TIP3    H135222   4.381   0.585  11.351 -0.7140  1.6177  1.4423
 4577TIP3    H235223   4.282   0.473  11.375 -0.3297  1.0265  0.3186
 4578TIP3   OH235224   0.364   2.288  15.859  0.5637 -0.6656  0.4042
 4578TIP3    H135225   0.274   2.317  15.847  0.4207 -0.8635  0.9632
 4578TIP3    H235226   0.376   2.219  15.793  1.3190  1.4648 -1.8245
 4579TIP3   OH235227   4.089   4.419  14.545 -0.4375  0.5826 -0.3769
 4579TIP3    H135228   4.056   4.331  14.560 -2.7937  1.5921  0.9978
 4579TIP3    H235229   4.061   4.441  14.456  0.3275 -0.0914 -0.7938
 4580TIP3   OH235230   4.002   5.424   4.898  0.1360  1.0057  0.3424
 4580TIP3    H135231   4.094   5.451   4.904  0.2517  0.3032  2.3479
 4580TIP3    H235232   3.999   5.340   4.943 -0.8788 -0.7558 -2.7252
 4581TIP3   OH235233   6.359   1.787  13.421 -0.4662  0.0315 -0.1936
 4581TIP3    H135234   6.287   1.850  13.425 -2.0891 -1.7111 -0.4348
 4581TIP3    H235235   6.404   1.808  13.339  1.4137  3.2001  1.4550
 4582TIP3   OH235236   6.387   2.586   2.492  0.0196 -0.4516  0.3219
 4582TIP3    H135237   6.410   2.670   2.453  0.6701 -0.0207  1.6053
 4582TIP3    H235238   6.469   2.537   2.495  0.2757  0.0073  2.2709
 4583TIP3   OH235239   4.743   4.842  13.805  0.3022  0.1776  0.0214
 4583TIP3    H135240   4.705   4.908  13.747  0.2432  0.2323  0.1197
 4583TIP3    H235241   4.667   4.792  13.836  0.3067  0.3073  0.2443
 4584TIP3   OH235242   4.592   3.537  13.100 -0.3485 -0.1089 -0.5343
 4584TIP3    H135243   4.550   3.490  13.028  0.4883 -1.8672  0.0682
 4584TIP3    H235244   4.675   3.568  13.063  0.1449 -1.1316 -0.3143
 4585TIP3   OH235245   6.747   0.973  15.079 -0.0478 -0.3746  0.5263
 4585TIP3    H135246   6.806   0.915  15.030  1.7106  0.7091  1.2791
 4585TIP3    H235247   6.795   1.055  15.088 -1.1539  0.1400  2.3045
 4586TIP3   OH235248   1.909   2.284  11.400 -0.5472 -0.3177  0.2618
 4586TIP3    H135249   1.877   2.371  11.425 -1.0817 -0.0708 -1.2071
 4586TIP3    H235250   1.881   2.273  11.310  0.7201 -1.4619 -0.0234
 4587TIP3   OH235251   4.506   2.308   1.448 -0.4376 -0.1096 -0.0892
 4587TIP3    H135252   4.497   2.251   1.523 -1.3232  0.5830  0.3503
 4587TIP3    H235253   4.598   2.333   1.447 -0.6037  0.6155  1.3266
 4588TIP3   OH235254   3.766   0.140   2.647 -0.2728 -0.0023  0.1510
 4588TIP3    H135255   3.752   0.229   2.617  0.2015  0.6871  1.8633
 4588TIP3    H235256   3.706   0.129   2.720  0.0465 -0.9165  0.2953
 4589TIP3   OH235257   6.329   0.311   3.162 -0.2228 -0.6142 -0.1074
 4589TIP3    H135258   6.385   0.378   3.122 -0.8745 -0.8803 -1.5159
 4589TIP3    H235259   6.313   0.343   3.251 -1.5905  1.8144 -1.1359
 4590TIP3   OH235260   4.255   4.472   1.147 -0.0246 -0.0903  0.8405
 4590TIP3    H135261   4.244   4.380   1.125 -2.0010  0.5686 -1.2528
 4590TIP3    H235262   4.339   4.496   1.108  0.0469 -0.7654  0.5729
 4591TIP3   OH235263   4.518   1.058  12.586  0.1646 -0.2444 -0.4120
 4591TIP3    H135264   4.448   1.092  12.642  1.4704  0.5808  0.7927
 4591TIP3    H235265   4.555   0.985  12.635  2.2887  1.3961  0.6159
 4592TIP3   OH235266   2.641   4.204   0.333 -0.5029  0.2090  0.8154
 4592TIP3    H135267   2.715   4.192   0.273 -0.2319  4.5986 -0.0647
 4592TIP3    H235268   2.666   4.156   0.412  2.1951 -0.4050 -0.3034
 4593TIP3   OH235269   4.951   0.075   0.135  0.3407  0.4864 -0.2773
 4593TIP3    H135270   5.009   0.003   0.157  1.2967  1.0299 -0.9479
 4593TIP3    H235271   4.941   0.124   0.217 -0.8432 -0.7396  0.3487
 4594TIP3   OH235272   2.532   2.887  15.430 -0.1236 -0.3959 -0.1541
 4594TIP3    H135273   2.496   2.833  15.359  1.0846  0.1285 -1.1999
 4594TIP3    H235274   2.495   2.848  15.510 -2.4938 -0.2613 -1.0962
 4595TIP3   OH235275   4.699   0.019   1.926  0.5997  0.1230  0.0410
 4595TIP3    H135276   4.719  -0.067   1.890 -0.1904 -0.1879  0.3269
 4595TIP3    H235277   4.779   0.045   1.972  0.7295 -0.5967  0.2274
 4596TIP3   OH235278   1.528   5.606  13.703 -0.3554 -0.2311  0.2040
 4596TIP3    H135279   1.509   5.687  13.657  1.1014  1.9535  3.1486
 4596TIP3    H235280   1.623   5.607  13.717 -0.2962 -2.4272  0.4293
 4597TIP3   OH235281   1.043   3.017  16.942  0.5006 -0.1508 -0.4197
 4597TIP3    H135282   0.961   2.968  16.943  0.3096  0.1675 -0.4420
 4597TIP3    H235283   1.088   2.990  17.022  0.9096 -1.2258 -0.9879
 4598TIP3   OH235284   4.104   1.167  14.418 -0.8567  0.0833  0.0465
 4598TIP3    H135285   4.136   1.219  14.492 -0.3237  0.6274 -0.5529
 4598TIP3    H235286   4.158   1.194  14.344 -1.5440 -0.2652 -0.6043
 4599TIP3   OH235287   3.336   3.017   1.079 -0.3404  0.1749  0.2505
 4599TIP3    H135288   3.359   2.958   1.151  0.7703  0.1626 -0.1020
 4599TIP3    H235289   3.320   2.959   1.005 -2.7427  0.0820  0.7392
 4600TIP3   OH235290   0.254   3.325  11.448 -0.6511  0.4949 -0.1095
 4600TIP3    H135291   0.237   3.343  11.355  0.3397  0.5420 -0.2913
 4600TIP3    H235292   0.333   3.374  11.468 -0.5116 -0.0024  0.6079
 4601TIP3   OH235293   4.979   2.355   1.289  0.0986  0.3580 -0.7089
 4601TIP3    H135294   4.907   2.383   1.346  0.1460 -0.2727 -0.3243
 4601TIP3    H235295   4.989   2.426   1.226  1.3635  2.0156  1.2479
 4602TIP3   OH235296   0.169   3.913  13.226 -0.3444 -0.1218  0.4391
 4602TIP3    H135297   0.166   3.852  13.153  1.0759  0.7428 -0.3866
 4602TIP3    H235298   0.242   3.882  13.280 -1.4827 -0.8500  1.6114
 4603TIP3   OH235299   0.002   4.994   0.487 -0.0955  0.1992  0.2738
 4603TIP3    H135300   0.067   5.013   0.554 -1.8277  1.5556  1.6760
 4603TIP3    H235301  -0.015   4.900   0.496  2.7305 -0.5548 -1.2207
 4604TIP3   OH235302   1.181   3.401   4.807  0.4982  0.2555 -0.5633
 4604TIP3    H135303   1.136   3.464   4.751 -1.7522 -0.6144  0.1684
 4604TIP3    H235304   1.170   3.435   4.895 -2.1132 -1.8097  0.0211
 4605TIP3   OH235305   0.604   0.601   5.716  0.5534 -0.7510 -0.0426
 4605TIP3    H135306   0.531   0.552   5.677  0.9814 -1.7485  0.3842
 4605TIP3    H235307   0.576   0.618   5.805 -0.9350  2.5583 -0.9866
 4606TIP3   OH235308   5.669   2.064  16.071  0.0073 -0.5573 -0.3626
 4606TIP3    H135309   5.582   2.097  16.051 -0.2690 -0.9157  0.2260
 4606TIP3    H235310   5.667   1.972  16.044  0.3378 -0.4613 -0.7270
 4607TIP3   OH235311   2.161   5.641   1.246  0.1565  0.0968 -0.2702
 4607TIP3    H135312   2.187   5.601   1.329 -1.9324 -1.2777 -0.1963
 4607TIP3    H235313   2.071   5.671   1.261 -0.0162  0.4317 -1.8282
 4608TIP3   OH235314   3.827   5.278   6.148 -0.4165 -0.3718 -0.1721
 4608TIP3    H135315   3.869   5.315   6.071 -1.5464  0.3087 -0.4888
 4608TIP3    H235316   3.899   5.242   6.200  0.5761  0.9606 -0.5738
 4609TIP3   OH235317   4.988   2.984   4.196 -0.0570  0.4217 -0.0619
 4609TIP3    H135318   4.910   2.961   4.146  0.0129  2.1246 -1.0394
 4609TIP3    H235319   4.965   2.964   4.287 -1.3787  0.2822 -0.4002
 4610TIP3   OH235320   1.535   1.889   3.740 -0.4552 -0.2639 -0.1859
 4610TIP3    H135321   1.566   1.869   3.652  0.6491 -2.2411  0.5729
 4610TIP3    H235322   1.600   1.850   3.798 -1.0060  1.2089  1.5400
 4611TIP3   OH235323   2.365   3.613  16.510 -0.3121 -0.1021 -0.0942
 4611TIP3    H135324   2.339   3.633  16.420  0.2529 -1.8374 -0.6838
 4611TIP3    H235325   2.457   3.590  16.504 -0.2438 -0.1652  0.9539
 4612TIP3   OH235326   6.215   4.597  15.406 -1.1153  0.5870  0.0821
 4612TIP3    H135327   6.167   4.602  15.488 -1.7338 -0.9875 -0.1546
 4612TIP3    H235328   6.149   4.574  15.341 -0.3406  0.1626 -0.5673
 4613TIP3   OH235329   6.504   4.390  11.546 -0.5183 -0.3800  0.0067
 4613TIP3    H135330   6.580   4.333  11.543  0.4360  0.7102  1.6253
 4613TIP3    H235331   6.460   4.378  11.462  1.1643 -1.3992 -0.7600
 4614TIP3   OH235332   5.326   6.104   2.279 -0.4517 -0.3853 -0.4447
 4614TIP3    H135333   5.415   6.069   2.270 -0.3924 -0.1812 -0.6754
 4614TIP3    H235334   5.338   6.190   2.321 -0.6060 -0.6920  0.2425
 4615TIP3   OH235335   5.245   3.331   4.420  0.5083 -0.0478 -0.3774
 4615TIP3    H135336   5.152   3.324   4.395  0.3318 -0.7778  0.4278
 4615TIP3    H235337   5.282   3.392   4.357 -0.5847  0.4710 -0.5407
 4616TIP3   OH235338   3.837   0.888  15.900  0.1236  0.1541 -0.4921
 4616TIP3    H135339   3.782   0.940  15.842 -1.0318 -1.6241 -1.0892
 4616TIP3    H235340   3.923   0.929  15.896 -1.0184  2.8456  0.2086
 4617TIP3   OH235341   2.650   3.207   4.209 -0.3266  0.2877  0.2260
 4617TIP3    H135342   2.655   3.209   4.305 -0.9735 -0.5220  0.2817
 4617TIP3    H235343   2.562   3.176   4.190  0.2085 -0.7626 -0.6204
 4618TIP3   OH235344   1.071   0.404  16.614  0.0989 -0.2952  0.0845
 4618TIP3    H135345   1.156   0.448  16.610  0.1432 -0.4548 -1.6091
 4618TIP3    H235346   1.020   0.455  16.676  0.4530  1.6296 -1.1244
 4619TIP3   OH235347   3.432   0.684  13.226 -0.6245 -0.1962  0.2375
 4619TIP3    H135348   3.399   0.685  13.136  0.1696 -0.4377 -0.0657
 4619TIP3    H235349   3.402   0.600  13.261 -1.6652  0.2658  0.4872
 4620TIP3   OH235350   2.458   0.921  13.432  0.0981 -0.6207  0.1306
 4620TIP3    H135351   2.434   0.846  13.377  1.5795 -0.7423 -0.4132
 4620TIP3    H235352   2.430   0.897  13.520 -1.8251 -0.6668 -0.4610
 4621TIP3   OH235353   5.694   6.779  13.167  0.5635 -0.8959  0.0158
 4621TIP3    H135354   5.622   6.756  13.108  0.4122 -2.8714  0.8824
 4621TIP3    H235355   5.771   6.785  13.111  0.0076 -0.2889 -0.7010
 4622TIP3   OH235356   2.483   4.466   2.816  0.0407 -0.5825  0.2208
 4622TIP3    H135357   2.494   4.555   2.781 -0.5135 -0.5334  0.1757
 4622TIP3    H235358   2.573   4.436   2.831  0.2692 -0.3900 -0.6961
 4623TIP3   OH235359   2.941   2.529   1.897  0.5584  0.5582 -0.1106
 4623TIP3    H135360   2.911   2.616   1.925  0.1689  0.3622  0.0860
 4623TIP3    H235361   2.874   2.469   1.929  1.6249 -0.0025  1.1902
 4624TIP3   OH235362   6.678   4.850  12.193 -0.2154  0.0464 -0.1573
 4624TIP3    H135363   6.748   4.911  12.170  1.2078 -0.6797  1.9309
 4624TIP3    H235364   6.616   4.903  12.243  0.0583  0.1838  0.0386
 4625TIP3   OH235365   4.926   5.469   3.063  0.2887 -0.4207  0.3633
 4625TIP3    H135366   4.840   5.429   3.074 -0.3938 -0.9526 -4.4518
 4625TIP3    H235367   4.908   5.555   3.024  1.9448  0.0763  0.5879
 4626TIP3   OH235368   1.089   1.063   3.227  0.5854 -0.0335 -0.0675
 4626TIP3    H135369   1.075   1.123   3.300  1.2959 -1.9767  1.7696
 4626TIP3    H235370   1.001   1.049   3.191 -0.4910 -1.9515  2.9300
 4627TIP3   OH235371   1.439   3.039  15.482  0.3043  0.1896  0.4987
 4627TIP3    H135372   1.501   3.110  15.464  1.0778 -0.4690  0.5377
 4627TIP3    H235373   1.388   3.030  15.401  1.8314 -0.8331 -0.3771
 4628TIP3   OH235374   0.001   4.117  15.858 -0.5667 -0.2965  0.2532
 4628TIP3    H135375   0.091   4.085  15.859 -0.4227  0.0934  0.0980
 4628TIP3    H235376  -0.051   4.044  15.889 -0.4436 -1.3506 -1.8205
 4629TIP3   OH235377   2.842   5.022  16.029 -0.0493  0.5324  0.2077
 4629TIP3    H135378   2.910   4.954  16.028  0.4087  0.9793 -1.1020
 4629TIP3    H235379   2.760   4.974  16.043  0.5111 -0.0031  1.9321
 4630TIP3   OH235380   1.402   6.607   3.281  0.0572  0.1200  0.1724
 4630TIP3    H135381   1.438   6.523   3.250  0.4004  0.1409  0.5053
 4630TIP3    H235382   1.424   6.669   3.212 -1.3406 -0.3046 -0.7064
 4631TIP3   OH235383   1.240   1.261  11.188  0.2159  0.2574 -0.4587
 4631TIP3    H135384   1.152   1.263  11.225  0.8261 -2.0223  1.3453
 4631TIP3    H235385   1.226   1.251  11.093 -1.4316  0.0569 -0.2213
 4632TIP3   OH235386   4.551   6.388  15.704 -0.3464  0.2491 -0.0849
 4632TIP3    H135387   4.478   6.439  15.668 -0.1132  0.3358 -0.4469
 4632TIP3    H235388   4.591   6.346  15.627  0.1055  0.3605  0.0857
 4633TIP3   OH235389   3.964   3.374   0.024  0.1269  0.4073 -0.7595
 4633TIP3    H135390   3.984   3.405  -0.065  2.8596  0.0738 -0.3353
 4633TIP3    H235391   4.048   3.375   0.069 -0.9856 -0.6569  1.4693
 4634TIP3   OH235392   2.897   6.827   1.251 -0.4304  0.4748  0.2172
 4634TIP3    H135393   2.812   6.862   1.277  0.5435  2.8904  0.3842
 4634TIP3    H235394   2.907   6.851   1.159 -0.3961 -0.8622 -0.1571
 4635TIP3   OH235395   1.484   5.210  16.480  0.2680 -0.0521 -0.6725
 4635TIP3    H135396   1.419   5.153  16.440  2.1338 -2.0378 -1.0922
 4635TIP3    H235397   1.559   5.153  16.496  0.3156  0.9390  4.1414
 4636TIP3   OH235398   4.774   0.486   2.055  0.6066  0.2902  0.0759
 4636TIP3    H135399   4.713   0.417   2.030  1.1717 -0.1208 -0.2135
 4636TIP3    H235400   4.729   0.535   2.124 -0.7309  1.0600 -1.2939
 4637TIP3   OH235401   0.555   5.099   1.044  0.5306 -0.2251 -0.3834
 4637TIP3    H135402   0.507   5.181   1.052  1.4836  0.2571  0.5442
 4637TIP3    H235403   0.571   5.072   1.134 -1.0626 -2.2318 -0.6194
 4638TIP3   OH235404   2.717   3.439  13.637 -0.1351  0.2516 -0.2699
 4638TIP3    H135405   2.674   3.524  13.637  0.2697  0.5238  2.0298
 4638TIP3    H235406   2.783   3.445  13.568  0.0936  1.9309  0.0592
 4639TIP3   OH235407   5.031   4.750   1.385  0.0973  0.1723 -0.0437
 4639TIP3    H135408   4.977   4.713   1.315 -1.2617  1.5085  0.2413
 4639TIP3    H235409   5.018   4.690   1.459  0.7775 -0.7161 -0.6175
 4640TIP3   OH235410   5.751   5.992  10.914 -0.3135  0.8463 -0.4254
 4640TIP3    H135411   5.723   5.962  10.827  0.2552 -0.1010 -0.3022
 4640TIP3    H235412   5.742   6.087  10.911 -2.2862  0.6828 -0.8087
 4641TIP3   OH235413   3.737   5.799  14.196 -0.3962 -0.5145  0.1594
 4641TIP3    H135414   3.670   5.830  14.257 -0.0535 -1.2705  0.9520
 4641TIP3    H235415   3.775   5.878  14.158 -2.5069 -0.0581 -1.2051
 4642TIP3   OH235416   4.281   1.618   1.533  0.1655 -0.8771 -0.2140
 4642TIP3    H135417   4.270   1.572   1.449  1.0793 -1.1907 -0.1635
 4642TIP3    H235418   4.365   1.587   1.567  1.0652  1.2040 -0.4187
 4643TIP3   OH235419   2.259   1.130  16.374 -0.4147  0.2473  0.1759
 4643TIP3    H135420   2.331   1.103  16.316 -1.5770 -2.8841  0.0064
 4643TIP3    H235421   2.187   1.149  16.314 -0.6523  0.2254  0.4579
 4644TIP3   OH235422   5.441   5.365   1.062 -0.1231 -0.0177 -0.3769
 4644TIP3    H135423   5.406   5.345   1.149 -1.6071 -0.4573 -1.0472
 4644TIP3    H235424   5.396   5.304   1.004  0.3991  0.6796 -1.5331
 4645TIP3   OH235425   0.396   3.596  12.537 -0.1654  0.7410  0.6740
 4645TIP3    H135426   0.421   3.633  12.621  2.8936  0.2183  0.1170
 4645TIP3    H235427   0.334   3.527  12.558 -0.0832  1.1647  2.4093
 4646TIP3   OH235428   3.392   3.249   5.249  0.1903 -0.5475 -0.7092
 4646TIP3    H135429   3.326   3.255   5.318 -0.1949 -0.0455 -1.1104
 4646TIP3    H235430   3.414   3.156   5.245  0.4057 -0.5419  0.2542
 4647TIP3   OH235431   6.243   5.526   1.673  0.4438 -0.1438  0.4518
 4647TIP3    H135432   6.259   5.584   1.599 -1.1632  1.0397  0.9776
 4647TIP3    H235433   6.182   5.574   1.729 -0.5454 -2.1237  1.1863
 4648TIP3   OH235434   5.948   1.022  10.916 -0.1643  0.2015  0.3323
 4648TIP3    H135435   6.007   0.975  10.974  1.4862  0.3840 -1.1227
 4648TIP3    H235436   6.003   1.049  10.843 -1.8120  1.4304 -0.5095
 4649TIP3   OH235437   2.920   2.523   2.792  0.3472  0.1180 -0.5606
 4649TIP3    H135438   2.993   2.551   2.848  1.1078  0.0140 -1.4878
 4649TIP3    H235439   2.862   2.476   2.852  0.3301  1.4009  0.4915
 4650TIP3   OH235440   5.875   0.253   2.519 -0.0345 -0.8911  0.5627
 4650TIP3    H135441   5.848   0.228   2.608  1.1815  1.7652  1.8045
 4650TIP3    H235442   5.970   0.238   2.518 -0.1619 -1.8022 -0.6817
 4651TIP3   OH235443   5.179   4.871  11.785  0.2347  0.5127  0.2218
 4651TIP3    H135444   5.263   4.910  11.765 -0.2617  1.6686  0.3195
 4651TIP3    H235445   5.164   4.891  11.878  0.0078  0.0074  0.3000
 4652TIP3   OH235446   6.016   4.882  12.772  0.3673 -0.4504 -0.3451
 4652TIP3    H135447   5.941   4.934  12.798  2.2383  1.5980  1.3421
 4652TIP3    H235448   6.021   4.891  12.677  0.3319  2.1565 -0.1621
 4653TIP3   OH235449   4.764   0.228   4.860 -0.5453  0.3134  0.1402
 4653TIP3    H135450   4.706   0.154   4.843 -1.0160  0.4832  0.9449
 4653TIP3    H235451   4.829   0.194   4.921 -0.5193  0.4493  0.1882
 4654TIP3   OH235452   5.924   3.323  14.932  0.1949 -0.1877 -0.3639
 4654TIP3    H135453   5.849   3.330  14.990 -1.5434  1.5467 -2.6273
 4654TIP3    H235454   5.993   3.373  14.975 -0.6621  0.0715  0.7405
 4655TIP3   OH235455   1.929   6.158  13.371  0.1484 -0.0773 -0.2172
 4655TIP3    H135456   1.858   6.160  13.435  0.3464 -3.6668  0.3309
 4655TIP3    H235457   2.004   6.123  13.419  1.5043  0.9336 -1.4934
 4656TIP3   OH235458   6.703   0.534  11.265 -0.5020  0.0220  0.2412
 4656TIP3    H135459   6.661   0.543  11.180  0.2371 -0.7475 -0.2266
 4656TIP3    H235460   6.749   0.617  11.279  1.3147 -0.6521 -1.2266
 4657TIP3   OH235461   3.701   0.476   4.797  0.1383 -0.5885 -0.0161
 4657TIP3    H135462   3.618   0.451   4.756 -0.6324 -0.3039  1.3149
 4657TIP3    H235463   3.676   0.510   4.883  1.6259 -0.3205  0.3372
 4658TIP3   OH235464   0.730   5.439   2.728 -0.2539  0.3521  0.6980
 4658TIP3    H135465   0.679   5.446   2.808 -0.3089 -1.5573  0.8735
 4658TIP3    H235466   0.754   5.346   2.723  1.7759  0.8672 -0.2420
 4659TIP3   OH235467   3.372   6.747  16.897 -0.2862 -0.1282 -0.4794
 4659TIP3    H135468   3.340   6.709  16.979  1.7190 -3.3750 -1.0490
 4659TIP3    H235469   3.465   6.763  16.912 -0.7448  3.7775 -0.7052
 4660TIP3   OH235470   6.659   3.726  16.339  0.1954  0.5336  0.0930
 4660TIP3    H135471   6.706   3.787  16.396  1.4551  0.4917 -0.8429
 4660TIP3    H235472   6.719   3.712  16.265 -0.4290 -1.1492 -0.1437
 4661TIP3   OH235473   1.191   3.453   3.698 -0.3910 -0.0310  0.1121
 4661TIP3    H135474   1.206   3.362   3.724  1.2071  0.0556 -0.4168
 4661TIP3    H235475   1.180   3.500   3.780 -0.8985 -0.6433  0.4020
 4662TIP3   OH235476   6.293   0.601  12.330 -0.1675 -0.2032  0.1809
 4662TIP3    H135477   6.244   0.673  12.291 -1.5651 -0.8707  0.6565
 4662TIP3    H235478   6.280   0.611  12.424 -0.8370 -1.3814  0.2294
 4663TIP3   OH235479   4.227   4.221   1.688 -0.4484  0.0062  0.0583
 4663TIP3    H135480   4.279   4.257   1.760  1.5373 -1.5908 -0.5151
 4663TIP3    H235481   4.229   4.127   1.701  0.4178 -0.3649 -2.3717
 4664TIP3   OH235482   1.011   1.045  10.660 -0.9628  0.2001 -0.1036
 4664TIP3    H135483   1.026   0.951  10.647  1.4214  0.3587  0.9106
 4664TIP3    H235484   0.917   1.056  10.648 -1.4384 -2.4390  0.4711
 4665TIP3   OH235485   2.948   0.311   0.013  0.2177 -0.0751 -0.6238
 4665TIP3    H135486   3.028   0.300  -0.039  0.9697  0.7577  0.3182
 4665TIP3    H235487   2.942   0.405   0.028  0.1437 -0.3095  0.9600
 4666TIP3   OH235488   0.871   1.734   0.607 -0.0990  0.6741  0.7191
 4666TIP3    H135489   0.936   1.785   0.656  0.8279 -0.0392  0.2517
 4666TIP3    H235490   0.830   1.679   0.673 -0.1049  0.9906  0.9868
 4667TIP3   OH235491   4.980   6.182   6.458  0.6913 -0.3952 -0.0649
 4667TIP3    H135492   4.945   6.248   6.518 -0.0667  0.3818 -1.3299
 4667TIP3    H235493   4.922   6.184   6.383  2.1848 -0.6092 -1.2875
 4668TIP3   OH235494   3.719   1.120  16.861 -0.3180 -0.0140  0.0353
 4668TIP3    H135495   3.634   1.150  16.894 -0.3482  0.4489 -0.4433
 4668TIP3    H235496   3.778   1.193  16.878 -0.6121  0.7844 -2.0602
 4669TIP3   OH235497   5.560   3.601   2.000  0.1709 -0.1581 -0.0899
 4669TIP3    H135498   5.492   3.668   1.988 -0.5245 -0.6959  0.7725
 4669TIP3    H235499   5.592   3.616   2.089  0.2700 -0.7425 -0.0284
 4670TIP3   OH235500   5.679   1.213   3.706  0.2086  0.0821 -0.1126
 4670TIP3    H135501   5.731   1.215   3.625  1.0535  0.0744  0.4109
 4670TIP3    H235502   5.597   1.256   3.683  0.6992  0.6835 -0.8006
 4671TIP3   OH235503   1.047   2.606   0.425 -0.4849  0.1853 -0.2251
 4671TIP3    H135504   1.096   2.545   0.481  1.2048  0.3320 -1.4511
 4671TIP3    H235505   1.011   2.551   0.355 -1.2220  0.2346  0.1035
 4672TIP3   OH235506   2.614   0.188  14.641 -0.1163  0.3109  0.1097
 4672TIP3    H135507   2.605   0.166  14.733 -0.4306 -0.5122 -0.1100
 4672TIP3    H235508   2.533   0.235  14.619  0.4575  1.5445  0.5224
 4673TIP3   OH235509   4.207   3.609   2.185 -0.0050 -0.3966 -0.2163
 4673TIP3    H135510   4.192   3.559   2.105  1.1923  0.9271 -1.3180
 4673TIP3    H235511   4.294   3.648   2.173 -0.3328  0.8617  1.1907
 4674TIP3   OH235512   1.128   1.941   1.862  0.1925  0.3786  0.0563
 4674TIP3    H135513   1.077   1.904   1.934  0.9243  0.0283  0.4029
 4674TIP3    H235514   1.194   1.875   1.842 -0.7770 -0.0912 -1.8083
 4675TIP3   OH235515   2.156   6.346  13.367 -0.4197 -0.3225  0.1268
 4675TIP3    H135516   2.131   6.389  13.286  0.4146  0.1315  0.1081
 4675TIP3    H235517   2.105   6.264  13.367 -0.0375 -0.5782 -1.0981
 4676TIP3   OH235518   3.286   3.407   4.397 -0.1104  0.6447 -0.7821
 4676TIP3    H135519   3.212   3.349   4.415  1.1860 -1.1904 -1.0351
 4676TIP3    H235520   3.323   3.374   4.315  2.9424 -0.7200  0.9686
 4677TIP3   OH235521   1.858   2.266  11.143 -0.4950 -0.1263 -0.1332
 4677TIP3    H135522   1.810   2.329  11.090 -0.9399  0.2505  0.6851
 4677TIP3    H235523   1.929   2.235  11.087 -0.5676  0.7348 -0.7148
 4678TIP3   OH235524   4.528   1.370  15.255  1.0572  0.2314  0.2946
 4678TIP3    H135525   4.448   1.363  15.307  0.3400  0.2311 -0.8016
 4678TIP3    H235526   4.541   1.464  15.244  0.7086  0.2125 -0.2879
 4679TIP3   OH235527   2.566   3.042  12.605 -0.6573 -0.3240 -0.3359
 4679TIP3    H135528   2.488   2.996  12.573  0.1092 -1.7793 -0.1990
 4679TIP3    H235529   2.531   3.115  12.656 -1.9743  2.1444 -4.3022
 4680TIP3   OH235530   3.757   3.419  12.479  0.5535  0.1658  0.3448
 4680TIP3    H135531   3.823   3.353  12.499 -0.5077 -1.1738 -0.3836
 4680TIP3    H235532   3.741   3.463  12.562  0.7551 -1.0088  1.0384
 4681TIP3   OH235533   2.840   3.749  13.575  0.2794  0.3528  0.2413
 4681TIP3    H135534   2.884   3.741  13.659 -0.2471  2.0570  0.7165
 4681TIP3    H235535   2.881   3.825  13.533  0.0776 -0.0736 -0.7642
 4682TIP3   OH235536   3.160   1.319   1.235  0.7937  0.3627 -0.5283
 4682TIP3    H135537   3.150   1.360   1.321  1.1947 -0.1475 -0.2305
 4682TIP3    H235538   3.147   1.390   1.173 -0.0681  0.6223 -0.0655
 4683TIP3   OH235539   3.629   1.946  12.997  0.7408 -0.3252 -0.2012
 4683TIP3    H135540   3.574   2.011  12.954 -1.2279 -0.2017  2.2903
 4683TIP3    H235541   3.710   1.945  12.946  0.6122  3.5740 -0.7161
 4684TIP3   OH235542   2.080   1.970   4.711 -0.5106  0.0088 -0.7121
 4684TIP3    H135543   2.043   2.046   4.665  0.1856 -0.0221 -1.3232
 4684TIP3    H235544   2.108   1.911   4.642  0.5616 -0.0311 -0.2574
 4685TIP3   OH235545   4.643   4.827  15.070 -0.0503  0.1302 -0.2163
 4685TIP3    H135546   4.585   4.759  15.037 -0.1867  1.2850 -2.5461
 4685TIP3    H235547   4.667   4.797  15.157 -3.7331 -0.6583  0.7203
 4686TIP3   OH235548   4.527   0.631  11.235 -0.7611  0.1316 -0.3700
 4686TIP3    H135549   4.610   0.668  11.204 -1.7329  1.0289 -2.0733
 4686TIP3    H235550   4.524   0.544  11.195 -0.0439 -0.4806  0.8395
 4687TIP3   OH235551   2.887   1.313   2.894 -0.1783 -0.0167 -0.2550
 4687TIP3    H135552   2.857   1.403   2.894  0.0368  0.0565 -0.2562
 4687TIP3    H235553   2.809   1.261   2.874 -0.4883  0.1108  0.5642
 4688TIP3   OH235554   2.791   6.319  15.704  0.2311 -0.6231 -0.2536
 4688TIP3    H135555   2.728   6.254  15.674  0.8535 -0.0112 -3.2158
 4688TIP3    H235556   2.747   6.364  15.776 -1.0503 -2.8476  0.4281
 4689TIP3   OH235557   0.935   0.646   2.416  0.1430 -0.7879  0.7080
 4689TIP3    H135558   0.913   0.591   2.492 -1.2658 -1.1834  0.0574
 4689TIP3    H235559   0.880   0.724   2.427 -0.3088 -0.9882 -0.0421
 4690TIP3   OH235560   3.874   2.172   5.761 -0.4151  0.1470 -0.0997
 4690TIP3    H135561   3.827   2.149   5.841  1.1217  0.3244  0.8907
 4690TIP3    H235562   3.852   2.264   5.747  0.8102  0.6831  1.2458
 4691TIP3   OH235563   5.641   4.665  14.512  0.2331 -0.3450 -0.4944
 4691TIP3    H135564   5.570   4.702  14.459 -1.4791  1.9443  2.9514
 4691TIP3    H235565   5.714   4.726  14.500  0.4085 -0.7322 -1.4036
 4692TIP3   OH235566   0.611   0.921   5.820  0.6449  0.3098  0.1880
 4692TIP3    H135567   0.662   0.945   5.742  2.6282  1.3480  1.7028
 4692TIP3    H235568   0.603   0.826   5.814  2.9807  0.0683 -0.0620
 4693TIP3   OH235569   0.968   0.856  12.688 -0.0036  0.2180 -0.6308
 4693TIP3    H135570   1.034   0.911  12.731 -1.2414  1.2474  0.0546
 4693TIP3    H235571   1.016   0.779  12.657  1.3467  0.5309  0.5902
 4694TIP3   OH235572   5.688   6.568  12.357 -0.7074  0.0405 -0.0686
 4694TIP3    H135573   5.699   6.542  12.448  1.5845 -3.1760 -1.0958
 4694TIP3    H235574   5.610   6.521  12.327 -0.3343 -0.4598 -0.2585
 4695TIP3   OH235575   5.443   6.145  11.913 -0.0641 -0.9237  0.2063
 4695TIP3    H135576   5.451   6.131  11.819 -0.3055  0.0494  0.0253
 4695TIP3    H235577   5.491   6.227  11.929 -1.2443 -0.2990  0.6817
 4696TIP3   OH235578   6.753   3.537   4.173  0.4461  0.8345 -0.0443
 4696TIP3    H135579   6.758   3.492   4.089  1.4172  0.8674 -0.0192
 4696TIP3    H235580   6.659   3.551   4.188  0.1836 -0.3494 -0.4855
 4697TIP3   OH235581   0.176   4.346   4.828  0.0769 -0.0694 -0.1008
 4697TIP3    H135582   0.186   4.441   4.834  0.6405 -0.1681  0.6634
 4697TIP3    H235583   0.262   4.314   4.801 -0.4271 -0.2813 -1.5478
 4698TIP3   OH235584   2.456   2.166  16.967  0.0657  0.5289 -0.1009
 4698TIP3    H135585   2.540   2.118  16.968 -0.7198 -0.9297 -0.7978
 4698TIP3    H235586   2.413   2.138  17.048 -0.5386 -0.2529 -0.6737
 4699TIP3   OH235587   2.227   6.202   4.986  0.3280  0.2743  0.3734
 4699TIP3    H135588   2.154   6.164   5.036 -0.3350 -0.3155 -1.0092
 4699TIP3    H235589   2.245   6.138   4.917  0.8794  1.3184 -0.4779
 4700TIP3   OH235590   0.684   4.043  15.032  0.3915  0.1565  0.4398
 4700TIP3    H135591   0.599   4.087  15.033  0.8861  1.1506  2.6528
 4700TIP3    H235592   0.740   4.102  14.982  0.1580  0.2343  0.2650
 4701TIP3   OH235593   5.739   0.829   2.661  0.3109  0.0730  0.4328
 4701TIP3    H135594   5.832   0.818   2.639  0.4593  2.1822 -0.2099
 4701TIP3    H235595   5.695   0.759   2.613  1.5311 -0.8675  0.6182
 4702TIP3   OH235596   2.649   0.301   0.895 -0.7247 -0.5016  0.6380
 4702TIP3    H135597   2.656   0.361   0.820 -0.6669 -0.8585  0.3557
 4702TIP3    H235598   2.737   0.265   0.905 -1.2213 -2.1569 -0.5544
 4703TIP3   OH235599   1.341   0.814  12.604 -0.1787  0.3935  0.1874
 4703TIP3    H135600   1.272   0.769  12.555  0.3387 -1.0457  0.7541
 4703TIP3    H235601   1.321   0.907  12.592 -1.2658  0.0356 -1.0111
 4704TIP3   OH235602   3.548   1.293   3.621  0.1539  0.0347 -0.0215
 4704TIP3    H135603   3.569   1.272   3.712 -0.4397  0.5475  0.2435
 4704TIP3    H235604   3.517   1.210   3.584  0.2603 -0.1451  0.2872
 4705TIP3   OH235605   1.132   3.312  13.199 -0.1846  0.5431  0.1872
 4705TIP3    H135606   1.109   3.279  13.112  1.5760  0.1489 -0.1519
 4705TIP3    H235607   1.207   3.370  13.185 -0.7807  1.6427  1.2796
 4706TIP3   OH235608   0.053   4.784  12.468  0.0671 -0.2253 -0.1120
 4706TIP3    H135609   0.126   4.822  12.419  1.0346  0.1493  1.5409
 4706TIP3    H235610   0.081   4.694  12.485 -0.3395 -0.4048 -0.3946
 4707TIP3   OH235611   1.609   5.489  15.107  0.3396 -0.2838  0.2150
 4707TIP3    H135612   1.579   5.500  15.197 -1.1691  0.2896 -0.3277
 4707TIP3    H235613   1.537   5.443  15.063  1.1717 -0.8148 -0.6311
 4708TIP3   OH235614   0.600   3.457  12.757 -0.3799 -0.0213 -0.4938
 4708TIP3    H135615   0.690   3.492  12.759 -0.0638 -0.7374 -1.4057
 4708TIP3    H235616   0.584   3.428  12.846  0.3696 -0.0445 -0.3594
 4709TIP3   OH235617   1.990   0.549  11.019  0.4633 -0.3187 -0.0572
 4709TIP3    H135618   1.995   0.604  10.941 -0.1408  1.8738  1.3615
 4709TIP3    H235619   1.929   0.479  10.996  0.0076  0.4945 -1.4187
 4710TIP3   OH235620   1.104   4.659  17.088 -0.1516 -0.5529  0.0760
 4710TIP3    H135621   1.086   4.612  17.006 -0.5130 -0.2459 -0.0264
 4710TIP3    H235622   1.020   4.659  17.134 -0.0901 -0.2317  0.1916
 4711TIP3   OH235623   2.140   1.936  11.979 -0.4338 -0.0380  0.1535
 4711TIP3    H135624   2.122   2.029  11.967 -0.6415 -0.1564 -0.4755
 4711TIP3    H235625   2.233   1.933  12.002 -0.0094  0.2272 -1.3874
 4712TIP3   OH235626   3.472   4.646  14.213 -0.0252  0.1273 -0.2013
 4712TIP3    H135627   3.490   4.672  14.304 -0.3158 -0.2100 -0.0418
 4712TIP3    H235628   3.557   4.619  14.179 -0.0830 -0.7793  0.3235
 4713TIP3   OH235629   5.992   5.558  13.182 -0.1058  0.2721 -0.0583
 4713TIP3    H135630   5.984   5.641  13.134 -0.7143  0.1256 -0.2099
 4713TIP3    H235631   6.085   5.552  13.202 -0.3552  2.0976  1.9256
 4714TIP3   OH235632   1.032   1.391  12.599  0.2103  0.3971  0.3164
 4714TIP3    H135633   1.048   1.420  12.509  0.0329 -0.0723  0.1227
 4714TIP3    H235634   0.960   1.328  12.590 -0.4088  1.0069  0.9017
 4715TIP3   OH235635   1.984   3.834  13.850  0.3183  0.4491 -0.3217
 4715TIP3    H135636   1.914   3.896  13.828  0.5456  1.5539  1.7940
 4715TIP3    H235637   1.940   3.766  13.901  0.3940 -0.1273 -1.0232
 4716TIP3   OH235638   2.038   5.657   6.223 -0.1485 -0.1514 -0.0480
 4716TIP3    H135639   2.024   5.565   6.244  0.3936 -0.1553  0.3063
 4716TIP3    H235640   1.991   5.670   6.140 -1.4451 -0.3832  0.6360
 4717TIP3   OH235641   5.386   3.859  13.381  0.6595  0.3021  0.1036
 4717TIP3    H135642   5.306   3.896  13.344  0.9038  1.6992  0.9309
 4717TIP3    H235643   5.358   3.816  13.461  0.4897 -0.7484 -0.4952
 4718TIP3   OH235644   3.930   0.344   2.874 -0.0923  0.5055 -0.0981
 4718TIP3    H135645   3.851   0.330   2.925 -0.3470  1.9404 -0.0462
 4718TIP3    H235646   3.969   0.423   2.912  0.5169  0.7268 -1.1357
 4719TIP3   OH235647   0.356   3.073   3.301 -0.0443  0.0035 -0.3269
 4719TIP3    H135648   0.317   3.011   3.363 -2.8727  2.1668  0.2582
 4719TIP3    H235649   0.431   3.109   3.347 -0.1658 -0.8093  0.5288
 4720TIP3   OH235650   0.491   2.052   3.048 -0.2674  0.2288 -0.4317
 4720TIP3    H135651   0.455   2.123   2.995 -0.4492  0.3393 -0.1571
 4720TIP3    H235652   0.558   2.012   2.991  1.4732  2.0457  0.2378
 4721TIP3   OH235653   4.861   5.238  15.590 -0.3176 -0.2278  0.6767
 4721TIP3    H135654   4.892   5.326  15.568  1.2931 -1.0131 -0.3773
 4721TIP3    H235655   4.912   5.213  15.667  2.0812 -1.6394 -1.2352
 4722TIP3   OH235656   3.828   0.208  15.098  0.2572 -0.2346 -0.1343
 4722TIP3    H135657   3.810   0.168  15.013 -1.9235  1.5686 -0.6214
 4722TIP3    H235658   3.876   0.288  15.077  0.9550 -0.4822  0.4793
 4723TIP3   OH235659   3.142   0.354   2.074 -0.3358 -0.0312 -0.6593
 4723TIP3    H135660   3.068   0.402   2.111  0.9010  0.9869  0.6214
 4723TIP3    H235661   3.215   0.376   2.132  0.8881 -1.2888 -1.6767
 4724TIP3   OH235662   2.401   3.926   2.596  0.0570 -0.4421 -0.0428
 4724TIP3    H135663   2.368   3.919   2.506 -0.2904 -2.0860  0.1708
 4724TIP3    H235664   2.391   3.838   2.631 -2.0318  0.6175  2.3807
 4725TIP3   OH235665   0.416   4.313  15.269 -0.3911 -0.4331  0.2376
 4725TIP3    H135666   0.421   4.387  15.330 -0.9389  0.0560 -0.2984
 4725TIP3    H235667   0.402   4.237  15.325  0.2718 -0.1460  0.8048
 4726TIP3   OH235668   5.287   2.521   4.359  0.0661 -0.1832  0.4651
 4726TIP3    H135669   5.373   2.563   4.362  1.3179 -2.4673 -0.8761
 4726TIP3    H235670   5.284   2.465   4.436  0.3949 -1.1802 -0.2343
 4727TIP3   OH235671   2.931   0.835   1.645  0.8543 -0.2457  0.1084
 4727TIP3    H135672   2.928   0.835   1.549  3.3669  2.9964 -0.1692
 4727TIP3    H235673   2.996   0.769   1.667  0.4095 -0.8750 -0.4352
 4728TIP3   OH235674   1.866   2.475  14.421 -0.0723 -0.2302 -0.0304
 4728TIP3    H135675   1.851   2.569  14.424  0.0618 -0.1376 -1.5509
 4728TIP3    H235676   1.867   2.448  14.513  1.2470  1.4640  0.5213
 4729TIP3   OH235677   5.142   3.202   0.187 -0.0124  0.0351 -0.5732
 4729TIP3    H135678   5.187   3.158   0.259  1.5282 -0.1495 -1.6164
 4729TIP3    H235679   5.060   3.154   0.177  1.4031 -2.3531 -1.3603
 4730TIP3   OH235680   1.621   3.170  17.106 -0.3871  0.2551 -0.0754
 4730TIP3    H135681   1.529   3.197  17.100 -0.3281  0.2809 -1.1956
 4730TIP3    H235682   1.621   3.098  17.168 -1.0814  0.5975  0.3435
 4731TIP3   OH235683   4.666   0.739   0.786  0.1039 -0.2341 -0.0795
 4731TIP3    H135684   4.675   0.675   0.857  0.2328  0.8854  0.9468
 4731TIP3    H235685   4.593   0.795   0.813 -0.1157 -0.0339 -1.0376
 4732TIP3   OH235686   1.838   6.588   3.299  0.0626  0.6067 -0.6578
 4732TIP3    H135687   1.843   6.624   3.387 -1.5661  1.7963 -1.0045
 4732TIP3    H235688   1.763   6.529   3.302  1.7816 -1.7364 -0.5078
 4733TIP3   OH235689   1.538   6.494  12.732 -0.1157  0.1612 -0.6825
 4733TIP3    H135690   1.482   6.421  12.707  0.4004 -0.7184  0.6093
 4733TIP3    H235691   1.562   6.535  12.650 -0.0879 -1.3811 -1.4828
 4734TIP3   OH235692   3.338   2.685   3.457 -0.0701  0.7437  0.1043
 4734TIP3    H135693   3.424   2.642   3.467 -0.3845 -0.6243 -2.2722
 4734TIP3    H235694   3.303   2.689   3.546  1.4495 -0.9024  0.8512
 4735TIP3   OH235695   5.247   0.737  11.113  0.4483 -0.3646 -0.0382
 4735TIP3    H135696   5.166   0.766  11.071 -0.2334 -2.1951 -0.0923
 4735TIP3    H235697   5.222   0.721  11.204  0.0348 -3.2411 -0.5501
 4736TIP3   OH235698   3.086   5.418  15.696  0.5763  0.0716  0.1993
 4736TIP3    H135699   3.057   5.478  15.765  0.4824  0.3805 -0.1059
 4736TIP3    H235700   3.093   5.333  15.740  0.7247  0.3076  0.6357
 4737TIP3   OH235701   3.445   3.145   4.789  0.9623  0.1513  0.1183
 4737TIP3    H135702   3.476   3.120   4.702  1.1050 -0.7948  0.4217
 4737TIP3    H235703   3.418   3.236   4.780  2.6527  0.6265 -0.4721
 4738TIP3   OH235704   5.572   6.508  15.518  0.5264  0.5117  0.2880
 4738TIP3    H135705   5.534   6.553  15.593  0.4498  0.3633  0.3373
 4738TIP3    H235706   5.596   6.421  15.551 -0.7693 -0.0536 -0.2020
 4739TIP3   OH235707   5.619   0.982   3.924 -0.5190  0.2166 -1.1038
 4739TIP3    H135708   5.576   1.049   3.976  1.1192  0.9662 -0.6540
 4739TIP3    H235709   5.648   1.028   3.845  1.0044  0.1629 -0.5919
 4740TIP3   OH235710   6.359   6.525  14.708 -0.1712 -0.2106  0.3143
 4740TIP3    H135711   6.432   6.534  14.646 -0.0949 -3.1974 -0.1593
 4740TIP3    H235712   6.283   6.509  14.653 -1.5602  3.8436  0.7428
 4741TIP3   OH235713   5.866   4.043  16.163  0.1748  0.1880  0.0847
 4741TIP3    H135714   5.802   4.113  16.168 -0.8805 -0.5590 -1.9326
 4741TIP3    H235715   5.922   4.067  16.089  0.3072 -0.6640 -0.1049
 4742TIP3   OH235716   3.533   5.591   2.239 -0.4567 -0.4232  0.8277
 4742TIP3    H135717   3.538   5.514   2.296  1.3821 -1.1404 -0.1982
 4742TIP3    H235718   3.566   5.663   2.294 -1.7672 -0.4309  1.6560
 4743TIP3   OH235719   1.565   2.009   4.862  0.0459 -0.6933  0.2226
 4743TIP3    H135720   1.636   1.945   4.868  0.2100 -0.4168  1.5973
 4743TIP3    H235721   1.535   2.004   4.771  0.4830 -2.2543  0.1367
 4744TIP3   OH235722   4.899   3.879  12.635  0.1341 -0.0290 -0.9212
 4744TIP3    H135723   4.926   3.895  12.545 -0.9616  0.5153 -1.1687
 4744TIP3    H235724   4.959   3.932  12.688  1.9276 -1.6992 -1.1738
 4745TIP3   OH235725   3.301   1.712  12.514  0.5335  0.0532 -0.6077
 4745TIP3    H135726   3.215   1.670  12.516 -0.7532  2.4810 -1.2277
 4745TIP3    H235727   3.300   1.765  12.435  1.2061  2.7976  1.0741
 4746TIP3   OH235728   5.096   1.596  14.006  0.2890 -0.2304  0.0064
 4746TIP3    H135729   5.185   1.587  13.973 -0.5312 -1.7121 -2.0249
 4746TIP3    H235730   5.046   1.630  13.931 -1.1557 -1.1001  0.5257
 4747TIP3   OH235731   0.632   1.578   2.388  0.0515 -0.5269 -0.1478
 4747TIP3    H135732   0.565   1.569   2.320 -1.3675 -0.6441  1.1931
 4747TIP3    H235733   0.662   1.669   2.381 -0.0931 -0.5381 -0.9093
 4748TIP3   OH235734   2.439   1.487  16.395  0.4455 -0.1062  0.8447
 4748TIP3    H135735   2.485   1.444  16.468 -0.6342  0.1110  1.6877
 4748TIP3    H235736   2.384   1.553  16.438  1.4975  1.6136 -0.3686
 4749TIP3   OH235737   6.374   4.668   1.836  0.6232  0.8423  0.5679
 4749TIP3    H135738   6.341   4.582   1.811  0.6873  0.8009  0.6253
 4749TIP3    H235739   6.348   4.678   1.927 -1.3709  1.8400 -0.0623
 4750TIP3   OH235740   5.908   3.538   5.385 -0.0656  0.4197  0.1972
 4750TIP3    H135741   5.978   3.493   5.338 -0.6513 -0.5686  0.2516
 4750TIP3    H235742   5.878   3.475   5.450 -0.6402  1.0358  0.5372
 4751TIP3   OH235743   2.721   0.161  14.913  0.0181 -0.0694  0.2787
 4751TIP3    H135744   2.707   0.138  15.005  0.6945 -0.5724  0.2659
 4751TIP3    H235745   2.783   0.234  14.916 -0.2815  0.1870  0.2352
 4752TIP3   OH235746   4.804   3.938   5.252  0.1895 -0.1484  0.2660
 4752TIP3    H135747   4.887   3.977   5.280 -0.2472  0.3701  0.8573
 4752TIP3    H235748   4.819   3.914   5.161  0.6148  0.9835  0.0248
 4753TIP3   OH235749   0.850   0.301   6.620  0.0367 -0.3745  0.5151
 4753TIP3    H135750   0.853   0.233   6.687  1.2654  0.9418  1.8964
 4753TIP3    H235751   0.941   0.308   6.589 -0.5147 -0.9676 -1.3437
 4754TIP3   OH235752   1.441   5.523   3.983 -0.3537  0.0244  0.2599
 4754TIP3    H135753   1.405   5.610   3.999  1.1048  0.2967  2.6235
 4754TIP3    H235754   1.388   5.487   3.912 -1.3938  2.5794 -0.3606
 4755TIP3   OH235755   2.163   2.552   3.408  0.0858 -0.4250 -0.5913
 4755TIP3    H135756   2.225   2.555   3.481 -0.1473  1.7485 -0.4142
 4755TIP3    H235757   2.206   2.599   3.337 -0.4749 -0.8458 -1.2289
 4756TIP3   OH235758   2.104   2.318   0.566  0.3309 -0.4008  0.2281
 4756TIP3    H135759   2.117   2.223   0.566 -0.2003 -0.4892 -0.7088
 4756TIP3    H235760   2.089   2.340   0.658  1.0875 -1.1322  0.5376
 4757TIP3   OH235761   3.739   0.565   1.943  0.3846  0.1464  0.1100
 4757TIP3    H135762   3.711   0.611   2.022  0.7143 -1.4715  1.1925
 4757TIP3    H235763   3.657   0.546   1.896 -0.0994 -1.3903  1.4935
 4758TIP3   OH235764   6.439   6.148   5.179 -0.3294 -0.2342 -0.4081
 4758TIP3    H135765   6.521   6.197   5.173 -0.5612  0.0219 -1.7237
 4758TIP3    H235766   6.466   6.056   5.168  0.0700 -0.4389  1.7849
 4759TIP3   OH235767   2.045   2.601  16.341  0.2397 -0.0936 -0.7646
 4759TIP3    H135768   2.002   2.650  16.271  0.8735 -0.0532 -1.1366
 4759TIP3    H235769   2.138   2.623  16.332  0.2332  0.6044  0.6506
 4760TIP3   OH235770   5.838   0.156   1.493  0.0089 -0.0579 -0.3485
 4760TIP3    H135771   5.896   0.106   1.550  0.1240 -1.0276 -1.3032
 4760TIP3    H235772   5.896   0.211   1.441  0.0420 -0.6527 -0.9438
 4761TIP3   OH235773   6.819   2.950   2.694  0.5539 -0.1140  0.4784
 4761TIP3    H135774   6.806   2.925   2.603  0.3785  1.6324 -0.0079
 4761TIP3    H235775   6.769   3.031   2.705  0.7672 -0.1542  2.0663
 4762TIP3   OH235776   5.880   5.502  11.198 -0.3111 -0.0477 -0.5157
 4762TIP3    H135777   5.968   5.523  11.168  0.8812 -2.4153  1.0365
 4762TIP3    H235778   5.840   5.455  11.124 -0.5241  1.5222 -1.4326
 4763TIP3   OH235779   0.656   5.110  16.757 -0.1146 -0.0314 -0.4925
 4763TIP3    H135780   0.630   5.018  16.755 -2.0512  0.4601  0.0128
 4763TIP3    H235781   0.726   5.117  16.692 -1.0053 -1.5487 -1.6760
 4764TIP3   OH235782   3.969   5.423  12.532  0.3137  0.4476 -0.3727
 4764TIP3    H135783   3.973   5.512  12.496 -0.5736  0.0463 -1.5164
 4764TIP3    H235784   4.034   5.374  12.482 -0.2789  0.0967 -0.8040
 4765TIP3   OH235785   0.610   0.313   3.073 -0.2601 -0.3386 -0.2290
 4765TIP3    H135786   0.589   0.230   3.031 -1.3419  0.5947 -1.6517
 4765TIP3    H235787   0.525   0.355   3.088  0.1956  0.0189  1.5630
 4766TIP3   OH235788   0.356   2.676  16.992 -1.0760 -0.6670  0.1137
 4766TIP3    H135789   0.331   2.760  17.029  0.0704 -0.0342 -0.4757
 4766TIP3    H235790   0.371   2.619  17.067  0.2116  0.2962  0.6312
 4767TIP3   OH235791   4.392   1.783  14.199  0.5406 -0.1821  0.1222
 4767TIP3    H135792   4.342   1.796  14.280 -3.7768 -0.6971 -2.1577
 4767TIP3    H235793   4.413   1.872  14.169 -2.3610  0.3530 -0.5855
 4768TIP3   OH235794   3.528   5.219  12.789  0.2298 -1.0855 -0.3622
 4768TIP3    H135795   3.587   5.239  12.716  0.7954 -0.1786  0.3165
 4768TIP3    H235796   3.447   5.190  12.748  1.4665 -3.5165 -1.3493
 4769TIP3   OH235797   1.450   5.208   4.977 -0.0305 -0.3324  0.2829
 4769TIP3    H135798   1.526   5.169   4.934 -0.1391 -0.6264  0.3576
 4769TIP3    H235799   1.376   5.154   4.950 -0.5167  1.0427 -1.3092
 4770TIP3   OH235800   3.184   3.587  12.892 -0.1019  0.3852  0.1919
 4770TIP3    H135801   3.173   3.538  12.974  0.3368 -0.1587 -0.0669
 4770TIP3    H235802   3.150   3.674  12.911  0.7153  0.5035  1.1929
 4771TIP3   OH235803   3.828   2.122  15.574 -0.5960  0.2563 -0.1027
 4771TIP3    H135804   3.748   2.071  15.563 -0.4020  0.1011 -0.8401
 4771TIP3    H235805   3.801   2.212  15.555 -1.0610  0.5487  1.7233
 4772TIP3   OH235806   0.903   4.875   0.543 -0.1308  0.3160 -0.3862
 4772TIP3    H135807   0.987   4.920   0.551 -0.5693  0.9885  0.4947
 4772TIP3    H235808   0.907   4.834   0.456  0.8192  0.9198 -0.6462
 4773TIP3   OH235809   0.490   2.746   2.286 -0.6360  0.2331  0.0593
 4773TIP3    H135810   0.567   2.803   2.280 -1.0455  0.8966  0.7447
 4773TIP3    H235811   0.513   2.667   2.237  0.8733 -0.0117  1.1029
 4774TIP3   OH235812   3.294   3.448   6.578 -0.0050 -0.5453 -0.5964
 4774TIP3    H135813   3.273   3.362   6.541  1.8817 -1.2557 -0.1683
 4774TIP3    H235814   3.371   3.477   6.529  1.4068 -0.6648  1.4239
 4775TIP3   OH235815   6.147   0.399   4.873  0.3239  0.0195 -0.1429
 4775TIP3    H135816   6.210   0.460   4.912  0.7452 -0.9109  0.6763
 4775TIP3    H235817   6.161   0.408   4.779 -0.2350  1.8027 -0.1036
 4776TIP3   OH235818   0.778   5.253  15.207 -0.2900 -0.2358  0.3220
 4776TIP3    H135819   0.865   5.274  15.172  0.3061 -0.9969  1.3175
 4776TIP3    H235820   0.786   5.163  15.239 -1.5579 -0.4504  0.0866
 4777TIP3   OH235821   3.704   4.713   3.781  0.1888  0.1629 -0.4490
 4777TIP3    H135822   3.752   4.792   3.804  0.5067 -0.0072 -0.5295
 4777TIP3    H235823   3.613   4.732   3.806  0.4003  0.2474  0.2684
 4778TIP3   OH235824   5.445   4.846  15.905  0.4607 -0.0389  0.0420
 4778TIP3    H135825   5.468   4.861  15.996  0.6929 -0.5239  0.0676
 4778TIP3    H235826   5.502   4.774  15.877 -0.0088 -0.2866 -0.3126
 4779TIP3   OH235827   2.608   1.388  16.981 -0.1566 -0.0185 -0.2888
 4779TIP3    H135828   2.633   1.296  16.968 -1.6506 -0.4226 -0.5752
 4779TIP3    H235829   2.690   1.433  17.001  1.0237 -0.9514 -2.5851
 4780TIP3   OH235830   6.038   3.855   2.878  0.9652 -1.0800 -0.4134
 4780TIP3    H135831   6.074   3.794   2.942 -0.7407 -1.8080 -0.0921
 4780TIP3    H235832   5.961   3.811   2.844  1.8492 -0.7437 -3.0665
 4781TIP3   OH235833   4.450   3.071  14.860  0.0865  0.1185  0.1527
 4781TIP3    H135834   4.389   3.025  14.917 -0.0410  0.0612 -0.0318
 4781TIP3    H235835   4.413   3.159  14.852  1.6535  1.1349  2.6448
 4782TIP3   OH235836   0.228   3.673  10.796  0.2217  0.4324 -0.2251
 4782TIP3    H135837   0.232   3.577  10.791 -1.3983  0.2762  0.7464
 4782TIP3    H235838   0.160   3.697  10.732  2.3258  1.2029 -2.3146
 4783TIP3   OH235839   6.192   6.304  16.705  0.2605  0.4905  0.0442
 4783TIP3    H135840   6.151   6.379  16.747 -1.1814  0.0780 -0.5642
 4783TIP3    H235841   6.139   6.287  16.627  0.4874 -1.1983  0.2007
 4784TIP3   OH235842   2.082   1.858   0.707  0.2002 -0.1821 -0.0132
 4784TIP3    H135843   2.016   1.890   0.646  0.6402  0.4309 -0.1791
 4784TIP3    H235844   2.166   1.879   0.665  0.5225  0.8128  1.0649
 4785TIP3   OH235845   1.961   5.290  12.681 -0.4440 -0.3174 -0.1679
 4785TIP3    H135846   1.877   5.326  12.651  0.0280 -0.4057 -1.6809
 4785TIP3    H235847   1.978   5.218  12.620  1.3374  0.4944 -0.6954
 4786TIP3   OH235848   5.781   2.496  14.280  0.1461  0.3330 -0.7458
 4786TIP3    H135849   5.689   2.519  14.268 -0.9438 -2.5564  0.9609
 4786TIP3    H235850   5.811   2.473  14.192 -1.0694  0.4096 -1.2059
 4787TIP3   OH235851   3.424   2.272   3.032 -0.0304  0.1124  0.0881
 4787TIP3    H135852   3.338   2.233   3.018 -0.0143 -0.0423  0.4228
 4787TIP3    H235853   3.485   2.217   2.982  0.0872 -0.6936  1.0886
 4788TIP3   OH235854   3.692   0.853  16.803  0.4101 -0.1488 -0.1598
 4788TIP3    H135855   3.712   0.946  16.804  3.5036 -0.7316  0.4009
 4788TIP3    H235856   3.641   0.840  16.723 -0.3432  2.0208 -0.0902
 4789TIP3   OH235857   4.869   2.663   4.094  0.3105  0.0826 -0.8010
 4789TIP3    H135858   4.850   2.569   4.094 -0.7875  0.1860  2.6745
 4789TIP3    H235859   4.964   2.667   4.106  0.4909 -0.5234 -1.8364
 4790TIP3   OH235860   3.667   0.655  15.004 -1.1186  0.4619  0.1130
 4790TIP3    H135861   3.601   0.698  14.949  0.2015 -1.3187 -3.1248
 4790TIP3    H235862   3.634   0.566  15.016 -0.4142  0.2426  0.4678
 4791TIP3   OH235863   6.719   3.984   5.607 -0.0260  0.4069 -0.0275
 4791TIP3    H135864   6.752   3.898   5.634 -0.3119  0.5141  0.6972
 4791TIP3    H235865   6.708   4.032   5.689  3.8109  2.5480 -0.5494
 4792TIP3   OH235866   0.142   3.044   4.606  0.0307 -0.4502 -0.7345
 4792TIP3    H135867   0.068   2.994   4.573  0.8709 -2.3299  0.0806
 4792TIP3    H235868   0.106   3.099   4.676 -0.7457 -0.6231 -0.9959
 4793TIP3   OH235869   4.514   6.802  13.429  0.7416 -0.6904  0.1959
 4793TIP3    H135870   4.543   6.779  13.517 -1.4273  0.4180  1.2704
 4793TIP3    H235871   4.439   6.745  13.413  0.4612 -0.1415 -0.5036
 4794TIP3   OH235872   1.867   2.923  14.802 -0.7553  0.4599 -0.0704
 4794TIP3    H135873   1.900   2.879  14.880 -1.5481  1.0714  0.6373
 4794TIP3    H235874   1.797   2.866  14.770  0.8215 -0.7787 -1.5046
 4795TIP3   OH235875   3.098   2.956  16.557 -0.0120 -0.4848 -0.1136
 4795TIP3    H135876   3.172   2.981  16.501 -2.4490 -0.3208 -3.5761
 4795TIP3    H235877   3.059   3.039  16.583 -0.3394 -0.5914 -0.2677
 4796TIP3   OH235878   0.853   6.488  12.787 -0.3803 -0.5981  0.4914
 4796TIP3    H135879   0.815   6.414  12.835 -2.0844 -0.4265 -0.4997
 4796TIP3    H235880   0.819   6.478  12.698  2.5146 -0.7997 -0.6870
 4797TIP3   OH235881   1.267   1.337  16.023 -0.0321 -0.2144  0.0977
 4797TIP3    H135882   1.273   1.292  16.107 -1.3223  0.2415  0.4592
 4797TIP3    H235883   1.199   1.403  16.036  0.8596  0.9234 -0.8321
 4798TIP3   OH235884   2.880   1.170  13.831  0.1443 -0.2017 -0.5061
 4798TIP3    H135885   2.807   1.113  13.854  0.0982  0.1690  0.2957
 4798TIP3    H235886   2.916   1.199  13.915  1.8022 -1.1015 -0.8457
 4799TIP3   OH235887   3.563   0.116   2.816  0.0913  0.5473 -0.2199
 4799TIP3    H135888   3.520   0.078   2.893  1.4677 -1.1788 -0.2242
 4799TIP3    H235889   3.499   0.107   2.745  0.0308 -0.9761  0.0011
 4800TIP3   OH235890   1.429   0.175  16.468 -0.0696 -0.2051  0.0970
 4800TIP3    H135891   1.494   0.239  16.497 -0.9856 -0.1326  2.1449
 4800TIP3    H235892   1.409   0.124  16.547 -2.6619 -0.0643 -0.3952
 4801TIP3   OH235893   4.755   3.450  12.084  0.7199 -0.1730  0.9944
 4801TIP3    H135894   4.805   3.436  12.004 -1.6043 -0.3677 -0.5241
 4801TIP3    H235895   4.820   3.482  12.148  2.2506  2.8498 -1.7471
 4802TIP3   OH235896   5.443   3.443  13.943 -0.5433  0.1492  0.2356
 4802TIP3    H135897   5.432   3.442  14.039 -2.2430  3.0093  0.1531
 4802TIP3    H235898   5.355   3.457  13.909  0.2426  0.5293 -1.7229
 4803TIP3   OH235899   2.554   2.072   4.851 -0.1863 -0.6346  0.3709
 4803TIP3    H135900   2.601   1.997   4.815 -2.0559 -1.9538  0.5340
 4803TIP3    H235901   2.529   2.045   4.939  0.6676  0.9249  1.1290
 4804TIP3   OH235902   2.481   1.202  15.486  0.0758 -0.2530  0.4282
 4804TIP3    H135903   2.504   1.294  15.477  1.1631 -0.4044  1.4787
 4804TIP3    H235904   2.507   1.162  15.403 -0.6498  0.4290 -0.1322
 4805TIP3   OH235905   3.609   6.497   5.797  0.1695 -0.2730  0.9656
 4805TIP3    H135906   3.521   6.535   5.790  0.4955  0.6359  1.5772
 4805TIP3    H235907   3.611   6.429   5.730 -0.2704  1.1369 -0.5436
 4806TIP3   OH235908   5.194   1.478  13.669 -0.6499 -0.1550 -0.1597
 4806TIP3    H135909   5.123   1.540  13.682 -0.7225 -0.1905 -0.3825
 4806TIP3    H235910   5.158   1.394  13.696  0.3766  0.3170  3.1044
 4807TIP3   OH235911   3.217   0.363   6.635  0.0900  0.1871 -0.5307
 4807TIP3    H135912   3.157   0.290   6.622  1.6346 -0.7750 -2.7906
 4807TIP3    H235913   3.302   0.331   6.605  1.3415  2.1786  0.6015
 4808TIP3   OH235914   2.765   0.470   1.442 -0.0624  0.0050 -0.1358
 4808TIP3    H135915   2.702   0.398   1.450 -1.8078  1.5720  0.7996
 4808TIP3    H235916   2.826   0.457   1.514 -1.1607  0.1908  0.8436
 4809TIP3   OH235917   1.680   2.843   1.212  0.4709  0.3990  0.4047
 4809TIP3    H135918   1.700   2.913   1.274 -0.4139 -0.3517  1.5648
 4809TIP3    H235919   1.631   2.887   1.143  2.1204  1.3897 -0.2120
 4810TIP3   OH235920   2.586   1.755  16.778  0.1241 -0.5555  0.3454
 4810TIP3    H135921   2.650   1.699  16.735  0.1001  0.1261 -0.5980
 4810TIP3    H235922   2.540   1.696  16.838 -0.3609 -1.7116 -1.1015
 4811TIP3   OH235923   3.342   6.537  16.393 -0.0138 -0.8253  0.4597
 4811TIP3    H135924   3.300   6.541  16.478 -0.8234  1.1098  0.0163
 4811TIP3    H235925   3.310   6.455  16.354 -0.4219 -1.2186  1.5933
 4812TIP3   OH235926   1.150   1.641   2.086  0.2770  0.3588 -0.2345
 4812TIP3    H135927   1.141   1.604   1.998 -2.7441  0.5282 -0.1043
 4812TIP3    H235928   1.082   1.708   2.091 -0.1028 -0.1081  2.4182
 4813TIP3   OH235929   4.729   3.874   2.075  0.4723  0.1722  0.7870
 4813TIP3    H135930   4.669   3.924   2.020  2.2073  1.0787 -0.3705
 4813TIP3    H235931   4.716   3.908   2.163  0.5180  1.5845  0.2667
 4814TIP3   OH235932   2.998   6.424  15.559 -0.3084  0.0472  0.2306
 4814TIP3    H135933   3.057   6.353  15.533  0.5161  0.5913  0.5462
 4814TIP3    H235934   2.934   6.383  15.617  0.3093 -0.4034  0.6092
 4815TIP3   OH235935   1.845   0.606  11.990  0.1470 -0.3533  0.0132
 4815TIP3    H135936   1.749   0.612  11.986  0.2047  0.0720 -1.6076
 4815TIP3    H235937   1.867   0.624  12.081 -1.2507  0.8719  0.1481
 4816TIP3   OH235938   1.949   5.391  13.855  0.1834  0.2275 -0.1416
 4816TIP3    H135939   1.969   5.302  13.882 -2.0864 -0.7695 -1.4374
 4816TIP3    H235940   2.024   5.418  13.802  1.9573  0.0323  2.1205
 4817TIP3   OH235941   4.662   1.390  17.018 -0.7850 -0.0321 -0.4404
 4817TIP3    H135942   4.601   1.319  17.000 -1.9247  0.5873  0.8433
 4817TIP3    H235943   4.720   1.392  16.941  0.9120 -3.9531  0.5192
 4818TIP3   OH235944   0.252   4.527  12.401 -0.1334 -0.3615  0.0170
 4818TIP3    H135945   0.169   4.559  12.368 -0.1824 -0.9588 -0.4498
 4818TIP3    H235946   0.230   4.451  12.454  0.2286 -1.5365 -1.4458
 4819TIP3   OH235947   1.442   0.763   4.069  0.0969 -0.2468 -0.2893
 4819TIP3    H135948   1.509   0.797   4.009 -0.8554 -0.1977 -1.3630
 4819TIP3    H235949   1.461   0.670   4.076  1.5872  0.1323  1.1709
 4820TIP3   OH235950   1.456   2.142   5.870 -0.4236  0.1702  0.3801
 4820TIP3    H135951   1.473   2.064   5.923  1.8131  0.6624  0.5008
 4820TIP3    H235952   1.543   2.180   5.855 -1.1608  1.0820 -2.0776
 4821TIP3   OH235953   1.896   5.589  10.467  0.6669 -0.1956 -0.4517
 4821TIP3    H135954   1.865   5.501  10.446  0.6959 -0.5191  0.7573
 4821TIP3    H235955   1.878   5.641  10.388 -1.1475 -0.8251 -0.5050
 4822TIP3   OH235956   0.811   5.505  11.275 -0.9925  0.1121  0.1466
 4822TIP3    H135957   0.844   5.500  11.186 -1.2953  1.8150 -0.0976
 4822TIP3    H235958   0.716   5.495  11.267 -1.1055  1.0583  0.1605
 4823TIP3   OH235959   0.274   3.481   1.133  0.3026 -0.7547  1.1220
 4823TIP3    H135960   0.363   3.466   1.103  0.0038 -0.9750  0.3220
 4823TIP3    H235961   0.283   3.503   1.226  1.4161  1.8718  0.4555
 4824TIP3   OH235962   1.356   2.227   2.573  0.1187  0.2003  0.2589
 4824TIP3    H135963   1.371   2.155   2.511 -1.0374 -0.6094  0.8940
 4824TIP3    H235964   1.438   2.235   2.621 -0.6770 -2.9959  2.5104
 4825TIP3   OH235965   6.787   3.704  15.272  0.0694 -0.2132  0.4036
 4825TIP3    H135966   6.796   3.641  15.200  0.8642  1.2929 -0.8914
 4825TIP3    H235967   6.783   3.650  15.351 -1.7210 -1.9692 -0.8101
 4826TIP3   OH235968   0.498   2.620  11.725  0.3915  0.5455 -0.2071
 4826TIP3    H135969   0.585   2.640  11.691  1.5151 -1.1979  1.3701
 4826TIP3    H235970   0.513   2.602  11.818 -1.8476  1.2070  0.3432
 4827TIP3   OH235971   4.297   6.660   4.403 -0.2347 -0.1153  0.2974
 4827TIP3    H135972   4.257   6.736   4.444  0.3054 -0.0389  0.6861
 4827TIP3    H235973   4.304   6.684   4.311 -0.3363  0.1876  0.3663
 4828TIP3   OH235974   6.520   1.353  15.997  0.2763 -0.2109 -0.1038
 4828TIP3    H135975   6.473   1.403  15.930  0.4710 -1.9775 -1.6686
 4828TIP3    H235976   6.529   1.413  16.071 -3.1768  0.6524 -0.2412
 4829TIP3   OH235977   3.372   1.625  10.745  0.1302 -0.1630  0.4771
 4829TIP3    H135978   3.444   1.607  10.685 -0.7793 -0.8817 -0.4256
 4829TIP3    H235979   3.350   1.717  10.729  0.3730 -0.1419  0.2500
 4830TIP3   OH235980   5.462   1.073  12.450  0.1303  0.2443 -0.4485
 4830TIP3    H135981   5.444   1.156  12.494 -0.2007  0.8231 -1.6485
 4830TIP3    H235982   5.493   1.098  12.363  0.7782 -0.8830 -0.5589
 4831TIP3   OH235983   2.839   3.491   1.776 -0.8797  0.8256 -0.4379
 4831TIP3    H135984   2.885   3.562   1.820  0.2565 -1.4337  2.3307
 4831TIP3    H235985   2.890   3.476   1.696  0.5531  1.3066  0.3414
 4832TIP3   OH235986   6.258   5.786  13.603 -0.3164 -0.0406  0.1883
 4832TIP3    H135987   6.320   5.841  13.651  0.0355 -1.0740  0.9489
 4832TIP3    H235988   6.280   5.799  13.511 -0.8001  1.7378  0.2750
 4833TIP3   OH235989   4.031   4.436   2.558  0.3900 -0.2901 -0.2008
 4833TIP3    H135990   4.060   4.389   2.636  1.3343 -0.6608 -0.7424
 4833TIP3    H235991   3.988   4.514   2.590 -0.1890 -0.9646  0.7061
 4834TIP3   OH235992   1.174   1.635   2.606 -0.1075  0.5001 -0.0966
 4834TIP3    H135993   1.223   1.708   2.567  0.4581 -0.0080 -0.3359
 4834TIP3    H235994   1.143   1.584   2.531  1.7187 -0.9748  0.0829
 4835TIP3   OH235995   4.031   4.037   2.605 -0.4856  0.0716  0.1078
 4835TIP3    H135996   4.100   4.012   2.543  0.9795 -0.3058  1.8089
 4835TIP3    H235997   3.988   3.955   2.627 -1.1535  0.2362 -0.5421
 4836TIP3   OH235998   3.942   4.657  11.160  0.0945 -0.1556  0.2641
 4836TIP3    H135999   3.969   4.569  11.136  0.0510  0.0991 -0.7891
 4836TIP3    H236000   3.943   4.658  11.256  0.4999 -1.1630  0.2796
 4837TIP3   OH236001   6.087   5.659  15.453 -0.3462 -0.5853  0.1058
 4837TIP3    H136002   6.069   5.676  15.361 -0.7184 -0.6052  0.1721
 4837TIP3    H236003   6.047   5.733  15.500  0.2279 -0.3461  0.2201
 4838TIP3   OH236004   6.491   3.358  15.327  0.3257 -0.3245  0.1682
 4838TIP3    H136005   6.522   3.271  15.350  0.8558 -0.3907 -0.7642
 4838TIP3    H236006   6.569   3.405  15.298 -0.5050 -0.8636 -3.3799
 4839TIP3   OH236007   0.515   3.722   5.798  0.1503 -0.0111 -0.3619
 4839TIP3    H136008   0.547   3.729   5.888 -1.7612 -0.4292  0.4062
 4839TIP3    H236009   0.591   3.693   5.747  1.0131 -0.7677  1.2855
 4840TIP3   OH236010   3.727   3.930  11.983 -0.0139 -0.3142  0.1977
 4840TIP3    H136011   3.745   3.909  12.075  0.3966 -0.9735 -0.0210
 4840TIP3    H236012   3.780   4.008  11.966 -0.6462  0.2385  0.7100
 4841TIP3   OH236013   3.705   0.793  16.273 -0.1597 -0.3489 -0.6708
 4841TIP3    H136014   3.682   0.823  16.185 -0.0803  0.1463 -0.5271
 4841TIP3    H236015   3.770   0.724  16.259 -0.0727 -0.2011 -0.9982
 4842TIP3   OH236016   6.187   3.487   5.357 -0.0613  0.0159  0.2736
 4842TIP3    H136017   6.280   3.470   5.373 -0.5392 -0.7782  2.5845
 4842TIP3    H236018   6.162   3.424   5.289  0.7551 -0.7665  0.6833
 4843TIP3   OH236019   1.547   0.780   1.829  0.3785 -0.1193  0.3586
 4843TIP3    H136020   1.619   0.784   1.767 -0.8008  2.0461 -0.9939
 4843TIP3    H236021   1.490   0.854   1.805 -0.8201  0.0039  3.1689
 4844TIP3   OH236022   3.879   5.106  11.278 -0.0401 -0.3226 -0.1982
 4844TIP3    H136023   3.855   5.023  11.237 -1.4146  0.5402 -1.2545
 4844TIP3    H236024   3.926   5.154  11.209  1.4403 -0.5098  0.6521
 4845TIP3   OH236025   6.395   6.587   6.187 -0.1905 -0.0389  0.2194
 4845TIP3    H136026   6.369   6.569   6.278  1.1352  0.0746  0.6404
 4845TIP3    H236027   6.314   6.576   6.137 -1.2597  1.2391  1.5777
 4846TIP3   OH236028   0.016   6.496  10.443 -0.1696 -0.0642  0.3137
 4846TIP3    H136029   0.075   6.462  10.375 -0.2986 -0.9831  0.6514
 4846TIP3    H236030   0.074   6.539  10.505  0.1034 -0.5042  0.3695
 4847TIP3   OH236031   0.029   1.999   3.217 -0.3919  0.1106  0.3956
 4847TIP3    H136032  -0.062   1.971   3.228 -0.9735  1.5742 -0.4155
 4847TIP3    H236033   0.059   1.952   3.139 -2.0977  3.1834 -2.3723
 4848TIP3   OH236034   5.385   2.585  16.842 -0.0732  0.3833  0.6796
 4848TIP3    H136035   5.330   2.601  16.918 -0.1066  0.7926  0.5720
 4848TIP3    H236036   5.356   2.500  16.808 -0.2468  0.3321  0.9578
 4849TIP3   OH236037   2.341   6.500   4.890 -0.0955 -0.1883  0.2623
 4849TIP3    H136038   2.340   6.540   4.977  0.3194 -1.7970  1.0355
 4849TIP3    H236039   2.281   6.426   4.896  1.3553 -1.4563 -0.2221
 4850TIP3   OH236040   2.552   3.374   1.652  0.3257  0.2274  0.0139
 4850TIP3    H136041   2.516   3.338   1.733  0.6298 -0.0064  0.0476
 4850TIP3    H236042   2.612   3.443   1.680  0.5361  0.0537 -0.0040
 4851TIP3   OH236043   3.834   5.976  11.426 -0.1769  0.5517 -0.4068
 4851TIP3    H136044   3.870   6.061  11.453 -1.6042  1.3774 -0.9694
 4851TIP3    H236045   3.849   5.974  11.331  0.2035 -0.0110 -0.3356
 4852TIP3   OH236046   2.591   5.635  11.428  0.0968  0.0041  0.4188
 4852TIP3    H136047   2.596   5.549  11.385 -2.7802 -1.5017  2.7589
 4852TIP3    H236048   2.634   5.621  11.512  1.0205  1.4005  0.2041
 4853TIP3   OH236049   5.713   3.209   1.559 -0.4693  0.3635  0.4938
 4853TIP3    H136050   5.766   3.288   1.552  0.1788 -0.1247 -0.3320
 4853TIP3    H236051   5.623   3.240   1.566 -0.1377  1.1883  1.1224
 4854TIP3   OH236052   3.358   4.959  16.877  0.2839 -0.4293 -0.4185
 4854TIP3    H136053   3.375   5.000  16.792  0.7130 -0.0204 -0.1382
 4854TIP3    H236054   3.270   4.989  16.900  1.3647  2.1577  0.7739
 4855TIP3   OH236055   0.419   2.519  14.980 -0.0271  0.0879  0.2060
 4855TIP3    H136056   0.411   2.433  15.022  0.7529  0.0246  0.2401
 4855TIP3    H236057   0.474   2.503  14.903 -0.8362  0.3466 -0.4343
 4856TIP3   OH236058   3.149   0.058   0.975 -0.3374  0.1090 -0.0839
 4856TIP3    H136059   3.161   0.152   0.985 -0.5155  0.4431 -2.4122
 4856TIP3    H236060   3.228   0.028   0.930 -1.3212 -0.3666 -1.6072
 4857TIP3   OH236061   4.051   3.327   5.803  0.9402  0.5263  0.0981
 4857TIP3    H136062   4.072   3.268   5.875 -0.9692  0.5881  0.7621
 4857TIP3    H236063   4.027   3.269   5.731  2.7438  0.4670 -0.5019
 4858TIP3   OH236064   0.965   2.686   1.040  0.3293 -0.2248  0.1276
 4858TIP3    H136065   0.912   2.743   0.985 -0.4889 -0.9984  0.0781
 4858TIP3    H236066   1.053   2.722   1.035 -0.2665  1.3227  0.5311
 4859TIP3   OH236067   0.795   3.288   2.768 -0.1506 -0.5152 -0.2893
 4859TIP3    H136068   0.864   3.350   2.744 -0.6269 -0.3476 -1.2799
 4859TIP3    H236069   0.759   3.323   2.850 -0.4071  0.5276 -0.8266
 4860TIP3   OH236070   3.992   5.711   1.156  0.4095  0.5208  0.2682
 4860TIP3    H136071   4.026   5.646   1.217  0.2971 -0.3897 -0.6125
 4860TIP3    H236072   4.067   5.732   1.100 -0.1890 -0.8475 -1.1246
 4861TIP3   OH236073   2.483   2.363  11.382 -0.3642 -0.2220  0.2175
 4861TIP3    H136074   2.500   2.309  11.305  1.7740  1.7387 -0.8011
 4861TIP3    H236075   2.407   2.416  11.358 -2.1659 -2.2681  1.0403
 4862TIP3   OH236076   1.029   3.473  11.749 -0.3758 -0.2190  0.3376
 4862TIP3    H136077   0.934   3.484  11.745 -0.5712 -1.1102  2.0409
 4862TIP3    H236078   1.053   3.499  11.838  0.6385 -2.3154  0.7285
 4863TIP3   OH236079   0.575   1.070   5.005 -0.3096  0.1338  0.3275
 4863TIP3    H136080   0.495   1.116   4.978  0.1441  0.9432  0.3468
 4863TIP3    H236081   0.623   1.133   5.058  1.1820  0.2907 -1.1234
 4864TIP3   OH236082   5.845   3.347   2.578 -0.1008 -0.3989  0.2191
 4864TIP3    H136083   5.914   3.356   2.512  0.4988 -1.2540  0.7152
 4864TIP3    H236084   5.822   3.437   2.601 -1.6519  0.0265 -2.4818
 4865TIP3   OH236085   1.454   4.083   1.026  0.5488 -0.6130  0.3240
 4865TIP3    H136086   1.484   3.996   0.999  0.9528 -0.9548  1.7901
 4865TIP3    H236087   1.372   4.096   0.978 -0.2378 -2.4017  1.0967
 4866TIP3   OH236088   4.245   6.796  15.981  0.1761  0.0588  0.0061
 4866TIP3    H136089   4.201   6.722  16.022 -0.1455  0.6311  0.7161
 4866TIP3    H236090   4.180   6.866  15.981  0.3442  0.2272 -1.0282
 4867TIP3   OH236091   5.204   4.917   5.440  0.0218  0.2375 -0.2236
 4867TIP3    H136092   5.169   4.930   5.353 -0.6095  1.3251  0.1724
 4867TIP3    H236093   5.247   4.831   5.437 -2.2359 -0.9499 -0.8607
 4868TIP3   OH236094   1.353   0.591   1.966 -0.1136 -0.0849 -0.1485
 4868TIP3    H136095   1.297   0.525   1.924 -0.1625 -0.2241  0.1317
 4868TIP3    H236096   1.397   0.634   1.893 -0.3451 -0.1908 -0.3556
 4869TIP3   OH236097   6.328   4.103  16.591 -0.5908  0.2806  0.2987
 4869TIP3    H136098   6.364   4.166  16.529 -2.1844  0.4782 -0.4836
 4869TIP3    H236099   6.343   4.017  16.550 -3.4516  0.4841 -1.5243
 4870TIP3   OH236100   4.234   4.212   1.060 -0.7717 -0.0766  1.2779
 4870TIP3    H136101   4.155   4.202   1.007 -0.7577 -1.0408  1.4237
 4870TIP3    H236102   4.253   4.124   1.092  1.3260 -0.1986 -0.1134
 4871TIP3   OH236103   2.667   5.331   0.863 -0.2055  0.1322  1.1364
 4871TIP3    H136104   2.643   5.283   0.943 -1.5814 -0.7784  0.2209
 4871TIP3    H236105   2.744   5.284   0.830  0.1075  0.2488  1.6846
 4872TIP3   OH236106   0.340   2.010  11.972 -0.7552 -0.6828 -0.0423
 4872TIP3    H136107   0.295   2.041  11.894  0.9586 -0.7067 -1.0726
 4872TIP3    H236108   0.387   2.087  12.005 -0.5261 -0.9695  0.3047
 4873TIP3   OH236109   2.285   1.563  13.028  0.2637  0.4259  0.3418
 4873TIP3    H136110   2.324   1.524  13.106  0.8617  1.6524  0.6765
 4873TIP3    H236111   2.194   1.577  13.051  0.4396  0.7830  0.8186
 4874TIP3   OH236112   3.313   5.845  10.149  0.4061 -0.3881  0.3242
 4874TIP3    H136113   3.379   5.914  10.161  0.3446 -0.2875  0.0992
 4874TIP3    H236114   3.353   5.767  10.187  0.9071 -0.4718 -0.3640
 4875TIP3   OH236115   6.774   5.010  13.300  0.1510  0.1727  0.1301
 4875TIP3    H136116   6.750   5.024  13.391 -0.9047  1.3353 -0.2843
 4875TIP3    H236117   6.690   5.007  13.254  0.6552 -0.7117 -0.7641
 4876TIP3   OH236118   4.251   5.901   3.357 -0.3362  0.2741  0.1183
 4876TIP3    H136119   4.323   5.963   3.354 -0.0929 -0.0330 -0.4574
 4876TIP3    H236120   4.180   5.942   3.307 -0.0136 -0.1089 -0.6664
 4877TIP3   OH236121   4.347   2.632   0.053 -0.4170 -0.1587  0.4793
 4877TIP3    H136122   4.300   2.671   0.126  0.3620  0.3927  0.6904
 4877TIP3    H236123   4.315   2.679  -0.024 -0.1554  0.2639  0.6290
 4878TIP3   OH236124   6.029   6.049  16.213  0.6564  0.5184  0.0067
 4878TIP3    H136125   6.011   5.967  16.168  2.3751  0.0896  0.0163
 4878TIP3    H236126   6.086   6.024  16.286  0.2052  1.5640  0.7396
 4879TIP3   OH236127   3.869   0.493   0.613  0.1085 -0.4807 -0.1449
 4879TIP3    H136128   3.829   0.437   0.680  0.2833 -0.4978 -0.0528
 4879TIP3    H236129   3.809   0.489   0.539  0.0611 -0.6962 -0.0949
 4880TIP3   OH236130   5.881   3.137   4.679 -0.1432  0.3056 -0.8907
 4880TIP3    H136131   5.926   3.108   4.758  0.3019 -1.0603 -1.6002
 4880TIP3    H236132   5.860   3.229   4.694  2.1116  0.7540 -0.1917
 4881TIP3   OH236133   1.209   6.311  15.968 -0.1573  0.2972  0.5081
 4881TIP3    H136134   1.201   6.224  15.928 -0.0922  0.3647  0.3492
 4881TIP3    H236135   1.303   6.324  15.979 -0.2167 -0.3073  1.9710
 4882TIP3   OH236136   6.372   1.139  12.659  0.0119 -0.6081  0.1222
 4882TIP3    H136137   6.306   1.081  12.698 -2.5973  2.5151  0.8396
 4882TIP3    H236138   6.359   1.131  12.565 -2.1810  0.5908  0.2522
 4883TIP3   OH236139   6.353   2.834  13.394  0.3158 -0.6503  0.1541
 4883TIP3    H136140   6.340   2.929  13.384  0.8555 -0.7851 -2.3190
 4883TIP3    H236141   6.383   2.804  13.308  0.1125 -3.1008  0.8603
 4884TIP3   OH236142   4.373   0.264  14.617 -0.6150  0.0341 -0.1708
 4884TIP3    H136143   4.354   0.171  14.609 -0.4770 -0.0366  0.2982
 4884TIP3    H236144   4.293   0.308  14.588 -0.4372 -0.2146 -1.0757
 4885TIP3   OH236145   0.857   4.266  11.853 -0.4036 -0.5736 -0.6159
 4885TIP3    H136146   0.801   4.202  11.809 -1.3034  0.9211 -1.7456
 4885TIP3    H236147   0.823   4.269  11.942  0.3660 -2.4282 -0.2123
 4886TIP3   OH236148   6.619   6.572   2.526 -0.1450 -0.4216 -0.1339
 4886TIP3    H136149   6.636   6.643   2.588 -0.7377 -0.6671  0.3236
 4886TIP3    H236150   6.529   6.544   2.546 -0.4121 -0.4021 -1.2091
 4887TIP3   OH236151   1.174   4.937  14.787  0.6763  0.0213  0.2392
 4887TIP3    H136152   1.269   4.934  14.775  0.8692  0.2847  1.5228
 4887TIP3    H236153   1.144   4.852  14.757  1.3302 -0.1015 -0.0944
 4888TIP3   OH236154   2.468   5.590   6.127 -0.0112  0.3012 -0.3347
 4888TIP3    H136155   2.468   5.668   6.182 -0.4690  0.2789 -0.3007
 4888TIP3    H236156   2.550   5.596   6.077  1.5050 -0.7569  1.8655
 4889TIP3   OH236157   0.202   5.063  15.368 -0.2393  0.4996  0.0812
 4889TIP3    H136158   0.171   5.120  15.439  1.8629  0.1471  1.3535
 4889TIP3    H236159   0.187   5.115  15.289 -0.4329  1.9038  0.9898
 4890TIP3   OH236160   4.585   6.692   6.220 -0.3991 -0.2798  0.4451
 4890TIP3    H136161   4.542   6.727   6.297  0.5501 -0.5483  1.1094
 4890TIP3    H236162   4.529   6.619   6.192 -0.0113 -1.1119  1.7501
 4891TIP3   OH236163   1.912   0.526  12.892 -0.4159 -0.4957  0.3324
 4891TIP3    H136164   1.831   0.569  12.864 -0.4030 -0.4544  0.3576
 4891TIP3    H236165   1.973   0.540  12.819 -0.0888  0.4259  0.7635
 4892TIP3   OH236166   0.362   6.016   1.717 -0.1515  0.2113  0.5891
 4892TIP3    H136167   0.345   5.944   1.778  0.5390 -0.1826  0.3212
 4892TIP3    H236168   0.275   6.038   1.682 -0.4842  0.0952  1.3168
 4893TIP3   OH236169   2.933   5.333  11.103  0.2988  0.3123 -0.1140
 4893TIP3    H136170   3.004   5.283  11.061  0.3530  0.3158 -0.0267
 4893TIP3    H236171   2.967   5.355  11.190  0.1299  0.1830 -0.0144
 4894TIP3   OH236172   0.076   3.888   5.930 -0.4180 -0.2465  0.3840
 4894TIP3    H136173   0.080   3.850   6.018 -2.9606  0.2270  0.7924
 4894TIP3    H236174   0.053   3.980   5.945  2.0295  0.6363 -0.7258
 4895TIP3   OH236175   1.217   1.781   6.027 -0.1555 -0.5913 -0.3368
 4895TIP3    H136176   1.182   1.731   6.101 -0.4364  0.1121  0.0111
 4895TIP3    H236177   1.141   1.825   5.989 -0.0095 -0.9145 -1.0360
 4896TIP3   OH236178   6.586   5.267   1.165 -0.1308 -0.3199  0.2943
 4896TIP3    H136179   6.509   5.270   1.108  1.1238  1.0512 -1.4251
 4896TIP3    H236180   6.660   5.288   1.108  1.2163  0.9691  2.3695
 4897TIP3   OH236181   4.522   3.604  12.227  0.8103  0.1100 -0.2739
 4897TIP3    H136182   4.452   3.570  12.172  0.1897  1.5225 -0.4103
 4897TIP3    H236183   4.588   3.535  12.228 -1.6040 -2.4259  1.9542
 4898TIP3   OH236184   6.304   1.038  11.863 -0.0915 -0.2529  0.5807
 4898TIP3    H136185   6.297   0.963  11.922 -1.4101 -0.2008  0.5384
 4898TIP3    H236186   6.395   1.067  11.870  0.7248 -2.4567 -0.1492
 4899TIP3   OH236187   0.817   2.464   2.252 -0.5122 -0.1847 -0.3793
 4899TIP3    H136188   0.764   2.522   2.198 -1.7714  0.2143  1.2027
 4899TIP3    H236189   0.819   2.507   2.338  0.7895 -1.1545  0.1030
 4900TIP3   OH236190   0.712   0.382   2.234 -0.2536 -0.2350  0.5230
 4900TIP3    H136191   0.690   0.310   2.175 -0.4087 -0.2549  0.6040
 4900TIP3    H236192   0.801   0.407   2.209 -1.3173  1.7380 -1.7627
 4901TIP3   OH236193   5.616   4.884  13.309  0.3940  0.3640  0.1254
 4901TIP3    H136194   5.710   4.895  13.294  0.8280 -2.1307  0.6244
 4901TIP3    H236195   5.584   4.839  13.230 -0.5287  1.6512 -0.2771
 4902TIP3   OH236196   1.027   6.430   1.569  0.6554  0.2879 -0.1659
 4902TIP3    H136197   0.933   6.437   1.583  0.6910 -0.9799  0.8939
 4902TIP3    H236198   1.064   6.503   1.619  0.3980 -0.9732  1.9593
 4903TIP3   OH236199   4.166   1.478   3.485 -0.7175 -0.0562  0.2671
 4903TIP3    H136200   4.240   1.445   3.435 -0.4628 -2.5703  2.0916
 4903TIP3    H236201   4.109   1.402   3.497 -1.3126  0.6768  2.7271
 4904TIP3   OH236202   5.686   2.807  11.186 -0.0122 -0.0126  0.1461
 4904TIP3    H136203   5.726   2.747  11.122 -1.8597 -0.3788 -0.7594
 4904TIP3    H236204   5.604   2.833  11.145 -0.8812  0.3979  2.0428
 4905TIP3   OH236205   1.513   4.330   2.509  0.3130 -0.0803  0.0805
 4905TIP3    H136206   1.601   4.346   2.544  0.2892  1.6308 -0.5273
 4905TIP3    H236207   1.529   4.282   2.427  0.5657 -1.0405  0.6689
 4906TIP3   OH236208   3.448   1.074   0.897  0.3003  0.2359 -0.8058
 4906TIP3    H136209   3.367   1.072   0.948  1.1306  0.9891  0.5824
 4906TIP3    H236210   3.436   1.147   0.836 -0.0998  0.2665 -0.6930
 4907TIP3   OH236211   2.106   4.582   4.636  0.2601 -0.8102 -0.0211
 4907TIP3    H136212   2.014   4.563   4.621  0.2298 -1.2748  0.7042
 4907TIP3    H236213   2.119   4.566   4.730  1.0671 -0.7147 -0.1090
 4908TIP3   OH236214   4.726   0.877  11.057 -0.5389  0.9513  0.4065
 4908TIP3    H136215   4.713   0.873  10.962  0.7330  1.1102  0.2062
 4908TIP3    H236216   4.673   0.951  11.085 -1.7617  0.2632 -0.0108
 4909TIP3   OH236217   6.536   4.950  15.358 -0.5758  0.1962  0.0318
 4909TIP3    H136218   6.462   4.975  15.304 -0.3380 -0.9370 -0.8522
 4909TIP3    H236219   6.600   5.020  15.345 -0.4496 -0.1419 -1.3287
 4910TIP3   OH236220   3.469   2.252   4.191 -0.1318 -0.0512  0.0481
 4910TIP3    H136221   3.511   2.214   4.113 -0.2383  0.5798 -0.3189
 4910TIP3    H236222   3.520   2.331   4.209  0.1797 -0.4278  0.9004
 4911TIP3   OH236223   4.240   6.448  14.827  0.0300  0.1115  0.3912
 4911TIP3    H136224   4.162   6.424  14.876  1.1285 -2.7001  0.9189
 4911TIP3    H236225   4.212   6.449  14.735 -0.8442  0.2307  0.6518
 4912TIP3   OH236226   2.076   1.697   2.487 -0.2516  0.2745  0.1882
 4912TIP3    H136227   2.107   1.685   2.397  1.2535  0.3052  0.6751
 4912TIP3    H236228   2.055   1.609   2.517  2.7452 -0.2715  0.9735
 4913TIP3   OH236229   5.956   4.535  16.302 -0.1397  0.4420 -0.5665
 4913TIP3    H136230   5.901   4.527  16.380  0.8696 -0.6930  0.0670
 4913TIP3    H236231   5.941   4.624  16.271 -2.7182  0.0397 -0.7417
 4914TIP3   OH236232   0.694   2.295   3.055  0.0340 -0.0748 -0.5822
 4914TIP3    H136233   0.698   2.245   2.973 -0.3561  0.7487 -1.1223
 4914TIP3    H236234   0.699   2.229   3.124  1.2321 -0.7289 -1.2593
 4915TIP3   OH236235   5.713   1.759   1.590 -0.4174  0.2596 -1.0334
 4915TIP3    H136236   5.693   1.849   1.615  1.0242  0.3648 -0.1067
 4915TIP3    H236237   5.648   1.706   1.636  0.1769  0.6918  0.3578
 4916TIP3   OH236238   1.528   3.601   5.764 -0.0790 -0.4336 -0.0288
 4916TIP3    H136239   1.487   3.687   5.772  0.5415  0.0769 -1.9629
 4916TIP3    H236240   1.466   3.549   5.714 -0.5310 -1.2222  1.2765
 4917TIP3   OH236241   0.770   0.089  15.403 -0.2412  0.5238  0.8433
 4917TIP3    H136242   0.806   0.007  15.370 -0.7104  0.8688 -0.5868
 4917TIP3    H236243   0.843   0.132  15.448  0.3928 -0.0127  0.3263
 4918TIP3   OH236244   5.853   0.745   5.301 -0.2280  0.4795 -0.2018
 4918TIP3    H136245   5.883   0.654   5.305  0.3074  0.6626 -0.0505
 4918TIP3    H236246   5.933   0.796   5.290 -0.3291  1.0705  1.5174
 4919TIP3   OH236247   3.026   1.329  12.574 -0.0833  0.6098 -0.6301
 4919TIP3    H136248   2.969   1.310  12.649  0.0233 -0.0497 -0.7025
 4919TIP3    H236249   3.035   1.244  12.529  0.4140  0.8469 -0.9928
 4920TIP3   OH236250   2.817   3.793  15.816 -0.3017  0.3893 -0.5440
 4920TIP3    H136251   2.787   3.718  15.764  0.0697 -1.6217  1.9320
 4920TIP3    H236252   2.736   3.837  15.841 -0.7539 -0.7076  0.0344
 4921TIP3   OH236253   0.931   4.249  15.999 -0.2214  0.7005  0.0584
 4921TIP3    H136254   0.992   4.205  16.059 -1.8851  0.9389  2.0338
 4921TIP3    H236255   0.887   4.177  15.953  0.6076  0.4994 -0.4613
 4922TIP3   OH236256   1.790   1.386   0.749  0.0405  0.2357 -0.0113
 4922TIP3    H136257   1.854   1.444   0.790 -0.8469  0.2938  1.3489
 4922TIP3    H236258   1.829   1.298   0.758  0.0115  0.2849  0.6991
 4923TIP3   OH236259   3.626   3.934   1.687 -0.4227  0.5330 -0.1620
 4923TIP3    H136260   3.659   4.018   1.717 -0.6064  0.1390  1.2195
 4923TIP3    H236261   3.550   3.955   1.632  0.4212  1.3120 -1.0638
 4924TIP3   OH236262   6.160   2.775  16.329 -1.0291 -0.4071  0.1032
 4924TIP3    H136263   6.196   2.798  16.415 -2.1368 -0.6470  0.6489
 4924TIP3    H236264   6.212   2.700  16.300  1.6694  1.6955 -1.0421
 4925TIP3   OH236265   4.678   2.783   0.333 -0.2908 -0.1723 -0.0869
 4925TIP3    H136266   4.698   2.857   0.275 -0.2522 -0.6144 -0.6498
 4925TIP3    H236267   4.691   2.817   0.421 -1.3355  0.8024 -0.2978
 4926TIP3   OH236268   5.592   0.109  16.915  0.2111 -0.1895 -0.4189
 4926TIP3    H136269   5.510   0.153  16.892  0.4172 -1.0585 -3.1982
 4926TIP3    H236270   5.639   0.174  16.969 -1.8114  0.7197  0.3616
 4927TIP3   OH236271   3.271   0.223   0.279  0.0841 -0.2193  0.3477
 4927TIP3    H136272   3.249   0.303   0.232  0.4287 -1.4055 -2.0105
 4927TIP3    H236273   3.197   0.210   0.339 -1.2392  0.5882 -1.0148
 4928TIP3   OH236274   6.087   0.514  15.438 -0.5033 -0.0031 -0.0319
 4928TIP3    H136275   6.059   0.466  15.515  0.6445 -0.1596  0.3089
 4928TIP3    H236276   6.058   0.604  15.452 -0.2972 -0.0333  0.5842
 4929TIP3   OH236277   1.740   5.887   3.685 -0.0312 -0.1445 -0.0629
 4929TIP3    H136278   1.685   5.949   3.638 -0.7635 -1.2330 -0.6910
 4929TIP3    H236279   1.821   5.883   3.635 -0.7410 -1.1701 -1.1901
 4930TIP3   OH236280   1.657   4.255   4.613  0.1132 -0.3610 -0.0325
 4930TIP3    H136281   1.695   4.168   4.603  0.5981  0.0643 -2.4391
 4930TIP3    H236282   1.710   4.296   4.682  0.3685 -1.6784  0.5863
 4931TIP3   OH236283   0.651   0.753   2.889 -0.2292  0.5572  0.2111
 4931TIP3    H136284   0.576   0.708   2.850 -0.2166  0.2009  0.5915
 4931TIP3    H236285   0.694   0.797   2.815 -0.3387  0.0865 -0.1365
 4932TIP3   OH236286   1.558   0.429  14.076  0.2002 -0.6018 -0.1366
 4932TIP3    H136287   1.556   0.439  14.171 -1.7796 -0.5798 -0.1460
 4932TIP3    H236288   1.521   0.342  14.061  0.2757 -0.5046 -0.9004
 4933TIP3   OH236289   5.769   1.606  11.652 -0.3397 -0.1710 -0.2539
 4933TIP3    H136290   5.779   1.632  11.743  0.5471  1.5782 -0.8070
 4933TIP3    H236291   5.766   1.510  11.654 -4.2889 -0.1943  1.9609
 4934TIP3   OH236292   0.353   1.934  14.871 -0.0154 -0.3213  0.3184
 4934TIP3    H136293   0.412   2.007  14.859 -1.3916  0.5761 -1.4266
 4934TIP3    H236294   0.387   1.888  14.948  2.0671  0.9477  0.2285
 4935TIP3   OH236295   2.264   1.105  15.762  0.2138 -0.2958  0.4996
 4935TIP3    H136296   2.171   1.095  15.744 -0.3300  3.1891  0.7775
 4935TIP3    H236297   2.303   1.126  15.677  0.0810  1.8203  0.9223
 4936TIP3   OH236298   4.672   6.697  15.399  0.6492 -0.1402 -0.4467
 4936TIP3    H136299   4.738   6.658  15.457 -0.6407 -1.6690  0.0880
 4936TIP3    H236300   4.722   6.731  15.325  2.3917  1.9880  1.5462
 4937TIP3   OH236301   3.293   3.791   2.926  0.4274  0.4370 -0.2463
 4937TIP3    H136302   3.239   3.863   2.893  0.4514  0.8186  0.5063
 4937TIP3    H236303   3.231   3.729   2.964  0.3549 -0.2738 -1.4621
 4938TIP3   OH236304   2.049   3.435   1.223 -0.4464 -0.1721 -1.0328
 4938TIP3    H136305   2.111   3.436   1.297 -1.1421 -0.2281 -0.4351
 4938TIP3    H236306   2.017   3.524   1.217  0.4076  0.0875 -1.9761
 4939TIP3   OH236307   4.504   4.788  16.246 -0.3874 -0.1932 -0.1583
 4939TIP3    H136308   4.535   4.730  16.316  0.8472 -0.6998 -1.0798
 4939TIP3    H236309   4.426   4.745  16.212  0.1975 -1.0453 -0.4572
 4940TIP3   OH236310   5.816   0.863   2.110 -0.2228 -0.4355  0.5484
 4940TIP3    H136311   5.907   0.836   2.104 -0.5981 -1.5499 -0.5420
 4940TIP3    H236312   5.766   0.781   2.108 -1.2796  0.1919  0.4236
 4941TIP3   OH236313   6.152   0.772   3.810  0.3841 -0.1080  0.2269
 4941TIP3    H136314   6.116   0.758   3.723  1.6916 -1.7564 -0.0859
 4941TIP3    H236315   6.126   0.695   3.860 -1.9056  1.6196  1.9157
 4942TIP3   OH236316   2.392   1.404   3.684 -0.2745  0.1947  0.1430
 4942TIP3    H136317   2.470   1.381   3.735  0.5148  2.1004 -0.1003
 4942TIP3    H236318   2.350   1.321   3.665  0.7389 -0.7568  1.8052
 4943TIP3   OH236319   3.025   5.799  12.146 -0.1877  0.2017  0.0176
 4943TIP3    H136320   2.963   5.803  12.074 -1.2866  0.0393  0.9300
 4943TIP3    H236321   2.988   5.736  12.208  0.9912 -0.0624  0.4920
 4944TIP3   OH236322   1.753   0.575   1.934  0.3871  0.4654  0.1269
 4944TIP3    H136323   1.739   0.498   1.988  1.4091  1.4393  1.8551
 4944TIP3    H236324   1.671   0.624   1.940 -0.4607 -0.6643 -1.3979
 4945TIP3   OH236325   5.204   5.180   3.486 -0.5756 -0.0317  0.0765
 4945TIP3    H136326   5.179   5.203   3.397  1.5874  2.0048 -0.1111
 4945TIP3    H236327   5.293   5.146   3.478 -0.8389 -1.1202  1.3341
 4946TIP3   OH236328   0.280   4.557  11.053 -0.2293 -0.3661  0.0620
 4946TIP3    H136329   0.366   4.596  11.036 -0.3343 -0.3324 -0.4242
 4946TIP3    H236330   0.295   4.462  11.044  0.3293 -0.5894  2.5982
 4947TIP3   OH236331   1.176   6.123  12.215 -0.3939 -0.2791 -0.0449
 4947TIP3    H136332   1.084   6.123  12.187 -0.9668 -1.3078  1.6964
 4947TIP3    H236333   1.191   6.035  12.249  0.1460  0.8794  3.0116
 4948TIP3   OH236334   4.807   5.669  16.191  0.0667  0.6134 -0.1635
 4948TIP3    H136335   4.824   5.762  16.205  0.3964  0.8707 -1.9505
 4948TIP3    H236336   4.796   5.661  16.096  1.5981 -1.4127 -0.2491
 4949TIP3   OH236337   0.710   3.930   0.241 -0.4241 -0.8590  0.0632
 4949TIP3    H136338   0.664   4.013   0.228  0.5676 -0.3716 -0.3997
 4949TIP3    H236339   0.694   3.881   0.160  0.8100 -0.2179 -0.5939
 4950TIP3   OH236340   5.571   5.553  15.482  0.0385  0.1240  0.0452
 4950TIP3    H136341   5.532   5.538  15.568  1.1659  0.9515  0.7328
 4950TIP3    H236342   5.497   5.551  15.421 -0.8086 -0.2302  1.0599
 4951TIP3   OH236343   1.106   1.556  14.356 -0.0254 -0.8003  0.0110
 4951TIP3    H136344   1.184   1.576  14.304  0.8056  0.0114  1.5142
 4951TIP3    H236345   1.100   1.460  14.353 -0.4781 -0.7675 -2.1832
 4952TIP3   OH236346   5.226   4.257  10.870 -0.0104  0.5883 -0.0678
 4952TIP3    H136347   5.314   4.223  10.852  1.0782  1.5305  2.8641
 4952TIP3    H236348   5.197   4.293  10.786  1.2355 -2.0817 -1.7978
 4953TIP3   OH236349   5.925   6.285  15.873  0.2665 -0.4646 -0.9459
 4953TIP3    H136350   5.888   6.216  15.818 -2.5162  1.4959 -1.7600
 4953TIP3    H236351   5.851   6.320  15.922  2.0216  0.3646  1.2798
 4954TIP3   OH236352   1.850   2.939  15.350  0.4516  0.0509  0.5844
 4954TIP3    H136353   1.795   3.018  15.357 -1.5446 -1.3663  2.0810
 4954TIP3    H236354   1.795   2.876  15.304  1.5237 -0.8581  0.5216
 4955TIP3   OH236355   3.083   1.728  12.738  0.3644 -0.3182 -0.2942
 4955TIP3    H136356   3.158   1.767  12.783  0.8386  0.4203 -1.6743
 4955TIP3    H236357   3.023   1.800  12.724 -0.2942 -0.7680  0.1570
 4956TIP3   OH236358   2.114   1.888  13.746 -0.2058  0.1094 -0.5068
 4956TIP3    H136359   2.053   1.899  13.819 -0.1937  2.1228 -0.7206
 4956TIP3    H236360   2.100   1.799  13.715 -2.8424  0.3886 -0.3595
 4957TIP3   OH236361   6.821   0.795  11.295  0.7729  0.4710 -0.4516
 4957TIP3    H136362   6.893   0.857  11.301  0.0955  1.2987 -0.6020
 4957TIP3    H236363   6.746   0.848  11.266  0.2664 -0.4897 -0.9446
 4958TIP3   OH236364   0.383   6.225   5.348  0.4566 -0.8647  0.1890
 4958TIP3    H136365   0.407   6.303   5.398 -0.9749 -0.4531  0.2698
 4958TIP3    H236366   0.375   6.256   5.258 -0.3617 -0.8423  0.2591
 4959TIP3   OH236367   4.937   2.799  15.674 -0.5452  0.2125 -0.6665
 4959TIP3    H136368   4.894   2.797  15.759  0.1269 -0.7788 -0.3415
 4959TIP3    H236369   5.004   2.867  15.683  2.1871 -2.4555  0.9652
 4960TIP3   OH236370   0.680   1.324  16.755 -0.1838  0.7801  0.3129
 4960TIP3    H136371   0.596   1.281  16.773  0.2216 -0.4886 -0.6955
 4960TIP3    H236372   0.689   1.320  16.660  1.0474  0.8628  0.4113
 4961TIP3   OH236373   1.459   6.078   1.736 -0.0236 -0.3885  0.1776
 4961TIP3    H136374   1.385   6.028   1.769 -0.4501 -1.2760 -1.9986
 4961TIP3    H236375   1.536   6.038   1.778 -0.6544 -0.0925  1.6843
 4962TIP3   OH236376   3.754   6.769   0.085 -0.1138 -0.3676  0.5969
 4962TIP3    H136377   3.752   6.715   0.006  0.1091  0.1364  0.2423
 4962TIP3    H236378   3.836   6.818   0.079 -0.2597 -0.0710  0.9620
 4963TIP3   OH236379   3.912   4.611  15.507 -0.0636  0.1965  0.0390
 4963TIP3    H136380   3.996   4.570  15.485 -1.2160 -1.8312 -0.8988
 4963TIP3    H236381   3.894   4.582  15.596  0.1308  0.4651  0.1666
 4964TIP3   OH236382   2.461   6.770  14.030  0.0688 -0.2229 -0.4922
 4964TIP3    H136383   2.524   6.819  13.977 -0.3596  1.1396  0.2190
 4964TIP3    H236384   2.471   6.805  14.118 -2.5519  0.9924 -0.5817
 4965TIP3   OH236385   5.938   5.270  16.587 -0.1683 -0.5358  0.0007
 4965TIP3    H136386   5.996   5.304  16.518  0.3904 -3.3223 -1.0294
 4965TIP3    H236387   5.985   5.289  16.668  0.0101  1.2269 -0.4517
 4966TIP3   OH236388   2.675   0.633   3.784  0.1759  1.4655 -0.6250
 4966TIP3    H136389   2.627   0.716   3.783 -0.1750  1.2822 -2.3042
 4966TIP3    H236390   2.635   0.583   3.855 -0.7442  2.0931 -0.6846
 4967TIP3   OH236391   2.828   3.353  13.908  0.0242 -0.0966 -0.0407
 4967TIP3    H136392   2.765   3.422  13.889 -0.7933 -0.9235 -0.4232
 4967TIP3    H236393   2.817   3.290  13.837 -0.4183 -1.4084  1.1526
 4968TIP3   OH236394   4.129   0.008   5.841 -0.8242 -0.3675 -0.0157
 4968TIP3    H136395   4.165   0.025   5.754  1.2787  1.3310  1.0741
 4968TIP3    H236396   4.058   0.071   5.850  1.2144  1.9925  0.6912
 4969TIP3   OH236397   6.675   4.352  14.779 -0.0282  0.3031  0.1520
 4969TIP3    H136398   6.713   4.395  14.855  2.1688 -1.5524  0.2168
 4969TIP3    H236399   6.613   4.288  14.817  1.6518 -1.1903  0.5385
 4970TIP3   OH236400   3.066   4.757  15.886 -0.0929  0.1257 -0.1886
 4970TIP3    H136401   3.159   4.735  15.892 -0.1539 -0.3476 -0.8800
 4970TIP3    H236402   3.023   4.698  15.948  0.1256  0.7366  0.5504
 4971TIP3   OH236403   1.132   3.536   5.052 -0.1919 -0.1775  0.3537
 4971TIP3    H136404   1.044   3.574   5.051  0.0458  0.3951 -1.3066
 4971TIP3    H236405   1.191   3.611   5.057  0.2300 -0.5504  1.2943
 4972TIP3   OH236406   5.708   6.275   5.689  0.1157  0.3107 -0.0341
 4972TIP3    H136407   5.624   6.243   5.721  0.1991  0.4368  0.3199
 4972TIP3    H236408   5.773   6.216   5.728  0.2286  0.5601  0.1586
 4973TIP3   OH236409   0.954   2.773   5.895 -0.1710 -0.8966  0.2131
 4973TIP3    H136410   0.884   2.820   5.851 -0.8423 -1.6576  0.4503
 4973TIP3    H236411   1.015   2.750   5.825 -0.9184 -1.5587 -0.2259
 4974TIP3   OH236412   2.826   2.325   1.241 -0.1912  0.2377 -0.0835
 4974TIP3    H136413   2.733   2.348   1.249 -0.1290  0.5310 -0.1727
 4974TIP3    H236414   2.828   2.230   1.247 -0.3350  0.3011  1.7701
 4975TIP3   OH236415   5.919   0.106   0.292  0.5048  0.3595 -0.5974
 4975TIP3    H136416   5.949   0.055   0.368 -2.3692  0.9959  1.1643
 4975TIP3    H236417   5.978   0.181   0.288 -0.7700  1.7551  2.8689
 4976TIP3   OH236418   5.384   5.444  13.576  0.2347 -0.1117  0.0261
 4976TIP3    H136419   5.410   5.409  13.490  2.3764  2.7104 -0.6166
 4976TIP3    H236420   5.335   5.523  13.556  1.2334  0.8899  1.3512
 4977TIP3   OH236421   3.149   4.395   5.001 -0.1144  0.2292  0.4011
 4977TIP3    H136422   3.234   4.351   5.010 -0.3552 -0.6824 -1.3003
 4977TIP3    H236423   3.166   4.470   4.944 -0.2264  0.7605  1.0606
 4978TIP3   OH236424   4.095   1.182   2.361 -0.4428 -0.4455  0.1914
 4978TIP3    H136425   4.152   1.229   2.302 -0.2496 -0.4669  0.3616
 4978TIP3    H236426   4.115   1.089   2.346 -1.8223 -0.5567 -1.1751
 4979TIP3   OH236427   3.971   4.301   0.306  0.2404 -0.0299 -0.4524
 4979TIP3    H136428   4.021   4.328   0.383  2.2252  0.7623 -1.9429
 4979TIP3    H236429   3.932   4.382   0.273  1.9205  0.1938 -1.9793
 4980TIP3   OH236430   3.314   3.997   5.563 -0.4727  0.3269 -0.6029
 4980TIP3    H136431   3.280   4.062   5.625 -1.0009 -2.1744  1.9642
 4980TIP3    H236432   3.240   3.938   5.547  0.6674 -1.1645 -0.6389
 4981TIP3   OH236433   3.641   5.050   1.132  0.4698  0.0810 -0.1964
 4981TIP3    H136434   3.669   5.130   1.178  0.2752 -0.2638  0.5350
 4981TIP3    H236435   3.723   5.008   1.106  0.6513 -0.5612  1.3099
 4982TIP3   OH236436   4.160   3.759   1.904 -0.5774  0.1728  0.2147
 4982TIP3    H136437   4.180   3.795   1.990  0.7064 -1.0517  0.4618
 4982TIP3    H236438   4.187   3.667   1.909  1.4160  0.5259 -2.0564
 4983TIP3   OH236439   0.472   2.080  15.251 -0.0202 -0.3383  0.1568
 4983TIP3    H136440   0.471   2.039  15.164  3.2071  1.6353 -0.9974
 4983TIP3    H236441   0.488   2.008  15.311  1.2177 -1.3732 -1.3204
 4984TIP3   OH236442   6.406   1.478   3.821  0.1952  0.8555 -0.3258
 4984TIP3    H136443   6.365   1.557   3.786 -0.6633  0.8110  0.5326
 4984TIP3    H236444   6.370   1.407   3.769 -0.9438  0.8051  0.5112
 4985TIP3   OH236445   1.861   1.078  13.994 -0.1841 -0.4392  0.4436
 4985TIP3    H136446   1.836   1.002  14.046  2.2093 -0.7195  1.3199
 4985TIP3    H236447   1.913   1.041  13.922 -1.0413  0.2059 -0.5429
 4986TIP3   OH236448   2.904   0.552  12.049  0.2139  0.2919  0.4608
 4986TIP3    H136449   2.947   0.474  12.015 -0.3280  0.3417 -0.3765
 4986TIP3    H236450   2.860   0.522  12.129  1.5311  0.1837  1.1771
 4987TIP3   OH236451   0.253   4.549  14.503  0.0624  0.3706 -0.2362
 4987TIP3    H136452   0.232   4.595  14.421 -0.8741  1.1495  0.4160
 4987TIP3    H236453   0.196   4.589  14.568  0.2743 -0.7325  0.6648
 4988TIP3   OH236454   6.399   2.279  13.028 -0.4272 -0.2034 -0.1093
 4988TIP3    H136455   6.424   2.294  12.937 -3.0427 -0.5759 -0.9686
 4988TIP3    H236456   6.480   2.248  13.071  0.2125 -3.1882 -3.0477
 4989TIP3   OH236457   6.776   4.600   6.245 -0.1151 -0.2874 -0.8588
 4989TIP3    H136458   6.846   4.539   6.267  2.8810  3.2182  0.4334
 4989TIP3    H236459   6.699   4.564   6.287  1.7472 -2.4869  0.9628
 4990TIP3   OH236460   6.008   6.441  12.412  0.3635 -0.4357  0.1653
 4990TIP3    H136461   6.085   6.480  12.370 -0.3015  1.0078  0.2400
 4990TIP3    H236462   5.983   6.369  12.353 -0.2936  1.2633 -1.7742
 4991TIP3   OH236463   1.966   4.484  12.583  0.3868 -0.0223  0.1538
 4991TIP3    H136464   1.959   4.577  12.562  3.1396  0.2794  0.2434
 4991TIP3    H236465   1.934   4.440  12.504  0.1085  0.9931 -0.3236
 4992TIP3   OH236466   1.534   1.360  16.453 -0.2849  0.3081 -0.0032
 4992TIP3    H136467   1.543   1.351  16.548 -0.7128 -2.0952 -0.1238
 4992TIP3    H236468   1.501   1.449  16.440  0.8703  1.0865  1.9918
 4993TIP3   OH236469   2.915   4.377  16.841  0.0688 -0.6568  0.8850
 4993TIP3    H136470   2.930   4.456  16.893 -1.0221 -0.0039  0.2525
 4993TIP3    H236471   2.872   4.316  16.901 -2.0465  0.4328  0.5506
 4994TIP3   OH236472   2.121   4.847  13.787  0.0109  0.3171 -0.1645
 4994TIP3    H136473   2.088   4.758  13.791 -0.0299  0.3620  1.2177
 4994TIP3    H236474   2.164   4.854  13.702 -0.2602 -0.9190 -0.4120
 4995TIP3   OH236475   4.124   2.299  12.359 -0.2068 -0.1737 -0.5155
 4995TIP3    H136476   4.196   2.269  12.415 -0.6364 -1.1127 -0.4435
 4995TIP3    H236477   4.091   2.378  12.403  1.1870  0.6655 -0.9101
 4996TIP3   OH236478   2.559   2.502  10.909 -0.4094 -0.1766 -0.0071
 4996TIP3    H136479   2.549   2.409  10.890  0.1857  0.2999 -3.3048
 4996TIP3    H236480   2.482   2.543  10.868  0.6574  0.9741 -0.9364
 4997TIP3   OH236481   3.665   4.278  16.401  0.0102 -0.2419  0.4525
 4997TIP3    H136482   3.750   4.238  16.421  0.6720  1.4869  1.2500
 4997TIP3    H236483   3.678   4.371  16.416 -1.8867  0.1282  0.0248
 4998TIP3   OH236484   4.931   0.653   4.257 -0.1697  0.3149  0.2697
 4998TIP3    H136485   4.876   0.715   4.307  0.5558 -0.0821  1.6009
 4998TIP3    H236486   4.967   0.594   4.324  0.9044 -0.1853 -0.7290
 4999TIP3   OH236487   5.508   0.322   2.193 -0.0522  0.1878  0.1502
 4999TIP3    H136488   5.490   0.229   2.185  0.0604  0.0658  1.2811
 4999TIP3    H236489   5.427   0.360   2.228 -1.5080  1.1369 -3.6537
 5000TIP3   OH236490   0.900   4.467  11.162 -0.4352  0.6353  0.5392
 5000TIP3    H136491   0.948   4.436  11.085 -0.1547  1.8360  0.2148
 5000TIP3    H236492   0.826   4.406  11.169 -0.7665  0.8042 -1.0105
 5001TIP3   OH236493   0.910   4.502   2.890  0.3193 -0.3278  0.1400
 5001TIP3    H136494   0.999   4.472   2.905 -0.0106 -0.4083  2.2473
 5001TIP3    H236495   0.858   4.459   2.958 -0.9899  1.1855  0.1692
 5002TIP3   OH236496   1.256   4.728   4.931 -0.4457 -0.2980  0.0060
 5002TIP3    H136497   1.196   4.736   4.856 -2.3820 -2.6401  1.1582
 5002TIP3    H236498   1.338   4.695   4.892 -0.6409  0.7073 -1.3233
 5003TIP3   OH236499   0.823   6.301   3.863  0.2528 -0.0008  0.0145
 5003TIP3    H136500   0.741   6.253   3.860  0.5613 -0.4992 -0.7583
 5003TIP3    H236501   0.824   6.352   3.782  1.2624 -0.9552 -0.5954
 5004TIP3   OH236502   3.464   0.846  16.972  0.0554 -0.6080 -0.6950
 5004TIP3    H136503   3.451   0.928  16.924  0.1283 -0.1972 -0.0271
 5004TIP3    H236504   3.546   0.811  16.938  0.6998  0.2580 -0.0714
 5005TIP3   OH236505   4.228   1.927  11.495  0.0791 -0.0409 -0.2943
 5005TIP3    H136506   4.261   1.900  11.580  1.0096  0.2009 -0.5634
 5005TIP3    H236507   4.284   1.881  11.432 -0.4168  0.0008 -0.7678
 5006TIP3   OH236508   2.407   3.776   5.962 -0.0162 -0.3971  0.0582
 5006TIP3    H136509   2.415   3.692   5.917  1.4518  0.1159 -0.6923
 5006TIP3    H236510   2.471   3.832   5.920 -0.0435  0.7206  1.4324
 5007TIP3   OH236511   2.950   1.163   1.196  0.6051  0.4322  0.4171
 5007TIP3    H136512   3.006   1.238   1.215  1.7993 -0.7057  1.6000
 5007TIP3    H236513   2.923   1.131   1.283 -1.5763  0.6905 -0.1004
 5008TIP3   OH236514   3.886   2.933   4.938 -0.2533 -0.2033  0.3968
 5008TIP3    H136515   3.803   2.961   4.977 -0.5459  0.3186 -0.5714
 5008TIP3    H236516   3.920   3.011   4.894  1.1024 -0.2246  1.3418
 5009TIP3   OH236517   2.464   4.268  15.524  0.0538 -0.4742  0.1281
 5009TIP3    H136518   2.498   4.243  15.438  0.4628  0.4816 -0.0138
 5009TIP3    H236519   2.401   4.200  15.547 -1.6978  0.3485 -1.9081
 5010TIP3   OH236520   3.292   1.556  14.709 -0.2249 -0.4751  0.0928
 5010TIP3    H136521   3.251   1.478  14.748  1.8250 -2.3945 -1.3668
 5010TIP3    H236522   3.230   1.584  14.642 -2.0111  0.5687  2.0737
 5011TIP3   OH236523   3.028   6.193   6.014  0.1598  0.2782 -0.0557
 5011TIP3    H136524   3.067   6.206   6.101  1.1639 -0.7448 -0.3284
 5011TIP3    H236525   3.100   6.206   5.953  0.1706 -1.8143 -0.5634
 5012TIP3   OH236526   1.708   0.892   0.091  0.2447  0.0890  0.1572
 5012TIP3    H136527   1.646   0.953   0.051  0.3934 -0.5513 -1.1026
 5012TIP3    H236528   1.794   0.919   0.058  0.3371 -0.6419 -0.2195
 5013TIP3   OH236529   1.816   3.531   6.671  0.4619  0.7424  0.5825
 5013TIP3    H136530   1.884   3.519   6.738  1.1177  1.1048 -0.0012
 5013TIP3    H236531   1.822   3.624   6.647 -1.4185  1.2228  1.7425
 5014TIP3   OH236532   3.526   3.634  16.953 -0.1164 -0.3153 -0.2482
 5014TIP3    H136533   3.541   3.726  16.931  1.6215 -0.7229 -0.9876
 5014TIP3    H236534   3.539   3.630  17.048  0.3722  0.1155 -0.2926
 5015TIP3   OH236535   3.525   4.016   3.398 -0.4864 -0.9448  0.4423
 5015TIP3    H136536   3.481   4.028   3.482 -0.7568  1.0510  0.0535
 5015TIP3    H236537   3.459   4.037   3.333 -0.2781 -2.4694 -0.3085
 5016TIP3   OH236538   5.530   3.044   4.579 -0.1059 -0.5868 -0.0298
 5016TIP3    H136539   5.586   2.968   4.564 -0.3285 -1.4573  2.9363
 5016TIP3    H236540   5.470   3.017   4.649 -2.5401  1.1985 -1.2640
 5017TIP3   OH236541   2.202   6.573   4.384  0.1195 -0.3590 -0.4881
 5017TIP3    H136542   2.112   6.541   4.387  0.2754 -0.7798 -0.2814
 5017TIP3    H236543   2.241   6.542   4.466  0.0018  1.1748  0.1778
 5018TIP3   OH236544   4.560   2.850   2.599  0.0973 -0.0369 -0.3018
 5018TIP3    H136545   4.561   2.819   2.509  2.0491 -2.2462  0.3728
 5018TIP3    H236546   4.595   2.776   2.650 -1.3575  0.9568  2.3328
 5019TIP3   OH236547   4.301   3.469   3.560  0.4261  0.4016 -0.0874
 5019TIP3    H136548   4.355   3.445   3.635  0.0758  1.6509  0.5862
 5019TIP3    H236549   4.285   3.563   3.570  0.8469  0.7307 -2.0436
 5020TIP3   OH236550   6.160   6.292   5.205  0.9069  0.8224  0.5107
 5020TIP3    H136551   6.238   6.250   5.170 -0.4670  0.8421 -3.0172
 5020TIP3    H236552   6.104   6.219   5.234  0.3152  0.4023 -1.5339
 5021TIP3   OH236553   5.168   6.041  13.034 -0.4837  0.0578  0.4963
 5021TIP3    H136554   5.139   6.109  13.096  1.3567  1.2953  0.0871
 5021TIP3    H236555   5.260   6.027  13.056  0.0555  0.1015 -1.5749
 5022TIP3   OH236556   0.117   0.795   2.924  0.5302 -0.3974  0.3668
 5022TIP3    H136557   0.197   0.748   2.899 -1.3229 -2.3421 -2.5135
 5022TIP3    H236558   0.057   0.727   2.953 -0.6877  0.8108  0.7827
 5023TIP3   OH236559   1.895   4.764  12.551  0.1472  0.3809  0.2641
 5023TIP3    H136560   1.841   4.792  12.477  0.4716  1.1960  0.3241
 5023TIP3    H236561   1.944   4.842  12.576  0.6560 -0.1018  0.8141
 5024TIP3   OH236562   4.004   3.646   4.429 -0.0102  0.4174 -0.3225
 5024TIP3    H136563   4.046   3.722   4.469  1.6384 -1.4172  1.6902
 5024TIP3    H236564   4.074   3.603   4.380 -1.0384  0.4135 -1.8382
 5025TIP3   OH236565   0.204   2.902  14.195  0.6654 -0.5771  0.1733
 5025TIP3    H136566   0.222   2.839  14.125 -0.2012 -1.7911  1.0061
 5025TIP3    H236567   0.282   2.958  14.197  0.9663 -0.9074 -1.3406
 5026TIP3   OH236568   0.173   0.085  15.839  0.4504  0.1743 -0.6328
 5026TIP3    H136569   0.141   0.125  15.759  0.2458 -1.4945 -1.4228
 5026TIP3    H236570   0.182  -0.008  15.818 -1.3638 -0.6510  1.8108
 5027TIP3   OH236571   4.252   0.423   4.016  0.6394  0.2780  0.1675
 5027TIP3    H136572   4.157   0.432   4.022  0.7477  2.4729 -0.3384
 5027TIP3    H236573   4.279   0.389   4.101 -0.5648  0.0335  0.4593
 5028TIP3   OH236574   3.261   1.631  16.248  0.3611  0.0593 -0.3583
 5028TIP3    H136575   3.292   1.717  16.217 -0.0351  0.2034 -0.3613
 5028TIP3    H236576   3.293   1.625  16.337  2.0381 -0.6200 -0.9673
 5029TIP3   OH236577   1.878   0.523   3.299 -0.1944  0.7501 -0.0843
 5029TIP3    H136578   1.864   0.465   3.374  0.2147 -0.7853 -1.1376
 5029TIP3    H236579   1.800   0.577   3.295 -0.6271  0.2257  0.8986
 5030TIP3   OH236580   2.737   5.272   3.734  0.1131 -0.0085  0.6403
 5030TIP3    H136581   2.760   5.209   3.666  0.5728  2.1178 -1.2808
 5030TIP3    H236582   2.818   5.320   3.751 -0.4824  0.8092  1.2534
 5031TIP3   OH236583   1.569   1.106   0.787  0.3107  0.0708  0.3492
 5031TIP3    H136584   1.564   1.150   0.702 -1.4396  0.2616  0.5140
 5031TIP3    H236585   1.552   1.175   0.851  0.9634 -0.2062  0.8386
 5032TIP3   OH236586   1.105   6.675  15.194 -0.6958 -0.8274  0.2011
 5032TIP3    H136587   1.200   6.666  15.194 -0.6050 -0.0394 -0.7676
 5032TIP3    H236588   1.087   6.728  15.272 -0.2691 -0.3906  0.0122
 5033TIP3   OH236589   0.709   6.489   5.151  0.0209  0.1934 -0.6379
 5033TIP3    H136590   0.727   6.571   5.105  3.1538 -1.2264 -2.2582
 5033TIP3    H236591   0.713   6.422   5.083  1.3565 -1.6567  1.1346
 5034TIP3   OH236592   5.820   3.338  13.641 -0.1093 -0.2389 -0.3742
 5034TIP3    H136593   5.780   3.382  13.716  1.2013 -1.1793  0.9200
 5034TIP3    H236594   5.898   3.390  13.621  1.5490 -1.9277  1.2750
 5035TIP3   OH236595   3.052   0.880  12.544  0.4053  0.4537 -0.3697
 5035TIP3    H136596   3.053   0.811  12.478 -2.3555 -0.3610  0.3095
 5035TIP3    H236597   2.963   0.915  12.541  0.4720  1.0644  2.1948
 5036TIP3   OH236598   2.180   2.298   6.167 -0.3759 -0.7016 -0.4152
 5036TIP3    H136599   2.104   2.294   6.224  0.4977  0.0509  0.8627
 5036TIP3    H236600   2.144   2.297   6.079 -2.0828  2.0760  0.1062
 5037TIP3   OH236601   4.444   0.004   1.394  0.5323 -0.3887 -0.0418
 5037TIP3    H136602   4.359  -0.040   1.396 -0.4392  1.3725 -0.6939
 5037TIP3    H236603   4.480  -0.016   1.308  1.2512 -1.9254  0.5853
 5038TIP3   OH236604   6.056   0.553   0.810 -0.2912 -0.3413 -0.6693
 5038TIP3    H136605   6.058   0.569   0.904  1.0698  0.9447 -0.8946
 5038TIP3    H236606   5.983   0.492   0.798 -0.7038 -0.2572  1.1650
 5039TIP3   OH236607   6.762   2.172  13.988 -0.2350 -0.4401 -0.4426
 5039TIP3    H136608   6.803   2.259  13.989 -0.5859 -0.2503 -1.3302
 5039TIP3    H236609   6.669   2.190  13.983 -0.2522 -0.8454 -2.2063
 5040TIP3   OH236610   0.248   6.577   0.775  0.1831  0.3137 -0.1111
 5040TIP3    H136611   0.155   6.565   0.754  0.5633 -1.5676 -0.9342
 5040TIP3    H236612   0.265   6.670   0.760 -1.7294  0.8604  0.8035
 5041TIP3   OH236613   0.425   1.702   1.952  0.2971 -0.6859 -0.0826
 5041TIP3    H136614   0.343   1.659   1.929 -0.2513  0.4355 -0.2868
 5041TIP3    H236615   0.399   1.778   2.004  1.1882 -0.2135 -0.2961
 5042TIP3   OH236616   2.826   0.346  11.464 -0.4527  0.8923 -0.0664
 5042TIP3    H136617   2.864   0.398  11.535  0.4807  2.0639 -1.3726
 5042TIP3    H236618   2.734   0.374  11.460 -0.4132  1.0955  0.4048
 5043TIP3   OH236619   3.893   3.172  10.376 -0.2822 -0.4356  0.0015
 5043TIP3    H136620   3.873   3.169  10.470  0.0831 -1.7542  0.0530
 5043TIP3    H236621   3.810   3.146  10.334  0.1478 -2.0425  0.0701
 5044TIP3   OH236622   6.258   3.310   4.277 -0.1521 -0.3024  0.3563
 5044TIP3    H136623   6.307   3.233   4.247 -1.1585 -0.7926 -0.0891
 5044TIP3    H236624   6.181   3.273   4.321 -0.8273  0.4554 -0.1767
 5045TIP3   OH236625   3.970   4.202  16.133  0.9039  0.5923  0.1620
 5045TIP3    H136626   4.065   4.198  16.131  1.0494  2.7663 -0.0594
 5045TIP3    H236627   3.944   4.201  16.041  0.8673  1.8849  0.1426
 5046TIP3   OH236628   4.022   1.548  11.101  0.3273  0.7544  0.3317
 5046TIP3    H136629   3.954   1.556  11.035 -0.3600  0.7291  1.0297
 5046TIP3    H236630   4.025   1.633  11.144  0.8809  0.8211  0.1803
 5047TIP3   OH236631   0.405   5.812   5.657 -0.0083  0.0904  0.5586
 5047TIP3    H136632   0.391   5.906   5.650 -1.3190 -0.0405  1.1795
 5047TIP3    H236633   0.326   5.772   5.622  1.3813 -0.8699 -1.7271
 5048TIP3   OH236634   1.671   5.186  11.728 -0.1025  0.2743  0.5352
 5048TIP3    H136635   1.591   5.138  11.706  0.6460 -0.8525  0.1501
 5048TIP3    H236636   1.708   5.210  11.644  0.3019  0.2156  0.6962
 5049TIP3   OH236637   5.871   4.607  13.942 -0.5702  0.1703 -0.3640
 5049TIP3    H136638   5.877   4.600  13.847 -0.7017  0.3818 -0.3875
 5049TIP3    H236639   5.780   4.630  13.959 -0.3857  0.8152 -0.2309
 5050TIP3   OH236640   0.839   3.933   2.343 -0.2318 -0.3107  0.2856
 5050TIP3    H136641   0.803   3.875   2.410 -0.8621 -2.0261 -1.4279
 5050TIP3    H236642   0.775   4.004   2.337 -1.0351 -1.0027  0.3806
 5051TIP3   OH236643   3.156   2.539  13.194 -0.2885  0.6400  0.7138
 5051TIP3    H136644   3.210   2.465  13.165 -2.4005 -0.9598  0.6535
 5051TIP3    H236645   3.219   2.603  13.227  1.6162 -1.2782  1.0196
 5052TIP3   OH236646   2.675   1.960  12.353 -0.4603 -0.0225  0.3412
 5052TIP3    H136647   2.734   2.019  12.401 -0.8056 -0.5027  1.3890
 5052TIP3    H236648   2.733   1.893  12.316 -0.2611 -0.0948  0.7733
 5053TIP3   OH236649   0.033   5.115   0.219 -0.0684 -0.4438 -0.4975
 5053TIP3    H136650   0.013   5.037   0.270  1.4020  0.4600  1.5995
 5053TIP3    H236651   0.114   5.094   0.173  0.5246 -0.0724  0.3492
 5054TIP3   OH236652   4.271   2.546  11.544 -0.0635  0.5627 -0.2112
 5054TIP3    H136653   4.235   2.615  11.599 -0.5679  0.9066 -0.9517
 5054TIP3    H236654   4.210   2.540  11.471 -0.1834 -0.8738 -0.0172
 5055TIP3   OH236655   3.351   0.394  10.920  0.0351  0.1698  0.0309
 5055TIP3    H136656   3.354   0.442  10.837 -0.6318 -1.3304 -0.9169
 5055TIP3    H236657   3.428   0.336  10.917 -0.3620 -0.3755  0.1204
 5056TIP3   OH236658   1.295   0.241  12.642 -0.1222  0.0390  0.6234
 5056TIP3    H136659   1.215   0.249  12.693 -0.6342  0.6695 -0.2545
 5056TIP3    H236660   1.358   0.200  12.702 -1.3411 -1.2745  1.0365
 5057TIP3   OH236661   6.614   5.785  17.051 -0.0457 -0.0911  0.1645
 5057TIP3    H136662   6.529   5.774  17.008 -0.4742  0.3649  0.8754
 5057TIP3    H236663   6.627   5.703  17.098 -0.2966 -0.0003  0.3967
 5058TIP3   OH236664   5.107   6.753   3.002 -0.2253 -0.5269  0.2364
 5058TIP3    H136665   5.129   6.721   2.915 -0.8126 -2.5648  0.7690
 5058TIP3    H236666   5.190   6.783   3.039  0.2498 -0.8292 -0.5717
 5059TIP3   OH236667   2.501   1.226  13.798 -0.3560  0.1767 -0.2130
 5059TIP3    H136668   2.457   1.264  13.874 -1.2137 -0.2590 -0.4680
 5059TIP3    H236669   2.452   1.259  13.723 -0.6604 -0.8254 -0.4713
 5060TIP3   OH236670   5.571   1.556  10.829  0.2299  0.1993 -0.5685
 5060TIP3    H136671   5.625   1.634  10.843  2.2807 -1.1418 -0.5704
 5060TIP3    H236672   5.574   1.510  10.913  0.6491 -0.8156 -1.1237
 5061TIP3   OH236673   3.086   1.878  16.012  0.4924 -0.5297 -0.3799
 5061TIP3    H136674   3.028   1.948  16.040  0.4735 -0.4173 -0.7055
 5061TIP3    H236675   3.155   1.876  16.079  1.3672  0.8577 -1.1967
 5062TIP3   OH236676   4.689   6.719  14.317  0.0723 -0.1476 -0.3184
 5062TIP3    H136677   4.751   6.792  14.312 -1.1146  0.8978 -0.1819
 5062TIP3    H236678   4.609   6.753  14.278 -0.3194 -1.5946 -0.8048
 5063TIP3   OH236679   6.415   5.776  16.289  0.0937  0.4492  0.8110
 5063TIP3    H136680   6.386   5.702  16.236  0.4557  0.0687  1.1306
 5063TIP3    H236681   6.463   5.832  16.228 -0.8109  0.8002  0.4068
 5064TIP3   OH236682   0.539   4.438  16.348  0.3386  0.0024  0.7128
 5064TIP3    H136683   0.533   4.409  16.439  4.6622 -0.4078  1.0745
 5064TIP3    H236684   0.597   4.374  16.307  0.7392  1.7274 -1.5915
 5065TIP3   OH236685   3.228   1.919  12.111  0.3555 -0.1434  0.2634
 5065TIP3    H136686   3.206   1.998  12.062 -0.6499 -1.3710 -1.3871
 5065TIP3    H236687   3.228   1.849  12.045  2.4016 -1.3528  1.4538
 5066TIP3   OH236688   4.308   6.675  10.843 -0.1800 -0.1148  0.2046
 5066TIP3    H136689   4.364   6.733  10.894  1.4633 -0.3377 -1.2333
 5066TIP3    H236690   4.273   6.613  10.907 -0.7158  1.4688  1.5171
 5067TIP3   OH236691   1.859   4.764  10.776 -0.2788  0.6922  0.2260
 5067TIP3    H136692   1.768   4.749  10.802 -0.3480 -0.2328 -0.5087
 5067TIP3    H236693   1.911   4.717  10.842 -0.3391  0.9691  0.4723
 5068TIP3   OH236694   4.227   0.829   1.344 -0.4556  0.5427  0.1927
 5068TIP3    H136695   4.277   0.786   1.413 -1.2418 -1.1450 -0.2345
 5068TIP3    H236696   4.138   0.795   1.353 -0.4153 -0.3721 -2.1215
 5069TIP3   OH236697   5.585   1.093  16.101 -0.2404 -0.2094 -0.3644
 5069TIP3    H136698   5.574   1.117  16.009  2.2971  0.6924 -0.5081
 5069TIP3    H236699   5.625   1.006  16.099  1.4456  0.5161 -0.2376
 5070TIP3   OH236700   5.689   4.042   1.412 -0.2320 -0.3377  0.1142
 5070TIP3    H136701   5.672   3.950   1.395  2.0398 -0.7142 -0.5185
 5070TIP3    H236702   5.767   4.062   1.360 -1.6617  2.4377 -1.1929
 5071TIP3   OH236703   5.384   3.806  14.005 -0.2866 -0.0074  0.0858
 5071TIP3    H136704   5.337   3.791  13.923 -0.9475 -2.4379  0.8263
 5071TIP3    H236705   5.398   3.900  14.008  1.3753  0.0096 -3.6796
 5072TIP3   OH236706   2.176   6.570   1.619  0.5032 -0.0578  0.6283
 5072TIP3    H136707   2.163   6.479   1.592  0.5896  0.2040 -0.3347
 5072TIP3    H236708   2.089   6.599   1.646  0.9956 -1.3798  4.1796
 5073TIP3   OH236709   2.930   1.259  14.086  0.1186 -0.4402  0.3447
 5073TIP3    H136710   2.862   1.287  14.147 -0.2441 -0.0337 -0.2383
 5073TIP3    H236711   3.001   1.323  14.099  0.0896 -0.4245  0.4247
 5074TIP3   OH236712   4.106   3.159  13.253 -0.0365 -0.0070  0.0323
 5074TIP3    H136713   4.174   3.161  13.320 -0.9548  2.5670  1.0249
 5074TIP3    H236714   4.153   3.150  13.171  1.3946  0.1588  0.8015
 5075TIP3   OH236715   4.151   5.820   6.028 -0.0676 -0.5060 -0.3523
 5075TIP3    H136716   4.226   5.783   6.076  0.0356 -2.7863 -2.0807
 5075TIP3    H236717   4.121   5.748   5.972 -1.5441  1.3252 -2.0638
 5076TIP3   OH236718   6.517   5.079   0.821  0.6063  0.4596  0.1931
 5076TIP3    H136719   6.540   5.036   0.903 -1.3183 -0.6587  0.1908
 5076TIP3    H236720   6.464   5.154   0.846  0.8095  0.6689  0.0076
 5077TIP3   OH236721   3.635   3.454   5.353  0.2404 -0.2685 -0.1271
 5077TIP3    H136722   3.652   3.379   5.297 -0.8708 -1.6266  1.2476
 5077TIP3    H236723   3.702   3.518   5.329  0.0857 -0.9462 -2.6171
 5078TIP3   OH236724   4.132   3.817   4.203  0.4201  0.7074  0.0071
 5078TIP3    H136725   4.198   3.753   4.228  1.3503  1.4032 -0.5695
 5078TIP3    H236726   4.167   3.901   4.234 -0.8729  0.9392  0.9488
 5079TIP3   OH236727   0.191   3.281   0.050 -0.7464 -0.1103 -0.4935
 5079TIP3    H136728   0.249   3.281  -0.026 -1.0931 -0.9701 -0.7723
 5079TIP3    H236729   0.176   3.373   0.070  0.5275  0.1258 -0.5560
 5080TIP3   OH236730   2.277   1.368  15.952 -0.7223 -0.2474  0.1880
 5080TIP3    H136731   2.350   1.430  15.959 -1.5797  0.8899 -0.5794
 5080TIP3    H236732   2.298   1.315  15.875  1.3081 -2.7631  2.2808
 5081TIP3   OH236733   1.461   4.331   2.196 -0.0610  0.7092 -0.7829
 5081TIP3    H136734   1.543   4.381   2.188  1.3309 -1.4894 -1.0713
 5081TIP3    H236735   1.487   4.250   2.240 -2.4507  0.6725  0.7297
 5082TIP3   OH236736   6.438   4.746  15.076  0.1168  0.2678 -0.5422
 5082TIP3    H136737   6.388   4.799  15.139 -0.8751  0.1725 -1.2297
 5082TIP3    H236738   6.377   4.731  15.004  1.3743  0.7080 -1.7196
 5083TIP3   OH236739   1.891   5.900  15.135 -0.7088 -0.0139  0.0543
 5083TIP3    H136740   1.796   5.906  15.132 -1.0146 -3.2578 -2.4973
 5083TIP3    H236741   1.909   5.809  15.156  1.7174 -0.1477 -2.1044
 5084TIP3   OH236742   3.530   5.455  13.461 -0.2041  0.2090  0.5777
 5084TIP3    H136743   3.436   5.468  13.473  0.0725  1.2176  1.8462
 5084TIP3    H236744   3.561   5.424  13.546  0.6647  0.2031  0.2716
 5085TIP3   OH236745   1.794   3.680  13.305 -0.0123  0.4839  0.1885
 5085TIP3    H136746   1.787   3.585  13.312 -0.7028  0.5479  0.3876
 5085TIP3    H236747   1.824   3.695  13.215  0.5534  0.0596  0.3007
 5086TIP3   OH236748   1.794   4.655  12.183  0.2678  0.2860  0.0701
 5086TIP3    H136749   1.766   4.706  12.259  0.7099  0.0314  0.4111
 5086TIP3    H236750   1.755   4.699  12.108  0.2317  0.8289  0.4036
 5087TIP3   OH236751   1.668   4.897   0.859 -0.4151  1.0223 -0.1501
 5087TIP3    H136752   1.662   4.801   0.864  0.5900  0.9897  0.5465
 5087TIP3    H236753   1.618   4.928   0.934  1.1415  0.9607  0.9581
 5088TIP3   OH236754   4.415   0.275   4.991 -0.2117  0.1781 -0.5565
 5088TIP3    H136755   4.385   0.360   4.956  0.5273 -0.0133 -1.7241
 5088TIP3    H236756   4.490   0.296   5.046 -0.4618  0.3515 -0.2838
 5089TIP3   OH236757   2.116   4.895   0.906  0.2859  0.3305  0.2009
 5089TIP3    H136758   2.170   4.881   0.983  0.2443  1.7179  0.5080
 5089TIP3    H236759   2.095   4.988   0.908  0.3341  0.4172 -1.5086
 5090TIP3   OH236760   6.064   3.628  15.492 -0.0312 -0.1734 -0.3269
 5090TIP3    H136761   6.154   3.598  15.480  0.2231  0.3600  0.1999
 5090TIP3    H236762   6.073   3.717  15.527 -0.7673  0.1471 -0.9388
 5091TIP3   OH236763   2.708   0.651  15.137  0.2127  0.1658 -0.5597
 5091TIP3    H136764   2.727   0.659  15.043  2.3114  1.1182 -0.1127
 5091TIP3    H236765   2.793   0.634  15.177 -0.8132 -1.5238  1.0888
 5092TIP3   OH236766   4.292   2.623  14.106  0.2636  0.5550  0.1377
 5092TIP3    H136767   4.381   2.592  14.120 -0.5988 -2.0687  0.3320
 5092TIP3    H236768   4.270   2.668  14.188  1.1412  0.5504  0.3926
 5093TIP3   OH236769   4.594   0.448  16.049  0.3784  0.1417  0.6056
 5093TIP3    H136770   4.582   0.443  16.144  0.9780 -1.5771  0.6258
 5093TIP3    H236771   4.547   0.527  16.023 -1.2743 -0.2767  2.1201
 5094TIP3   OH236772   0.896   3.494   2.024 -0.1140  0.5004 -0.3651
 5094TIP3    H136773   0.962   3.451   1.970  0.2034 -0.0142  0.4136
 5094TIP3    H236774   0.923   3.586   2.025 -0.0365  0.4858 -0.9486
 5095TIP3   OH236775   1.373   2.123   5.070  0.0737 -0.6845  0.2157
 5095TIP3    H136776   1.436   2.182   5.114 -1.1570  0.6348  0.2881
 5095TIP3    H236777   1.421   2.090   4.994  0.2381  1.9843 -0.9714
 5096TIP3   OH236778   3.533   3.261  11.113  0.8265  0.2134  0.5982
 5096TIP3    H136779   3.475   3.186  11.099  1.2448  0.0080 -0.0750
 5096TIP3    H236780   3.584   3.237  11.190  2.2657 -1.0457 -0.6847
 5097TIP3   OH236781   1.543   2.484   2.111 -0.1162  0.1953 -0.0893
 5097TIP3    H136782   1.523   2.415   2.175  0.7447 -1.2835 -1.3569
 5097TIP3    H236783   1.562   2.561   2.165 -2.1089 -0.2238  1.3395
 5098TIP3   OH236784   6.409   3.780   0.627  0.4767  0.7571  0.3502
 5098TIP3    H136785   6.368   3.698   0.652 -0.6919  1.6069  1.3540
 5098TIP3    H236786   6.503   3.765   0.637  0.2085  0.0094  2.0276
 5099TIP3   OH236787   2.211   2.492   2.777  0.0223 -0.2715 -0.4277
 5099TIP3    H136788   2.199   2.495   2.682 -0.9557 -1.3555 -0.3657
 5099TIP3    H236789   2.261   2.412   2.793  0.5900  0.1500 -0.0549
 5100TIP3   OH236790   0.316   5.384   5.318  0.0613 -0.3892  0.1316
 5100TIP3    H136791   0.407   5.412   5.310  0.3897 -0.8365  1.9774
 5100TIP3    H236792   0.286   5.421   5.401 -1.7102  0.4204 -0.8099
 5101TIP3   OH236793   1.707   0.783   2.622  0.1382  0.0364 -0.3888
 5101TIP3    H136794   1.614   0.774   2.644  0.1075 -0.2477 -0.6192
 5101TIP3    H236795   1.748   0.812   2.703 -0.2502  0.8097 -0.4605
 5102TIP3   OH236796   6.564   3.518  16.570  0.2765 -0.3190  0.0612
 5102TIP3    H136797   6.482   3.507  16.522  0.5425 -1.4188 -0.1631
 5102TIP3    H236798   6.603   3.597  16.534 -0.3108 -0.2273 -0.3804
 5103TIP3   OH236799   0.769   4.940   3.609 -0.1080 -0.1109 -0.1632
 5103TIP3    H136800   0.692   4.891   3.639  1.2904 -0.7772  2.6915
 5103TIP3    H236801   0.795   4.992   3.685  2.6809 -0.5007 -0.7532
 5104TIP3   OH236802   3.154   4.276  15.171  0.0533 -0.4110 -0.1376
 5104TIP3    H136803   3.181   4.229  15.250 -0.5660  2.0182  1.6252
 5104TIP3    H236804   3.192   4.226  15.099  1.7126 -2.0247  1.7503
 5105TIP3   OH236805   6.003   5.035  12.498 -0.0229  0.0804 -0.5582
 5105TIP3    H136806   6.017   5.068  12.409  0.8299  1.6524  0.1030
 5105TIP3    H236807   6.087   5.049  12.542 -0.1775 -1.4307  0.2848
 5106TIP3   OH236808   4.518   0.719  15.014 -0.9362  0.2031  0.3456
 5106TIP3    H136809   4.503   0.809  14.985 -0.4298  0.3965  0.6622
 5106TIP3    H236810   4.607   0.699  14.983 -1.7050 -0.8198 -1.2874
 5107TIP3   OH236811   3.360   3.132  12.310  0.3126  0.1390 -0.1489
 5107TIP3    H136812   3.388   3.064  12.371  0.8371  2.5686  2.5376
 5107TIP3    H236813   3.439   3.181  12.289 -0.3090  0.9999 -0.5834
 5108TIP3   OH236814   2.501   4.984  12.116  0.0555  0.6546  0.1125
 5108TIP3    H136815   2.592   4.973  12.086  0.1197  2.7757 -0.6213
 5108TIP3    H236816   2.484   4.905  12.168  1.6107 -0.7910 -1.4311
 5109TIP3   OH236817   3.595   5.548  15.789  0.2660 -0.3053  0.0529
 5109TIP3    H136818   3.668   5.492  15.815 -1.0888 -1.9760  0.4463
 5109TIP3    H236819   3.596   5.546  15.693 -0.2062 -1.6763  0.0530
 5110TIP3   OH236820   5.763   5.385   4.289 -0.8766 -0.1415 -0.0460
 5110TIP3    H136821   5.780   5.316   4.353 -1.8552  0.4259  0.8588
 5110TIP3    H236822   5.764   5.340   4.204 -2.0435 -1.3835  0.5575
 5111TIP3   OH236823   4.213   4.593   3.322 -0.4715 -0.7294 -0.3654
 5111TIP3    H136824   4.136   4.595   3.378  1.9939 -2.2993  3.5264
 5111TIP3    H236825   4.252   4.680   3.332 -0.7665 -0.5292 -0.8942
 5112TIP3   OH236826   3.109   0.090   4.685  0.2147 -0.2796  0.3687
 5112TIP3    H136827   3.031   0.036   4.683 -0.6574  0.9364 -0.7088
 5112TIP3    H236828   3.082   0.173   4.644  1.7713  0.5673  0.9565
 5113TIP3   OH236829   1.949   3.738  12.272  0.3624  0.2461 -0.0833
 5113TIP3    H136830   1.900   3.813  12.308  2.0068  1.6680 -0.6412
 5113TIP3    H236831   1.892   3.704  12.203 -1.4033 -0.4876  1.6256
 5114TIP3   OH236832   6.087   3.929  14.292  0.3486  0.1050 -0.0223
 5114TIP3    H136833   6.144   3.891  14.226  0.4365  0.0812  0.0672
 5114TIP3    H236834   6.091   4.024  14.277  3.7146  0.5393  2.5741
 5115TIP3   OH236835   1.783   0.560   2.479  0.1851  0.0041  0.3750
 5115TIP3    H136836   1.746   0.627   2.536  0.9401  0.8388 -0.1006
 5115TIP3    H236837   1.813   0.607   2.401  2.7624 -0.4971  0.9594
 5116TIP3   OH236838   6.233   1.844  11.212  0.6088 -0.0087  0.6282
 5116TIP3    H136839   6.201   1.934  11.204 -0.5081 -0.4232  0.1187
 5116TIP3    H236840   6.261   1.821  11.124  0.4633 -0.3040  0.6582
 5117TIP3   OH236841   1.955   6.240  14.185 -0.2257  0.1924  0.1753
 5117TIP3    H136842   2.004   6.211  14.107  0.2094  0.5646  0.3044
 5117TIP3    H236843   1.864   6.221  14.164  0.0242 -1.2289  0.2387
 5118TIP3   OH236844   0.594   0.408  11.304  0.2043 -0.4914  0.2696
 5118TIP3    H136845   0.578   0.477  11.241  2.0434 -0.1589  0.1180
 5118TIP3    H236846   0.597   0.452  11.389  1.3467 -0.3503  0.1758
 5119TIP3   OH236847   4.260   3.948  16.475 -0.5564 -0.5060 -0.8644
 5119TIP3    H136848   4.207   3.947  16.395  2.4084 -1.4427 -3.0133
 5119TIP3    H236849   4.327   3.881  16.459  1.6241  0.9886  1.3724
 5120TIP3   OH236850   1.180   1.205  10.790  0.7293 -0.8932 -0.3356
 5120TIP3    H136851   1.214   1.255  10.715  1.3646 -1.4537 -0.4250
 5120TIP3    H236852   1.109   1.152  10.753  0.3745 -0.4240 -0.3362
 5121TIP3   OH236853   6.710   2.660  15.999  0.2399  0.2391  0.5198
 5121TIP3    H136854   6.701   2.748  16.036  0.4606  0.1777  0.7245
 5121TIP3    H236855   6.800   2.634  16.020 -0.2987 -0.6683  1.8857
 5122TIP3   OH236856   6.771   5.376  10.576  0.1347 -0.2228 -0.4407
 5122TIP3    H136857   6.808   5.322  10.506  0.3777  0.9147 -1.2117
 5122TIP3    H236858   6.691   5.330  10.602 -0.7334  0.0554 -2.4478
 5123TIP3   OH236859   1.919   2.454   4.380  0.6270 -0.6422 -0.2932
 5123TIP3    H136860   1.827   2.475   4.365  0.6718 -0.7679 -0.7396
 5123TIP3    H236861   1.927   2.361   4.359  0.6558 -0.8630  0.6618
 5124TIP3   OH236862   6.554   1.080  11.917 -0.0106  0.5516  0.3438
 5124TIP3    H136863   6.593   1.004  11.960 -3.0898 -1.2186  0.2939
 5124TIP3    H236864   6.605   1.091  11.837  1.4885 -0.4264  1.1143
 5125TIP3   OH236865   6.022   2.903   0.106  0.0878  0.1845 -0.7281
 5125TIP3    H136866   6.018   2.910   0.010  1.3107  0.7522 -0.7535
 5125TIP3    H236867   6.069   2.822   0.122 -0.5387 -0.1607 -0.5865
 5126TIP3   OH236868   1.997   1.782   6.405 -0.1594 -0.1836 -0.0479
 5126TIP3    H136869   1.912   1.800   6.443 -1.0218 -0.9420 -1.5254
 5126TIP3    H236870   2.016   1.858   6.350 -0.2636 -0.3745 -0.3499
 5127TIP3   OH236871   3.072   3.590  12.457 -0.4583  0.2037  0.0158
 5127TIP3    H136872   3.151   3.636  12.427 -0.7605  0.7756  0.0881
 5127TIP3    H236873   3.008   3.605  12.387 -0.8195  0.6047  0.4267
 5128TIP3   OH236874   2.370   1.140   0.237  0.2517 -0.3019 -0.3973
 5128TIP3    H136875   2.461   1.159   0.261  0.0258 -0.9009  1.0023
 5128TIP3    H236876   2.375   1.113   0.145  1.3531  0.5814 -0.6229
 5129TIP3   OH236877   2.633   4.618   3.491  0.2285  0.0414 -0.2558
 5129TIP3    H136878   2.550   4.572   3.481  0.9084 -1.7956  1.6952
 5129TIP3    H236879   2.625   4.664   3.574  1.3038 -0.5488  0.1978
 5130TIP3   OH236880   5.613   1.043  11.888 -0.1400  0.2656 -0.7874
 5130TIP3    H136881   5.643   1.133  11.877  1.9296 -0.1989  0.6264
 5130TIP3    H236882   5.573   1.021  11.803 -0.4328  2.3757 -1.2637
 5131TIP3   OH236883   0.971   6.173  16.312 -0.0340  0.4209  0.2997
 5131TIP3    H136884   1.058   6.177  16.273 -0.4703  1.7605 -0.6185
 5131TIP3    H236885   0.923   6.110  16.258 -0.0358  0.7336 -0.0677
 5132TIP3   OH236886   5.009   4.480   0.218  0.6255 -0.1069  0.4112
 5132TIP3    H136887   5.086   4.503   0.166  0.0031  0.8741 -0.1174
 5132TIP3    H236888   4.938   4.532   0.179 -0.2861 -0.9389  0.9287
 5133TIP3   OH236889   2.036   2.204  12.005  0.9542  0.0673 -0.1691
 5133TIP3    H136890   1.942   2.202  12.022  0.8791 -1.8196 -0.5345
 5133TIP3    H236891   2.074   2.244  12.083 -0.0732 -0.2787  0.5370
 5134TIP3   OH236892   4.352   6.739  11.971  0.3164  0.0384  0.2445
 5134TIP3    H136893   4.286   6.699  11.914 -0.3848  1.4807 -0.0053
 5134TIP3    H236894   4.337   6.699  12.057  1.6485 -2.4595 -0.5886
 5135TIP3   OH236895   2.122   5.957   3.345 -0.3809  0.0649 -0.0575
 5135TIP3    H136896   2.068   5.954   3.266 -0.8512  0.6965  0.2303
 5135TIP3    H236897   2.064   5.990   3.413 -0.0411 -0.6724  0.6119
 5136TIP3   OH236898   2.239   0.367   4.094  0.3975 -0.8354  0.1969
 5136TIP3    H136899   2.239   0.427   4.168 -0.4617 -0.4790 -0.0841
 5136TIP3    H236900   2.211   0.283   4.130 -0.4269 -0.5632  0.2051
 5137TIP3   OH236901   4.892   5.148  15.865 -0.2761  0.1957  0.1592
 5137TIP3    H136902   4.863   5.239  15.870  0.5501  0.4521  0.6397
 5137TIP3    H236903   4.831   5.100  15.921  0.2393  0.7381  1.2343
 5138TIP3   OH236904   5.095   5.952  17.141 -0.2874 -0.0739 -0.3051
 5138TIP3    H136905   5.155   5.958  17.215 -1.6127  1.4708  0.7217
 5138TIP3    H236906   5.151   5.961  17.064  0.8535  0.8986  0.5937
 5139TIP3   OH236907   4.761   0.821   4.396 -0.4077  0.1216 -0.1626
 5139TIP3    H136908   4.787   0.894   4.452 -0.1774 -0.2650  0.2420
 5139TIP3    H236909   4.689   0.779   4.443 -0.4564  0.0094 -0.3340
 5140TIP3   OH236910   0.928   0.871  16.347  0.2425  0.2373 -0.3633
 5140TIP3    H136911   0.993   0.808  16.317 -0.5704 -0.9710  0.2992
 5140TIP3    H236912   0.845   0.822  16.344 -0.4426  1.3424 -0.0096
 5141TIP3   OH236913   4.042   1.316   2.595  0.4509 -0.6237 -0.6746
 5141TIP3    H136914   4.043   1.279   2.507 -0.6949  0.5942 -1.2276
 5141TIP3    H236915   4.119   1.278   2.638  2.7779  0.9536 -3.1300
 5142TIP3   OH236916   6.688   3.897  15.971  0.1429  0.0557 -0.0908
 5142TIP3    H136917   6.598   3.915  15.999  0.4439  0.5845  0.5827
 5142TIP3    H236918   6.713   3.819  16.019  0.6819  1.0013  1.2279
 5143TIP3   OH236919   6.510   5.324  13.117 -0.0352 -0.4563 -0.2021
 5143TIP3    H136920   6.524   5.363  13.031 -2.9014  1.5871  0.1302
 5143TIP3    H236921   6.580   5.361  13.171 -0.1009  0.7997 -0.9388
 5144TIP3   OH236922   1.679   6.282   2.951 -0.6218  0.3289 -0.1417
 5144TIP3    H136923   1.606   6.221   2.961  0.5659 -0.8647  1.9647
 5144TIP3    H236924   1.738   6.239   2.890  0.4708 -1.0373  1.7439
 5145TIP3   OH236925   1.078   4.459   2.645  0.2576 -0.4346  0.5790
 5145TIP3    H136926   1.141   4.387   2.641 -0.6678 -1.2393 -2.4861
 5145TIP3    H236927   0.993   4.416   2.651 -0.3645  0.2449 -2.0270
 5146TIP3   OH236928   0.083   4.859  12.886  0.3217 -0.5532  0.4649
 5146TIP3    H136929   0.131   4.779  12.906  0.4713 -1.1356 -1.9739
 5146TIP3    H236930   0.002   4.829  12.845 -1.5444  0.4612  3.1000
 5147TIP3   OH236931   1.481   1.813  16.777 -0.2110  0.1922 -0.9416
 5147TIP3    H136932   1.534   1.884  16.813  0.2922 -0.2592 -0.7822
 5147TIP3    H236933   1.542   1.764  16.721 -0.4938 -0.2580 -0.8554
 5148TIP3   OH236934   0.367   6.263   3.299  0.0116  0.1165 -0.0803
 5148TIP3    H136935   0.315   6.340   3.276 -0.4064 -0.5480 -1.4940
 5148TIP3    H236936   0.347   6.200   3.230  0.7790 -1.0597  0.7405
 5149TIP3   OH236937   6.037   4.152  13.698 -0.1348 -0.0950  0.1498
 5149TIP3    H136938   6.100   4.084  13.678 -1.8276 -1.4180 -0.9690
 5149TIP3    H236939   6.016   4.139  13.791  0.0855 -0.6557  0.1234
 5150TIP3   OH236940   2.338   5.738  13.084  0.3878 -0.2096  0.3589
 5150TIP3    H136941   2.397   5.728  13.010 -0.2656  0.4045 -0.2642
 5150TIP3    H236942   2.374   5.811  13.134 -0.0083  0.3969 -0.2117
 5151TIP3   OH236943   3.345   2.924   4.375  0.0989  0.5068  0.2552
 5151TIP3    H136944   3.284   2.871   4.324 -0.3764 -1.3892  2.6063
 5151TIP3    H236945   3.415   2.947   4.314 -1.3457 -0.0397 -1.6748
 5152TIP3   OH236946   1.905   3.295  16.842  0.2469  0.2941  0.0664
 5152TIP3    H136947   1.855   3.244  16.778  2.3561 -0.3551 -1.1682
 5152TIP3    H236948   1.996   3.273  16.824  1.2418  3.7813  0.0607
 5153TIP3   OH236949   2.827   0.091  13.166  0.4000  0.1733  0.1657
 5153TIP3    H136950   2.854   0.169  13.116  0.6485 -0.6696 -1.0549
 5153TIP3    H236951   2.893   0.084  13.235  0.3497  1.0612  0.3253
 5154TIP3   OH236952   6.801   4.090   0.928  0.7307 -0.6448 -0.2018
 5154TIP3    H136953   6.829   4.003   0.900 -1.2331 -1.2036 -0.5864
 5154TIP3    H236954   6.717   4.076   0.971  0.8377  0.9599  0.6337
 5155TIP3   OH236955   5.350   0.617   0.124 -0.0747  0.3476  0.0439
 5155TIP3    H136956   5.431   0.587   0.166 -0.6927  0.4953  1.4003
 5155TIP3    H236957   5.284   0.553   0.151 -0.4304  0.2356 -1.0358
 5156TIP3   OH236958   5.743   1.773  10.873 -0.2268  0.3650 -0.3297
 5156TIP3    H136959   5.810   1.810  10.931 -1.3860  2.2953 -0.1199
 5156TIP3    H236960   5.759   1.816  10.788 -1.5081  1.3283 -0.1238
 5157TIP3   OH236961   3.915   3.905   6.349  0.1173 -0.3649 -0.2198
 5157TIP3    H136962   3.942   3.962   6.276 -0.2187 -2.6012 -2.2185
 5157TIP3    H236963   3.871   3.832   6.307 -2.0024 -0.7622  2.4318
 5158TIP3   OH236964   3.585   6.555  13.204 -0.1932  0.3596 -0.2052
 5158TIP3    H136965   3.644   6.604  13.146  0.9446  1.3064  1.6450
 5158TIP3    H236966   3.642   6.523  13.274 -1.4580 -1.0370  0.2390
 5159TIP3   OH236967   0.991   1.827  14.429 -0.0202  1.2546  0.1132
 5159TIP3    H136968   1.031   1.867  14.352 -1.0468  1.2494 -0.4486
 5159TIP3    H236969   1.030   1.740  14.434 -0.6353  0.8845 -0.9998
 5160TIP3   OH236970   5.631   3.628   0.810 -0.4501  0.0308  0.4627
 5160TIP3    H136971   5.563   3.695   0.804  1.2882  2.6506  4.8255
 5160TIP3    H236972   5.710   3.676   0.833  1.4144 -3.3770  2.0020
 5161TIP3   OH236973   0.920   0.349  11.504 -0.0812  0.2212  0.7479
 5161TIP3    H136974   0.909   0.426  11.448  0.7185 -0.4511 -0.3873
 5161TIP3    H236975   1.014   0.342  11.517 -0.1558 -0.4511  0.9840
 5162TIP3   OH236976   6.478   4.152  14.369 -0.1930  0.3911 -0.0618
 5162TIP3    H136977   6.469   4.057  14.355  1.5505 -0.1384  1.9082
 5162TIP3    H236978   6.389   4.183  14.385 -1.0026 -0.5930 -2.2506
 5163TIP3   OH236979   5.752   5.090  12.557 -0.2226  0.0734  0.1227
 5163TIP3    H136980   5.739   5.060  12.647 -1.4867 -1.3396 -0.4844
 5163TIP3    H236981   5.844   5.073  12.539  0.1451  0.7497  1.2578
 5164TIP3   OH236982   1.307   1.243  16.294  0.2706 -0.1804  0.7049
 5164TIP3    H136983   1.379   1.265  16.353  1.0141 -2.4951  0.7910
 5164TIP3    H236984   1.240   1.206  16.351  0.0835 -0.3868  0.3536
 5165TIP3   OH236985   4.700   4.074  10.299 -0.0198  0.0045  0.3509
 5165TIP3    H136986   4.694   4.166  10.323 -0.4942  0.1433 -0.2726
 5165TIP3    H236987   4.613   4.052  10.265  0.0321 -0.7224  0.6585
 5166TIP3   OH236988   1.969   2.254   0.298  0.2529 -0.1669 -0.2860
 5166TIP3    H136989   1.948   2.164   0.275  3.9122 -0.8469 -1.7186
 5166TIP3    H236990   2.015   2.289   0.222  0.5620  2.3141  0.9160
 5167TIP3   OH236991   0.766   3.335  12.537  0.4360 -0.2496 -0.4840
 5167TIP3    H136992   0.853   3.374  12.546  0.4734 -0.5274  0.4987
 5167TIP3    H236993   0.723   3.352  12.621 -0.2139 -0.6903 -0.7185
 5168TIP3   OH236994   3.390   2.157   3.805  0.3440 -0.0216  0.1086
 5168TIP3    H136995   3.378   2.153   3.710  1.6696  0.5458 -0.0975
 5168TIP3    H236996   3.473   2.112   3.820  1.7262  2.5393  0.6355
 5169TIP3   OH236997   0.071   2.436  17.067 -0.3094 -0.3519  0.0228
 5169TIP3    H136998   0.109   2.348  17.072 -0.9096 -0.8185 -2.2544
 5169TIP3    H236999   0.058   2.462  17.158  0.7700 -2.2172  0.7717
 5170TIP3   OH237000   1.688   0.922   0.622  0.3011 -0.0554  0.1374
 5170TIP3    H137001   1.666   0.985   0.691 -1.6737 -1.2858  0.7425
 5170TIP3    H237002   1.676   0.970   0.540  1.6928  1.1392  0.5954
 5171TIP3   OH237003   4.677   6.661   1.467 -0.1154  0.0564  0.1327
 5171TIP3    H137004   4.591   6.689   1.499 -1.1793 -2.0957 -0.6329
 5171TIP3    H237005   4.686   6.704   1.382 -0.9336 -0.4999 -0.2536
 5172TIP3   OH237006   4.365   1.126   3.248 -0.0111 -0.2830 -0.1951
 5172TIP3    H137007   4.403   1.199   3.199  0.0625 -0.2495 -0.0910
 5172TIP3    H237008   4.411   1.048   3.215 -0.2889 -0.3154 -0.5047
 5173TIP3   OH237009   6.780   1.541   4.442  0.5510  0.1652 -0.0953
 5173TIP3    H137010   6.693   1.576   4.423 -0.1192  0.0411  2.4737
 5173TIP3    H237011   6.807   1.499   4.360 -1.4971  0.7805 -1.1533
 5174TIP3   OH237012   3.624   2.902  14.359 -0.0907 -0.2369 -0.4416
 5174TIP3    H137013   3.595   2.983  14.317  1.6089  0.8146  0.2867
 5174TIP3    H237014   3.546   2.847  14.361 -2.1263  2.4428  1.5862
 5175TIP3   OH237015   5.039   0.852  15.396 -0.1153 -0.4293  0.1010
 5175TIP3    H137016   5.071   0.847  15.306  0.0207 -0.8732  0.1727
 5175TIP3    H237017   5.086   0.927  15.434 -0.9241  0.3969 -0.4899
 5176TIP3   OH237018   6.139   4.655  12.861 -0.0318 -0.0315 -0.4228
 5176TIP3    H137019   6.092   4.646  12.943 -1.2622 -1.5560 -1.2453
 5176TIP3    H237020   6.110   4.739  12.825  0.1331  0.4027  0.4343
 5177TIP3   OH237021   2.757   2.524   0.929 -0.3117 -0.1661 -0.2411
 5177TIP3    H137022   2.733   2.615   0.912 -0.3026 -0.3086 -1.0313
 5177TIP3    H237023   2.842   2.530   0.973  0.5429  0.1504 -1.8777
 5178TIP3   OH237024   1.233   0.642   5.040  0.7451  0.2776  0.6519
 5178TIP3    H137025   1.184   0.601   5.112 -2.7521  3.9512  0.7095
 5178TIP3    H237026   1.227   0.579   4.968 -3.4007 -0.0133  1.0175
 5179TIP3   OH237027   4.577   5.381  15.556 -0.4079 -1.1036  0.6282
 5179TIP3    H137028   4.660   5.334  15.564  0.3358  0.1558  0.6013
 5179TIP3    H237029   4.549   5.366  15.466  0.0180 -1.1836  0.5055
 5180TIP3   OH237030   0.792   1.401  15.060 -0.0739 -0.4573  0.2292
 5180TIP3    H137031   0.719   1.351  15.095 -0.1508 -1.5644 -1.4121
 5180TIP3    H237032   0.862   1.389  15.125 -0.4035 -1.9329  0.3633
 5181TIP3   OH237033   3.443   5.698   6.909  0.5519  0.1826  0.2132
 5181TIP3    H137034   3.452   5.736   6.822 -1.4718 -2.1570 -1.1612
 5181TIP3    H237035   3.349   5.702   6.927  0.3250 -2.9627  0.4079
 5182TIP3   OH237036   2.242   6.719   4.698 -0.9976 -0.2079 -0.1495
 5182TIP3    H137037   2.266   6.630   4.674 -1.6211 -0.2134 -0.7823
 5182TIP3    H237038   2.150   6.714   4.724 -1.1527  0.3128 -0.5733
 5183TIP3   OH237039   3.992   2.061  10.933  0.5117 -0.6534  0.3231
 5183TIP3    H137040   4.027   2.054  10.844  1.6073 -0.1113  0.6972
 5183TIP3    H237041   3.920   1.998  10.935 -0.7785  0.6659 -1.5194
 5184TIP3   OH237042   5.108   3.243   1.948  0.2587  0.3672 -0.0542
 5184TIP3    H137043   5.025   3.277   1.915 -0.1865 -1.0133 -0.4196
 5184TIP3    H237044   5.116   3.279   2.036  0.2332  2.0775 -0.7068
 5185TIP3   OH237045   5.031   4.629  13.066 -0.0748 -0.1688  0.6782
 5185TIP3    H137046   5.116   4.610  13.028 -0.3363 -0.6713  0.3358
 5185TIP3    H237047   5.051   4.655  13.156  0.5942  1.6384  0.0426
 5186TIP3   OH237048   0.490   5.161   2.000 -0.3958 -0.3547 -0.1340
 5186TIP3    H137049   0.444   5.091   2.045 -0.7955 -0.1945 -0.2896
 5186TIP3    H237050   0.549   5.198   2.066  0.3656 -1.3153 -0.2551
 5187TIP3   OH237051   1.311   2.385   4.426  0.1959  0.1476  0.3599
 5187TIP3    H137052   1.344   2.389   4.516 -0.5776  1.0398  0.6164
 5187TIP3    H237053   1.315   2.475   4.394  2.0468 -0.3988 -1.1141
 5188TIP3   OH237054   6.250   4.977   5.015  0.4032  0.2579  0.8942
 5188TIP3    H137055   6.295   5.015   4.939 -0.9079  2.8208  1.2903
 5188TIP3    H237056   6.159   4.971   4.987 -0.0955  1.2120  2.1989
 5189TIP3   OH237057   4.906   2.883  16.962 -0.4509  0.2901  0.0979
 5189TIP3    H137058   4.893   2.836  17.045  1.0993  0.5631  0.5325
 5189TIP3    H237059   4.918   2.813  16.897 -1.0838  0.0754  0.2050
 5190TIP3   OH237060   3.115   5.736  16.035 -0.0738 -0.2735  0.1473
 5190TIP3    H137061   3.173   5.747  15.960 -0.0480  0.3381  0.2486
 5190TIP3    H237062   3.028   5.761  16.002  0.3392  2.6428  0.9561
 5191TIP3   OH237063   5.411   2.710   0.622 -0.3730  0.1848  0.4102
 5191TIP3    H137064   5.359   2.655   0.680 -0.7487 -0.8077 -0.8040
 5191TIP3    H237065   5.359   2.789   0.611 -0.0692  0.5922  1.7768
 5192TIP3   OH237066   0.839   0.162  14.892 -0.5675  0.4021 -0.4068
 5192TIP3    H137067   0.828   0.234  14.829  2.7957  0.9400 -0.5637
 5192TIP3    H237068   0.877   0.204  14.969 -1.2171 -0.8237  0.6020
 5193TIP3   OH237069   1.223   6.173  16.222  0.2149  0.3292 -0.1962
 5193TIP3    H137070   1.211   6.211  16.135 -0.3386  0.0678 -0.2376
 5193TIP3    H237071   1.318   6.161  16.229  0.2615  0.2867 -0.7923
 5194TIP3   OH237072   3.837   2.372  13.644  0.5463 -0.0993  0.1677
 5194TIP3    H137073   3.882   2.345  13.563  0.7891  0.0582  0.2500
 5194TIP3    H237074   3.896   2.345  13.714  1.0031  1.0144  0.2417
 5195TIP3   OH237075   3.221   3.670   1.626 -0.3678 -0.4984 -0.2685
 5195TIP3    H137076   3.183   3.741   1.574 -0.1122 -0.3922 -0.3139
 5195TIP3    H237077   3.167   3.593   1.606  0.5145 -0.7700 -1.7004
 5196TIP3   OH237078   3.782   1.625  11.412  0.3618  0.1910  0.4373
 5196TIP3    H137079   3.753   1.535  11.397  0.2577  0.5751 -1.9079
 5196TIP3    H237080   3.876   1.622  11.401  0.2876  0.4856 -0.2689
 5197TIP3   OH237081   1.499   1.913   3.365  0.7394 -0.1193 -0.3233
 5197TIP3    H137082   1.510   1.850   3.294 -0.0248 -0.5137 -0.0908
 5197TIP3    H237083   1.568   1.891   3.427  1.7603  0.5650 -1.1708
 5198TIP3   OH237084   1.965   0.344  16.847 -0.1912 -0.1008  0.6194
 5198TIP3    H137085   1.977   0.436  16.868 -0.1785  0.2551 -0.8519
 5198TIP3    H237086   1.870   0.335  16.836 -0.0715  0.0579 -0.5937
 5199TIP3   OH237087   5.012   6.543  12.780 -0.1556 -0.5143 -0.0809
 5199TIP3    H137088   5.092   6.595  12.774  0.4874 -1.3523  0.9665
 5199TIP3    H237089   5.038   6.455  12.751 -0.5467 -0.9332  0.8221
 5200TIP3   OH237090   4.428   2.880  10.939 -0.2903 -0.0186 -0.0960
 5200TIP3    H137091   4.374   2.954  10.910 -1.3262 -0.1309  1.4535
 5200TIP3    H237092   4.367   2.807  10.946  0.6263 -0.9096 -1.0788
 5201TIP3   OH237093   3.190   6.338   4.406  0.1768 -0.6037  0.4470
 5201TIP3    H137094   3.105   6.372   4.435 -0.4491 -0.5745 -1.2500
 5201TIP3    H237095   3.222   6.405   4.346  1.6587 -0.3901  1.4428
 5202TIP3   OH237096   4.773   4.549  13.006  0.2535  0.3269  0.3745
 5202TIP3    H137097   4.757   4.552  13.100  0.0983 -0.4440  0.3830
 5202TIP3    H237098   4.866   4.568  12.997  0.6888 -1.3678  0.8504
 5203TIP3   OH237099   2.075   4.314  17.058 -0.0575  0.1074  0.0536
 5203TIP3    H137100   2.048   4.346  16.972 -1.2706 -1.7517 -0.3346
 5203TIP3    H237101   2.109   4.226  17.040 -2.4951 -1.2930  1.6430
 5204TIP3   OH237102   5.354   4.572  15.499  0.0699 -0.5376 -0.0323
 5204TIP3    H137103   5.292   4.644  15.490  0.0043 -0.3599  1.5734
 5204TIP3    H237104   5.440   4.614  15.500  0.1456 -0.6539 -0.7775
 5205TIP3   OH237105   6.063   1.517  15.881 -0.2166  0.5977  0.3210
 5205TIP3    H137106   5.990   1.459  15.861 -1.2302  1.8004  0.3886
 5205TIP3    H237107   6.121   1.465  15.937 -0.2898 -0.8381 -0.8773
 5206TIP3   OH237108   0.256   2.919  17.118  0.1587 -0.4431 -0.1713
 5206TIP3    H137109   0.237   2.924  17.212  0.9309 -0.0529 -0.0321
 5206TIP3    H237110   0.217   2.999  17.082 -1.7029 -1.4247 -0.4860
 5207TIP3   OH237111   2.662   4.186   5.829  0.2655  0.1764  0.3038
 5207TIP3    H137112   2.736   4.230   5.872  2.1153 -2.4626  0.0598
 5207TIP3    H237113   2.656   4.229   5.744  0.5294  1.3986  0.8671
 5208TIP3   OH237114   4.502   2.593  11.737  0.0418 -0.2174 -0.6576
 5208TIP3    H137115   4.578   2.536  11.728 -0.4685 -1.0256  0.0123
 5208TIP3    H237116   4.445   2.569  11.664  0.4055  0.3935 -1.1632
 5209TIP3   OH237117   0.724   2.922   2.348  0.1093 -0.2489  0.4216
 5209TIP3    H137118   0.788   2.992   2.365 -0.1562 -0.3323  1.8213
 5209TIP3    H237119   0.727   2.911   2.253  2.8137 -0.8542  0.5004
 5210TIP3   OH237120   6.015   1.462   2.839  0.6342  0.3471 -0.1164
 5210TIP3    H137121   5.979   1.374   2.843 -3.3838  1.7486 -0.7980
 5210TIP3    H237122   5.997   1.500   2.925  1.7466  0.7565 -0.0365
 5211TIP3   OH237123   1.305   1.591  14.576  0.4809  0.1072 -0.0584
 5211TIP3    H137124   1.328   1.520  14.515 -0.2583  1.3600 -1.8798
 5211TIP3    H237125   1.222   1.626  14.542  0.2060  1.0778  1.5049
 5212TIP3   OH237126   3.135   4.082  13.288 -0.1856 -0.1429 -0.1123
 5212TIP3    H137127   3.106   4.117  13.372  1.3958 -0.6652  0.6854
 5212TIP3    H237128   3.167   3.994  13.308 -0.5359 -0.5981 -1.4146
 5213TIP3   OH237129   1.396   3.392   1.114  0.0740 -0.0863  0.2208
 5213TIP3    H137130   1.364   3.317   1.064 -1.8984  1.7516 -1.4487
 5213TIP3    H237131   1.366   3.469   1.065  1.8885  1.8363  1.9100
 5214TIP3   OH237132   0.306   1.210   3.173 -0.7065  0.1132 -0.2813
 5214TIP3    H137133   0.347   1.290   3.140 -2.0330  0.6917 -0.5825
 5214TIP3    H237134   0.212   1.227   3.167 -1.0268 -1.7479 -1.0092
 5215TIP3   OH237135   3.738   5.390  14.758 -0.4324  0.6575  0.0197
 5215TIP3    H137136   3.651   5.386  14.718  0.3397 -1.0521 -1.6289
 5215TIP3    H237137   3.795   5.421  14.688  0.6996 -0.7399  0.2788
 5216TIP3   OH237138   0.218   1.465   2.495  0.0710  0.1584 -0.6299
 5216TIP3    H137139   0.252   1.529   2.431 -0.0789  0.9960  0.1087
 5216TIP3    H237140   0.297   1.430   2.537  0.1858 -0.6203 -1.4759
 5217TIP3   OH237141   3.963   6.840  16.039  0.0837 -0.2087 -0.0694
 5217TIP3    H137142   3.884   6.831  16.091  0.1948 -0.1775  0.1055
 5217TIP3    H237143   3.940   6.803  15.954 -0.5245  0.9556 -0.4374
 5218TIP3   OH237144   2.020   5.497  12.105  0.4472  0.3069  0.0853
 5218TIP3    H137145   2.040   5.406  12.083  1.4840  0.4704  0.3147
 5218TIP3    H237146   2.024   5.543  12.022 -0.3425  0.1001 -0.0707
 5219TIP3   OH237147   2.745   1.107  16.441 -0.0839 -0.7316  0.1600
 5219TIP3    H137148   2.723   1.199  16.455  1.4564  0.0799 -2.0671
 5219TIP3    H237149   2.668   1.069  16.400 -0.2619 -0.0631 -0.1321
 5220TIP3   OH237150   5.896   5.323  14.062 -0.1944 -0.2427  0.4314
 5220TIP3    H137151   5.805   5.321  14.090 -0.7535  0.5030 -1.2173
 5220TIP3    H237152   5.912   5.234  14.028 -0.7628  0.0331 -0.5865
 5221TIP3   OH237153   4.506   4.498   0.965  0.1532  0.2666  0.2707
 5221TIP3    H137154   4.469   4.433   0.905  3.0414 -1.9547  0.6725
 5221TIP3    H237155   4.554   4.559   0.909  1.0153 -0.5136  0.1466
 5222TIP3   OH237156   5.197   5.608   0.439 -0.0058  0.7712 -0.1494
 5222TIP3    H137157   5.123   5.591   0.498  0.1119  0.6026 -0.0486
 5222TIP3    H237158   5.157   5.643   0.360 -0.6699 -3.1655 -1.7849
 5223TIP3   OH237159   0.336   4.017   6.226  0.3283  0.2794  0.1493
 5223TIP3    H137160   0.422   3.997   6.188  0.2894  0.0107  0.1985
 5223TIP3    H237161   0.316   3.941   6.282  0.9649  1.2468  1.7436
 5224TIP3   OH237162   4.169   0.989   5.919 -0.1333  0.5248  0.6795
 5224TIP3    H137163   4.195   1.002   6.010 -0.2390  1.0376  0.6361
 5224TIP3    H237164   4.109   1.061   5.900 -0.3619  0.2385  0.3019
 5225TIP3   OH237165   4.613   0.290   4.526 -0.0754  0.4339 -0.3165
 5225TIP3    H137166   4.669   0.232   4.475  0.4577 -0.6809  1.4522
 5225TIP3    H237167   4.587   0.358   4.464  2.5408  0.5412 -1.4489
 5226TIP3   OH237168   1.025   4.359   5.730  0.4322  0.0316 -0.4396
 5226TIP3    H137169   1.027   4.274   5.685  1.0170 -1.1658  1.7316
 5226TIP3    H237170   1.117   4.381   5.743  0.2900  1.1142 -1.0909
 5227TIP3   OH237171   6.435   3.032   0.047  0.1711  0.2246  0.9223
 5227TIP3    H137172   6.460   3.041   0.139  1.6068  0.2511  0.5512
 5227TIP3    H237173   6.518   3.033  -0.001 -0.5895  0.8922 -0.4384
 5228TIP3   OH237174   1.302   5.536  12.758  0.2690  0.5409  0.4964
 5228TIP3    H137175   1.326   5.593  12.831 -0.4454  0.6187  0.6811
 5228TIP3    H237176   1.385   5.510  12.719  0.6002  2.1671  0.0562
 5229TIP3   OH237177   0.333   2.972   1.251 -0.5850  0.2929 -0.2868
 5229TIP3    H137178   0.317   2.968   1.345 -2.4923 -2.2441 -0.6029
 5229TIP3    H237179   0.404   2.908   1.237 -1.1612 -0.2702 -0.6839
 5230TIP3   OH237180   4.982   1.577  14.632 -0.2249 -0.5345 -0.5863
 5230TIP3    H137181   5.007   1.654  14.581  0.8818 -0.5675 -0.1275
 5230TIP3    H237182   4.914   1.608  14.692  0.1999  0.0834 -0.4204
 5231TIP3   OH237183   3.058   4.159  14.175  0.6338 -0.6765 -0.1611
 5231TIP3    H137184   3.062   4.175  14.080 -1.2079  1.8649  0.1106
 5231TIP3    H237185   3.054   4.246  14.214 -1.2992 -1.6932  2.1002
 5232TIP3   OH237186   6.316   1.421  10.440  0.3866 -0.5031  0.1137
 5232TIP3    H137187   6.353   1.336  10.417 -0.5668 -0.4667 -1.6947
 5232TIP3    H237188   6.369   1.450  10.514  1.1703 -2.3505  0.3426
 5233TIP3   OH237189   6.771   4.016   5.178 -0.1870 -0.0524  0.0284
 5233TIP3    H137190   6.786   3.974   5.093  0.6666  0.8611 -0.2978
 5233TIP3    H237191   6.751   4.108   5.156  0.2008  0.2285  0.8122
 5234TIP3   OH237192   2.805   0.654   5.281 -0.2686  0.2351 -0.4330
 5234TIP3    H137193   2.881   0.612   5.321 -0.6591 -0.8510 -0.7994
 5234TIP3    H237194   2.835   0.679   5.193 -0.7824 -1.6594 -1.1813
 5235TIP3   OH237195   1.634   3.749  12.343 -0.4297 -0.6815  0.0572
 5235TIP3    H137196   1.606   3.677  12.286 -1.2198 -0.1037 -0.3099
 5235TIP3    H237197   1.568   3.753  12.411 -0.5948 -0.0773 -0.1312
 5236TIP3   OH237198   0.438   4.583   0.457  0.8158  0.1742 -0.4483
 5236TIP3    H137199   0.361   4.618   0.502 -0.1585  1.3018 -2.8250
 5236TIP3    H237200   0.481   4.660   0.420  1.8437 -0.6637 -1.0440
 5237TIP3   OH237201   3.563   5.270   6.681  0.2160  0.6187  0.4567
 5237TIP3    H137202   3.503   5.294   6.611 -1.4506 -0.0848  1.5839
 5237TIP3    H237203   3.548   5.177   6.695  0.8568  0.6432  1.4149
 5238TIP3   OH237204   2.751   2.048   5.124 -0.1544  0.2669  0.2301
 5238TIP3    H137205   2.801   2.129   5.112 -0.5456  0.3069 -1.4576
 5238TIP3    H237206   2.726   2.047   5.216  0.8862  1.4568  0.5412
 5239TIP3   OH237207   4.403   5.649   3.612  0.3990 -0.5286 -0.1363
 5239TIP3    H137208   4.423   5.660   3.519 -0.4073  1.1344 -0.1414
 5239TIP3    H237209   4.482   5.678   3.657  0.7073 -1.1207 -0.2789
 5240TIP3   OH237210   6.524   6.430   5.512 -0.0531  0.2022 -0.2939
 5240TIP3    H137211   6.551   6.389   5.430 -0.2590  1.0890 -0.8292
 5240TIP3    H237212   6.567   6.379   5.580 -0.1077 -0.7273 -0.9361
 5241TIP3   OH237213   5.135   2.243  14.126 -0.7988  0.1015 -0.0930
 5241TIP3    H137214   5.154   2.316  14.186 -0.1061 -0.5981  0.5560
 5241TIP3    H237215   5.039   2.240  14.122 -0.8393  1.4488 -0.6419
 5242TIP3   OH237216   4.113   0.632  11.024 -0.9228  0.1409 -1.0837
 5242TIP3    H137217   4.157   0.571  10.965 -0.1717  0.1399 -0.5397
 5242TIP3    H237218   4.094   0.708  10.969 -0.9692 -0.1813 -1.5244
 5243TIP3   OH237219   0.599   6.505  13.037  0.2690 -0.0311 -0.0840
 5243TIP3    H137220   0.687   6.535  13.018  0.2545  0.3992  0.5119
 5243TIP3    H237221   0.575   6.548  13.119  0.4351 -2.0501  1.0876
 5244TIP3   OH237222   2.900   3.262  13.218 -0.0587 -0.7268  0.0487
 5244TIP3    H137223   2.929   3.238  13.306  2.1813 -0.8788 -0.6793
 5244TIP3    H237224   2.941   3.198  13.160  0.3474  0.6927 -1.3130
 5245TIP3   OH237225   2.725   0.501  12.812 -0.0933  0.2118 -0.3692
 5245TIP3    H137226   2.797   0.562  12.794  0.0239  0.0690 -0.3842
 5245TIP3    H237227   2.649   0.557  12.825  0.3137  0.4476  1.1091
 5246TIP3   OH237228   3.201   5.966   3.084 -0.3033 -0.0785  0.5138
 5246TIP3    H137229   3.152   5.906   3.140 -0.8235 -1.1916 -1.0901
 5246TIP3    H237230   3.281   5.918   3.062 -0.6537 -0.1509 -0.6531
 5247TIP3   OH237231   5.380   6.763   5.519 -0.0174 -0.1902  0.1730
 5247TIP3    H137232   5.430   6.842   5.498  0.1170  0.2989  2.1653
 5247TIP3    H237233   5.312   6.760   5.452  1.5758  0.0971 -1.5356
 5248TIP3   OH237234   2.305   1.665   3.783  0.2541 -0.0368  0.0090
 5248TIP3    H137235   2.353   1.588   3.752 -0.5588 -1.1493  1.4099
 5248TIP3    H237236   2.264   1.637   3.864  1.1032  2.3336  1.3444
 5249TIP3   OH237237   6.386   2.277   2.819  0.0087  0.6718  0.2986
 5249TIP3    H137238   6.300   2.278   2.860  0.3138  1.2007  0.9324
 5249TIP3    H237239   6.440   2.334   2.874  0.4014  1.4608 -0.8668
 5250TIP3   OH237240   2.505   2.624  15.894 -0.1756  0.4094 -0.0020
 5250TIP3    H137241   2.524   2.695  15.954 -0.4805  0.0752  0.4947
 5250TIP3    H237242   2.590   2.599  15.858  0.0760  0.2613  0.6806
 5251TIP3   OH237243   1.406   1.440   3.974 -0.0664  0.0428 -0.0507
 5251TIP3    H137244   1.372   1.365   3.926 -3.0629  0.2728  1.5011
 5251TIP3    H237245   1.381   1.516   3.922 -0.1716  0.1228  0.1156
 5252TIP3   OH237246   0.378   6.165   0.748  0.0013  0.2392 -0.3584
 5252TIP3    H137247   0.461   6.160   0.796  0.0906 -2.8176 -0.6025
 5252TIP3    H237248   0.404   6.166   0.656 -0.2132  0.3041 -0.4195
 5253TIP3   OH237249   6.640   6.639   1.003  0.4789 -0.0869 -0.5208
 5253TIP3    H137250   6.599   6.553   1.008  0.9497 -0.2958 -0.1290
 5253TIP3    H237251   6.588   6.694   1.062 -0.5750  0.2320 -1.6932
 5254TIP3   OH237252   4.320   0.892  13.187  0.4288  0.9871 -0.1009
 5254TIP3    H137253   4.229   0.896  13.218  0.2938 -1.3700 -0.0435
 5254TIP3    H237254   4.371   0.872  13.264  0.5737 -0.9252 -0.6585
 5255TIP3   OH237255   0.866   0.780   3.598  0.4321  0.2678 -0.2016
 5255TIP3    H137256   0.829   0.732   3.524 -0.4863  1.4108 -0.5126
 5255TIP3    H237257   0.874   0.870   3.566  1.5653  0.4622  0.5585
 5256TIP3   OH237258   4.650   6.459  13.446  0.9009 -0.4202  0.2112
 5256TIP3    H137259   4.739   6.494  13.438 -0.1059  2.1055 -1.2768
 5256TIP3    H237260   4.642   6.433  13.537  2.4046  1.6678  1.0212
 5257TIP3   OH237261   4.555   1.084   5.724  0.4399  0.8080 -0.6934
 5257TIP3    H137262   4.598   1.027   5.787  0.3258 -1.9946 -2.9658
 5257TIP3    H237263   4.493   1.135   5.776  3.0799  1.6183  1.9750
 5258TIP3   OH237264   2.271   2.358  11.047 -0.2084 -0.8457  0.0329
 5258TIP3    H137265   2.312   2.274  11.067 -1.7966 -1.1621  2.3221
 5258TIP3    H237266   2.291   2.414  11.122 -2.0625 -0.3412  0.2170
 5259TIP3   OH237267   1.405   3.621  14.264 -0.0060 -0.4193 -0.4212
 5259TIP3    H137268   1.403   3.531  14.231  0.7697 -0.0951 -1.3780
 5259TIP3    H237269   1.316   3.635  14.298 -0.3312 -1.3181 -0.8554
 5260TIP3   OH237270   6.522   5.493  11.650 -0.3406  0.1388 -0.8006
 5260TIP3    H137271   6.437   5.522  11.616  0.0593  0.4643 -1.5339
 5260TIP3    H237272   6.568   5.574  11.671 -0.0575 -0.0288 -0.7743
 5261TIP3   OH237273   1.598   6.030   5.697 -0.5043 -0.2176 -0.7268
 5261TIP3    H137274   1.603   6.094   5.769 -1.6374  0.0619 -0.8710
 5261TIP3    H237275   1.628   5.948   5.736  0.5349  0.3039 -0.4106
 5262TIP3   OH237276   6.175   5.629   3.513  0.2810  0.0653  0.0296
 5262TIP3    H137277   6.221   5.711   3.494 -0.4294  1.1053  2.5124
 5262TIP3    H237278   6.113   5.619   3.440  0.2467  1.8502 -0.2261
 5263TIP3   OH237279   2.835   0.303  12.999  0.0196  0.0138  0.6265
 5263TIP3    H137280   2.892   0.249  12.944 -2.6280 -0.7999 -1.5178
 5263TIP3    H237281   2.825   0.384  12.950 -0.6746  0.1433  0.9727
 5264TIP3   OH237282   0.940   5.677  14.816  0.3456  0.4891 -0.4615
 5264TIP3    H137283   0.923   5.621  14.740  0.5409  0.1743 -0.2755
 5264TIP3    H237284   1.028   5.710  14.802  1.8917 -2.4550  1.3771
 5265TIP3   OH237285   4.836   6.544   2.010  0.6158 -0.0956 -0.5595
 5265TIP3    H137286   4.905   6.591   2.058  0.9512  0.6585 -1.7254
 5265TIP3    H237287   4.756   6.563   2.058  1.0822 -0.1643  0.2527
 5266TIP3   OH237288   5.679   3.555   0.509  0.1181 -0.0159  0.1810
 5266TIP3    H137289   5.603   3.613   0.515  0.6174  0.6127  0.5410
 5266TIP3    H237290   5.654   3.490   0.443  0.1209  1.5132 -1.4057
 5267TIP3   OH237291   0.112   0.625  11.897  0.0375  0.0981  0.4301
 5267TIP3    H137292   0.111   0.560  11.968 -0.3543  0.5805  0.8842
 5267TIP3    H237293   0.185   0.600  11.842 -1.6085 -2.2644 -0.8623
 5268TIP3   OH237294   6.177   0.482   3.439  0.2168 -0.2632 -0.9760
 5268TIP3    H137295   6.110   0.415   3.454  0.7724 -0.9905 -1.6274
 5268TIP3    H237296   6.247   0.460   3.500  0.3254 -0.1759 -1.0688
 5269TIP3   OH237297   3.873   0.791   3.996 -0.0529  0.1799  0.1758
 5269TIP3    H137298   3.940   0.798   3.928  0.2114  0.3053  0.4482
 5269TIP3    H237299   3.794   0.763   3.949  0.4209 -0.8844  0.0018
 5270TIP3   OH237300   1.413   5.674   4.681  0.1905 -0.3738  0.1308
 5270TIP3    H137301   1.422   5.734   4.755  0.2834  0.6102 -0.6519
 5270TIP3    H237302   1.338   5.708   4.631 -0.2387 -1.3661  0.0795
 5271TIP3   OH237303   1.541   4.635   6.322 -0.2517 -0.3412 -0.2302
 5271TIP3    H137304   1.502   4.694   6.258  1.3689  1.0369 -0.0175
 5271TIP3    H237305   1.600   4.580   6.272  0.8736  0.6093  0.0231
 5272TIP3   OH237306   0.083   5.422   4.813  0.4142  0.9910  0.4125
 5272TIP3    H137307   0.139   5.440   4.889  2.4134 -1.7185 -0.3029
 5272TIP3    H237308   0.140   5.435   4.737 -0.6781  0.6367 -0.4934
 5273TIP3   OH237309   4.570   2.968   0.617  0.0526 -0.5864  0.2087
 5273TIP3    H137310   4.585   2.916   0.696 -0.3193  0.2418  0.8326
 5273TIP3    H237311   4.509   3.037   0.644  1.0274  0.5691 -0.4261
 5274TIP3   OH237312   0.693   5.396  14.897 -0.1712  0.0988 -0.0668
 5274TIP3    H137313   0.631   5.456  14.857 -0.1237  0.6478  0.6677
 5274TIP3    H237314   0.640   5.342  14.955  0.0061  0.4623  0.4407
 5275TIP3   OH237315   1.304   0.928   3.134  0.1381  0.4600  0.0447
 5275TIP3    H137316   1.222   0.963   3.170 -0.1955  1.1838 -1.3258
 5275TIP3    H237317   1.369   0.943   3.203 -0.2619  2.6565  0.0387
 5276TIP3   OH237318   3.247   3.345  14.742 -0.2461  0.1709 -0.0174
 5276TIP3    H137319   3.217   3.292  14.816 -0.9139 -1.2584 -1.2566
 5276TIP3    H237320   3.342   3.354  14.756 -0.4059  0.1799  1.1563
 5277TIP3   OH237321   6.706   1.020   3.514 -0.2370  0.1095 -1.1495
 5277TIP3    H137322   6.797   1.041   3.492 -0.9469  2.8152 -1.9640
 5277TIP3    H237323   6.670   0.983   3.434 -0.4368  1.2919 -1.6244
 5278TIP3   OH237324   0.416   0.608  14.354 -0.4373 -0.1909 -0.3870
 5278TIP3    H137325   0.444   0.647  14.271 -2.2696 -0.5072 -1.2044
 5278TIP3    H237326   0.330   0.570  14.335 -1.8178  1.3873  2.1520
 5279TIP3   OH237327   2.162   1.222   5.240 -0.2488  0.7113 -0.4331
 5279TIP3    H137328   2.229   1.155   5.226 -0.5587  0.1653  0.6203
 5279TIP3    H237329   2.081   1.173   5.250 -0.4957  1.2436  0.2649
 5280TIP3   OH237330   6.006   1.035   2.495  0.6118  0.1478  0.2529
 5280TIP3    H137331   6.044   0.965   2.442  0.9176 -0.6815  1.5212
 5280TIP3    H237332   6.054   1.031   2.578 -0.7124  0.5707  1.0721
 5281TIP3   OH237333   4.114   6.185  14.471 -0.4135  0.3052 -0.2449
 5281TIP3    H137334   4.086   6.274  14.493 -0.7070  0.0942  0.2536
 5281TIP3    H237335   4.119   6.185  14.375 -0.4596  0.8437 -0.2521
 5282TIP3   OH237336   4.792   2.137   5.419  0.5137 -0.0638 -0.0620
 5282TIP3    H137337   4.857   2.107   5.483  1.4034 -0.7336 -1.2163
 5282TIP3    H237338   4.827   2.220   5.387 -0.4831  0.8155  1.0697
 5283TIP3   OH237339   6.512   2.338  10.742 -0.1330  0.7436 -0.1098
 5283TIP3    H137340   6.419   2.324  10.726  0.0906 -2.4077  0.7367
 5283TIP3    H237341   6.554   2.323  10.657 -0.2393  0.1269 -0.0543
 5284TIP3   OH237342   1.344   4.813   2.710  0.0470  0.0199  0.7232
 5284TIP3    H137343   1.384   4.763   2.639 -1.0457 -0.3817  0.3633
 5284TIP3    H237344   1.338   4.902   2.677 -0.6678 -0.2106  0.2036
 5285TIP3   OH237345   4.535   4.697   6.478 -0.4647  0.4116  0.1183
 5285TIP3    H137346   4.483   4.692   6.398  0.6410 -0.6516 -0.5781
 5285TIP3    H237347   4.561   4.606   6.494 -1.7516  0.3817  2.4514
 5286TIP3   OH237348   1.402   3.328   1.376 -0.0343 -0.0708  0.2702
 5286TIP3    H137349   1.386   3.346   1.283 -1.5698  2.7651  0.9856
 5286TIP3    H237350   1.326   3.365   1.421  1.7172  0.6580  2.8182
 5287TIP3   OH237351   2.602   5.707  12.217  0.2542 -0.0286  0.3779
 5287TIP3    H137352   2.630   5.639  12.279  0.0122  1.1133  1.7780
 5287TIP3    H237353   2.507   5.702  12.218  0.2529 -0.7587 -0.8104
 5288TIP3   OH237354   5.633   1.162  13.491 -0.1987 -0.4314  0.2788
 5288TIP3    H137355   5.694   1.116  13.434  0.6150  1.2927 -0.3066
 5288TIP3    H237356   5.546   1.138  13.459  0.2347  0.4038 -1.6564
 5289TIP3   OH237357   0.393   4.094  15.029 -0.1922 -0.0453 -0.2283
 5289TIP3    H137358   0.310   4.123  14.991 -0.0717  0.0061 -0.4554
 5289TIP3    H237359   0.399   4.141  15.113 -0.2873  0.1216 -0.3139
 5290TIP3   OH237360   4.708   0.607  10.696  0.2871  0.4605 -0.2985
 5290TIP3    H137361   4.724   0.588  10.604 -2.5556 -1.1012 -0.5839
 5290TIP3    H237362   4.760   0.541  10.743  1.5706  1.1199 -0.7616
 5291TIP3   OH237363   3.778   2.951   1.520 -0.2916  0.3335  0.2956
 5291TIP3    H137364   3.722   2.991   1.586  1.0431  1.1996  0.9487
 5291TIP3    H237365   3.783   2.859   1.545 -0.2449  0.5458  1.0915
 5292TIP3   OH237366   3.619   2.943  12.406  0.4944  0.4845  0.0282
 5292TIP3    H137367   3.537   2.894  12.400  0.0995  1.1559 -0.2385
 5292TIP3    H237368   3.680   2.896  12.349 -0.1086  0.7419 -0.8505
 5293TIP3   OH237369   4.456   3.501   2.408  0.4397 -0.0576  0.0993
 5293TIP3    H137370   4.529   3.439   2.413  1.2212  0.7710 -0.7336
 5293TIP3    H237371   4.385   3.452   2.366  0.2340 -1.0967  1.5585
 5294TIP3   OH237372   0.116   0.499  15.057  0.1308  0.0110  0.4013
 5294TIP3    H137373   0.108   0.512  15.152  1.4755  0.4141  0.4744
 5294TIP3    H237374   0.079   0.412  15.042  0.9360 -0.5517  1.4758
 5295TIP3   OH237375   2.756   4.881  13.963 -0.0032 -0.1572 -0.0467
 5295TIP3    H137376   2.826   4.817  13.949 -0.7227 -0.6032 -1.7509
 5295TIP3    H237377   2.736   4.873  14.057  0.5955 -1.7164 -0.0134
 5296TIP3   OH237378   0.412   4.303   4.085  0.3729  0.1900  0.5136
 5296TIP3    H137379   0.324   4.340   4.091  0.5868  0.6520  0.8144
 5296TIP3    H237380   0.428   4.294   3.991 -0.0842 -0.1090  0.4645
 5297TIP3   OH237381   6.013   1.934  11.670 -0.0486 -0.0539 -0.2014
 5297TIP3    H137382   6.084   1.870  11.665 -0.4909 -0.5268 -0.5998
 5297TIP3    H237383   6.007   1.956  11.762  0.5911 -0.0398 -0.1591
 5298TIP3   OH237384   6.267   2.767   0.453 -0.3045  0.4940 -0.2193
 5298TIP3    H137385   6.180   2.803   0.474 -1.1625 -0.9476 -1.0930
 5298TIP3    H237386   6.255   2.672   0.458  0.8456  0.2359 -1.7282
 5299TIP3   OH237387   6.496   4.383  11.995  0.9876 -0.3465 -0.0974
 5299TIP3    H137388   6.418   4.358  12.044  2.2609  0.0747  2.3049
 5299TIP3    H237389   6.538   4.450  12.049  3.3637 -1.0427 -0.9511
 5300TIP3   OH237390   3.882   0.905  12.630 -0.5267  0.3849  0.4778
 5300TIP3    H137391   3.850   0.818  12.609  0.9833 -0.5014  1.6684
 5300TIP3    H237392   3.967   0.912  12.587 -0.7202  1.3737  0.2087
 5301TIP3   OH237393   0.477   2.448   2.435 -0.0737 -0.7732  0.1614
 5301TIP3    H137394   0.535   2.477   2.506 -1.0964 -1.1787  1.1955
 5301TIP3    H237395   0.520   2.370   2.400  0.9197 -0.0399 -0.3282
 5302TIP3   OH237396   0.135   6.334   0.619 -0.0702  0.1962 -0.2076
 5302TIP3    H137397   0.101   6.327   0.709  1.8479  2.3703  0.7908
 5302TIP3    H237398   0.222   6.295   0.624 -0.0567  0.0815 -1.2195
 5303TIP3   OH237399   5.174   3.109  13.926 -0.5603  0.4715  0.0142
 5303TIP3    H137400   5.100   3.170  13.922  0.8909  2.5077  1.7867
 5303TIP3    H237401   5.249   3.160  13.894  0.5958 -0.6139  0.8907
 5304TIP3   OH237402   4.913   1.162  10.819 -0.2791  0.5732  0.1506
 5304TIP3    H137403   4.862   1.081  10.819  0.3694  0.1631  0.4847
 5304TIP3    H237404   4.866   1.219  10.757  0.3038 -0.7144 -1.5523
 5305TIP3   OH237405   5.340   1.021   3.696 -0.3437  0.1646 -0.3098
 5305TIP3    H137406   5.370   1.075   3.622 -0.6769 -1.0464 -1.3535
 5305TIP3    H237407   5.370   0.933   3.675 -3.0889 -0.7935 -0.5323
 5306TIP3   OH237408   3.902   6.312  14.562  0.1762 -0.3672  0.1822
 5306TIP3    H137409   3.941   6.225  14.572  1.4328  0.1638 -0.0318
 5306TIP3    H237410   3.912   6.354  14.647  2.0329  0.5473 -0.4442
 5307TIP3   OH237411   6.102   3.953  10.558 -0.2296 -0.2840  0.1696
 5307TIP3    H137412   6.143   3.972  10.642  1.8992 -2.1185 -0.3462
 5307TIP3    H237413   6.135   4.020  10.498  0.6610 -0.6998  0.1727
 5308TIP3   OH237414   6.292   5.447  14.054 -0.4674  0.1102  0.1502
 5308TIP3    H137415   6.320   5.537  14.075 -3.3648  1.5478 -1.4554
 5308TIP3    H237416   6.214   5.434  14.108 -1.0382 -0.7636 -0.8584
 5309TIP3   OH237417   6.466   5.482   6.151  0.0673  0.4880 -0.1949
 5309TIP3    H137418   6.431   5.421   6.215 -0.3460  0.2384 -0.6520
 5309TIP3    H237419   6.526   5.538   6.201  1.3203 -0.9870  0.0176
 5310TIP3   OH237420   5.272   6.695  10.362 -0.0028  0.0285 -0.5976
 5310TIP3    H137421   5.289   6.788  10.347  1.0325  0.1135  0.8225
 5310TIP3    H237422   5.228   6.665  10.283 -0.3971  1.7346 -1.0617
 5311TIP3   OH237423   2.371   2.344   5.680  0.0484  0.2258  0.5098
 5311TIP3    H137424   2.449   2.306   5.640  1.1220  1.4904  1.3157
 5311TIP3    H237425   2.324   2.384   5.607  1.7207  2.0584  0.3586
 5312TIP3   OH237426   5.488   4.658   5.685 -0.2490 -0.1892  0.4881
 5312TIP3    H137427   5.529   4.683   5.769 -0.4675  2.9120 -0.2229
 5312TIP3    H237428   5.544   4.697   5.619 -1.1273 -1.0039 -0.7718
 5313TIP3   OH237429   3.131   0.868   1.113  0.3911  0.6860 -0.0934
 5313TIP3    H137430   3.134   0.963   1.104  2.7971  0.6690 -0.1775
 5313TIP3    H237431   3.202   0.836   1.057 -1.6398 -1.3496 -1.7039
 5314TIP3   OH237432   5.659   0.820   4.988 -0.0643 -0.3754 -0.0483
 5314TIP3    H137433   5.665   0.884   4.917  0.7834  0.6092  0.8704
 5314TIP3    H237434   5.733   0.761   4.973  0.0849 -0.1981 -0.0200
 5315TIP3   OH237435   5.848   6.557  15.601  0.1908  0.0618  0.1444
 5315TIP3    H137436   5.775   6.530  15.545 -0.1763  0.4354  0.4299
 5315TIP3    H237437   5.926   6.521  15.559 -0.2729 -1.4596  0.5197
 5316TIP3   OH237438   2.123   0.724  13.081 -0.1848 -0.0060 -0.3139
 5316TIP3    H137439   2.059   0.682  13.138  0.5686 -2.6150 -1.2578
 5316TIP3    H237440   2.073   0.792  13.036 -1.7488 -0.5312  0.5388
 5317TIP3   OH237441   1.645   3.524  14.841  0.1525 -0.7325  0.1324
 5317TIP3    H137442   1.551   3.524  14.825  0.3722  0.1722 -1.3889
 5317TIP3    H237443   1.663   3.612  14.875  0.7284 -0.0171 -1.8374
 5318TIP3   OH237444   4.536   3.640   1.946  0.1552  0.0044  0.4057
 5318TIP3    H137445   4.621   3.657   1.985 -0.6744  1.7881  1.5391
 5318TIP3    H237446   4.473   3.650   2.018 -1.3262  2.2411 -1.0689
 5319TIP3   OH237447   5.822   2.550  15.330 -0.7811  0.2936  0.0186
 5319TIP3    H137448   5.730   2.575  15.345 -0.9263 -1.2870  2.3670
 5319TIP3    H237449   5.872   2.622  15.368 -1.1445 -0.3420  1.8327
 5320TIP3   OH237450   5.359   0.661   5.604 -0.6666 -0.1397  0.4581
 5320TIP3    H137451   5.381   0.576   5.642 -1.6060  0.1297  1.6385
 5320TIP3    H237452   5.347   0.719   5.679 -1.1820  0.7544 -0.2977
 5321TIP3   OH237453   5.526   5.805  13.980 -0.0041 -0.0264  0.0501
 5321TIP3    H137454   5.433   5.827  13.987 -0.1810 -0.7950  0.2756
 5321TIP3    H237455   5.571   5.880  14.017 -0.5707  0.0310  0.6553
 5322TIP3   OH237456   3.413   5.091  16.611 -0.2347 -0.0623 -0.5432
 5322TIP3    H137457   3.380   5.014  16.565  0.5418 -0.4065 -0.5407
 5322TIP3    H237458   3.508   5.088  16.597 -0.0752  0.2828  0.3802
 5323TIP3   OH237459   3.776   3.883  16.133 -0.2090  0.2032 -0.2378
 5323TIP3    H137460   3.726   3.890  16.214  1.6635 -0.1969  1.0453
 5323TIP3    H237461   3.751   3.959  16.082 -0.7800  0.9700  1.1271
 5324TIP3   OH237462   1.407   2.091   2.845  0.1675  0.1828  0.1592
 5324TIP3    H137463   1.337   2.156   2.841 -0.0086  0.0153  0.5021
 5324TIP3    H237464   1.475   2.126   2.787 -0.5887 -0.1214 -0.9437
 5325TIP3   OH237465   4.923   5.212  12.753  0.4557 -0.1158  0.5360
 5325TIP3    H137466   4.973   5.131  12.744  0.2000 -0.1891 -0.3656
 5325TIP3    H237467   4.858   5.194  12.821 -1.2069 -1.5240 -1.3290
 5326TIP3   OH237468   1.141   4.885  14.295 -0.3776  0.1563  0.9192
 5326TIP3    H137469   1.046   4.887  14.306 -0.4971 -1.1897  0.3773
 5326TIP3    H237470   1.162   4.792  14.284  1.1743  0.2867  2.3479
 5327TIP3   OH237471   3.128   2.126  11.182  0.9285  0.0993 -0.4256
 5327TIP3    H137472   3.089   2.202  11.227 -0.7427 -1.0380  0.1306
 5327TIP3    H237473   3.193   2.164  11.123  3.1182  1.7225  2.7275
 5328TIP3   OH237474   2.096   0.104  15.973 -0.1661  0.0222 -0.1906
 5328TIP3    H137475   2.012   0.093  16.018  0.7104 -2.1747  1.0599
 5328TIP3    H237476   2.156   0.132  16.042  0.2454  1.1845 -0.9956
 5329TIP3   OH237477   6.186   2.194  15.268 -0.3514  0.1510  0.4634
 5329TIP3    H137478   6.239   2.247  15.209 -1.2839  1.0238  0.3848
 5329TIP3    H237479   6.102   2.240  15.273 -1.8111 -2.1228 -0.8880
 5330TIP3   OH237480   5.145   2.718   6.097  0.3210 -0.1262 -0.1803
 5330TIP3    H137481   5.216   2.655   6.080  0.6182  0.6281 -1.9435
 5330TIP3    H237482   5.130   2.761   6.012  0.2022  2.2569  0.9674
 5331TIP3   OH237483   5.207   0.929   3.931 -0.2701  0.2945  0.2394
 5331TIP3    H137484   5.272   0.949   3.863 -1.6591  1.4885 -0.7875
 5331TIP3    H237485   5.259   0.912   4.009  1.2886  1.4254 -0.4950
 5332TIP3   OH237486   2.503   0.496  16.710 -0.0075  0.2514 -0.0790
 5332TIP3    H137487   2.515   0.433  16.639 -1.0372  0.7874 -0.7506
 5332TIP3    H237488   2.591   0.507  16.748  0.3172 -1.0092 -0.4218
 5333TIP3   OH237489   1.221   6.080  16.852  0.2225  0.3941  0.2548
 5333TIP3    H137490   1.129   6.056  16.858  0.3519 -0.8691 -1.7701
 5333TIP3    H237491   1.233   6.149  16.917 -2.1300  0.5354  0.6024
 5334TIP3   OH237492   2.471   3.373  12.570 -0.3964  0.0670  0.3739
 5334TIP3    H137493   2.395   3.315  12.572 -0.6314  0.3585  0.0291
 5334TIP3    H237494   2.449   3.439  12.505  0.3205 -0.0786 -0.0302
 5335TIP3   OH237495   4.018   0.943   1.635 -0.3972  0.0003  0.5268
 5335TIP3    H137496   4.110   0.926   1.653 -0.4466 -2.4036 -1.0315
 5335TIP3    H237497   4.017   1.025   1.587  1.1080 -0.6736 -0.7293
 5336TIP3   OH237498   0.617   6.801   0.348  0.1333 -0.2636  0.0233
 5336TIP3    H137499   0.641   6.893   0.339 -1.4225  0.3215  1.4709
 5336TIP3    H237500   0.575   6.779   0.265  0.3418  0.3700 -0.2599
 5337TIP3   OH237501   2.785   4.672   4.974  0.2181 -0.0951  0.3440
 5337TIP3    H137502   2.814   4.585   5.001  0.0167 -0.2402  0.0878
 5337TIP3    H237503   2.779   4.722   5.057 -2.2914 -1.0964  0.8538
 5338TIP3   OH237504   1.713   5.447   1.979 -0.7148  0.1686  0.2221
 5338TIP3    H137505   1.734   5.450   2.072  0.6902 -1.3297  0.0082
 5338TIP3    H237506   1.797   5.467   1.936 -0.4324 -2.6288 -0.6907
 5339TIP3   OH237507   1.165   3.371  11.024 -0.0675 -0.4001 -0.5903
 5339TIP3    H137508   1.253   3.355  11.058  1.0472  2.1721 -1.9304
 5339TIP3    H237509   1.110   3.376  11.102  1.3216 -0.2770  0.4355
 5340TIP3   OH237510   3.725   2.187  11.655 -0.0798 -0.3403 -1.1155
 5340TIP3    H137511   3.776   2.124  11.705 -1.0456 -0.7086 -0.5747
 5340TIP3    H237512   3.646   2.139  11.628 -1.1854  0.8080 -0.0811
 5341TIP3   OH237513   5.149   3.438  15.954  0.0475  0.0062 -0.1208
 5341TIP3    H137514   5.157   3.442  15.858  0.3142  1.1524 -0.0712
 5341TIP3    H237515   5.063   3.476  15.972  0.1413  0.1083  0.1107
 5342TIP3   OH237516   4.100   3.751   4.958 -0.3400  0.6636  0.4352
 5342TIP3    H137517   4.067   3.832   4.920 -2.3487  0.1217  0.8490
 5342TIP3    H237518   4.193   3.749   4.936 -0.8061  1.7422 -1.9426
 5343TIP3   OH237519   2.692   4.456   1.206 -0.4720 -0.6164 -0.1527
 5343TIP3    H137520   2.634   4.461   1.130 -0.9829 -2.8509  0.0284
 5343TIP3    H237521   2.780   4.444   1.169 -0.6872 -1.4380 -0.4267
 5344TIP3   OH237522   1.685   3.460   2.700  0.0659  0.1689 -0.3211
 5344TIP3    H137523   1.636   3.536   2.732 -0.7325 -0.3639 -0.2645
 5344TIP3    H237524   1.677   3.465   2.604 -3.2440 -1.8791 -0.3027
 5345TIP3   OH237525   5.169   1.482   3.544 -0.3142 -0.1592  0.1781
 5345TIP3    H137526   5.117   1.559   3.519  0.0074  0.3895  1.1485
 5345TIP3    H237527   5.216   1.458   3.464 -2.8027 -1.3114 -1.0426
 5346TIP3   OH237528   5.158   4.448   4.151 -0.6285 -0.2015  0.1907
 5346TIP3    H137529   5.198   4.407   4.075  0.5157  0.1689  0.5529
 5346TIP3    H237530   5.183   4.392   4.225 -1.7374 -0.5683  0.2975
 5347TIP3   OH237531   4.280   3.359   2.614  0.1644  0.1222 -0.8274
 5347TIP3    H137532   4.229   3.429   2.574 -1.5003 -0.3419  0.3536
 5347TIP3    H237533   4.262   3.282   2.561 -0.0419  0.0491 -0.6534
 5348TIP3   OH237534   6.385   3.855  16.512  0.2092  0.1085 -0.3376
 5348TIP3    H137535   6.325   3.882  16.442  1.2904  3.9774 -0.0558
 5348TIP3    H237536   6.443   3.792  16.471 -0.2790  0.9387 -2.4658
 5349TIP3   OH237537   4.793   1.017   0.133 -0.0100 -0.1824  0.4540
 5349TIP3    H137538   4.876   1.004   0.181  0.1576  0.8345  0.4625
 5349TIP3    H237539   4.735   1.056   0.198  0.3112  1.4994 -0.2137
 5350TIP3   OH237540   1.499   5.643  12.244  0.0670 -0.4082 -0.0854
 5350TIP3    H137541   1.594   5.629  12.248  0.1169 -0.3725 -0.8866
 5350TIP3    H237542   1.477   5.683  12.328  0.8298 -0.0690 -0.0348
 5351TIP3   OH237543   3.704   5.638  13.350  0.1157 -0.3154 -0.6172
 5351TIP3    H137544   3.672   5.722  13.318 -1.4922 -0.9750 -0.8182
 5351TIP3    H237545   3.625   5.589  13.374  1.0727 -1.3100  0.6839
 5352TIP3   OH237546   0.859   6.265   5.868 -0.1757 -0.0377 -0.1983
 5352TIP3    H137547   0.863   6.228   5.957  0.3905  0.0992 -0.1631
 5352TIP3    H237548   0.883   6.357   5.880 -0.1597 -0.0054 -0.4913
 5353TIP3   OH237549   1.488   5.375   0.934  0.1492  0.5183 -0.1882
 5353TIP3    H137550   1.492   5.371   1.030 -1.4997  2.8728  0.0826
 5353TIP3    H237551   1.577   5.395   0.907  0.6405 -0.1549  0.8568
 5354TIP3   OH237552   0.171   2.691   5.125  0.2334  0.1377  0.0718
 5354TIP3    H137553   0.160   2.696   5.031  0.2494  0.0203  0.0643
 5354TIP3    H237554   0.253   2.643   5.138  1.2467  1.7734  0.1035
 5355TIP3   OH237555   6.783   6.087   0.262  0.5213  0.1622 -0.4975
 5355TIP3    H137556   6.864   6.043   0.236  1.0590 -1.7407  3.6846
 5355TIP3    H237557   6.713   6.031   0.226  1.1723 -1.0912  0.1266
 5356TIP3   OH237558   4.054   4.454  16.582 -0.1823 -0.1187  0.2704
 5356TIP3    H137559   4.096   4.460  16.668 -0.6647 -1.6868  0.6556
 5356TIP3    H237560   3.988   4.523  16.583 -0.5639 -0.4706  1.3977
 5357TIP3   OH237561   5.559   1.119  11.623  0.0306 -0.4080 -0.3309
 5357TIP3    H137562   5.471   1.151  11.641 -0.3292 -1.3252 -0.3899
 5357TIP3    H237563   5.554   1.083  11.534  0.6775  0.2526 -0.6463
 5358TIP3   OH237564   6.595   1.984   4.309 -0.5887  0.0905 -0.4411
 5358TIP3    H137565   6.536   1.984   4.234  0.3379  2.4690 -1.2548
 5358TIP3    H237566   6.538   1.991   4.386 -1.4383  2.5308 -1.2173
 5359TIP3   OH237567   5.450   4.083   3.341  0.6212 -0.5157  0.5686
 5359TIP3    H137568   5.533   4.128   3.324 -0.4909  1.8537  1.0521
 5359TIP3    H237569   5.468   3.991   3.320  2.2630  0.4649 -3.3660
 5360TIP3   OH237570   2.488   1.584  15.945 -0.4592  0.3763 -0.0852
 5360TIP3    H137571   2.531   1.572  16.030 -0.8512 -1.4080 -0.0922
 5360TIP3    H237572   2.558   1.616  15.888  0.4592 -0.7591  0.3434
 5361TIP3   OH237573   4.226   4.625   1.797 -0.1585  0.1699  0.1402
 5361TIP3    H137574   4.218   4.544   1.746 -2.1488  0.6552 -0.4190
 5361TIP3    H237575   4.148   4.627   1.851 -1.0939  2.5447 -1.1602
 5362TIP3   OH237576   2.378   6.399  15.686 -0.3754 -1.0406  0.3233
 5362TIP3    H137577   2.391   6.322  15.630 -2.0811 -0.4371 -0.9987
 5362TIP3    H237578   2.302   6.378  15.739 -1.8569  0.2764 -1.1794
 5363TIP3   OH237579   6.473   0.723   4.702 -0.4858  0.6485 -0.3001
 5363TIP3    H137580   6.519   0.639   4.705 -1.7117 -0.0265  0.9407
 5363TIP3    H237581   6.538   0.787   4.729 -0.2574 -0.3080  1.5950
 5364TIP3   OH237582   4.963   6.690  16.405 -0.4061  0.3942 -0.5254
 5364TIP3    H137583   4.953   6.639  16.324  0.8209 -0.3041 -0.2592
 5364TIP3    H237584   4.873   6.700  16.438 -1.2835  2.8430 -3.2089
 5365TIP3   OH237585   2.913   1.969   2.658  0.1072  0.2898 -0.1261
 5365TIP3    H137586   2.904   2.064   2.667  2.0365  0.4324  0.7981
 5365TIP3    H237587   3.004   1.957   2.630  0.4623 -1.3554  1.5718
 5366TIP3   OH237588   0.537   6.346   3.774  0.5733  0.2929  0.2037
 5366TIP3    H137589   0.488   6.421   3.741  0.9694  0.8351  0.8015
 5366TIP3    H237590   0.495   6.270   3.735 -0.6228  0.7500  0.5744
 5367TIP3   OH237591   5.857   1.792  14.250  0.4915  0.2202  0.1244
 5367TIP3    H137592   5.862   1.859  14.319  0.4897  0.0402  0.3019
 5367TIP3    H237593   5.815   1.836  14.177  1.2759  0.6715 -0.0687
 5368TIP3   OH237594   6.449   3.406  15.633  0.1821  0.0524  1.0348
 5368TIP3    H137595   6.360   3.440  15.620 -0.5929 -2.5147 -1.4606
 5368TIP3    H237596   6.496   3.434  15.555  0.3977 -1.7779  0.4619
 5369TIP3   OH237597   5.136   1.339  14.087  0.2532  0.1612  0.1035
 5369TIP3    H137598   5.104   1.428  14.074  0.3641  0.3519  1.0597
 5369TIP3    H237599   5.061   1.283  14.070  0.2403  0.4098 -0.7298
 5370TIP3   OH237600   2.457   6.675  16.582 -0.5231 -0.8170  0.6503
 5370TIP3    H137601   2.482   6.658  16.491 -2.4067 -0.1445 -0.0347
 5370TIP3    H237602   2.541   6.682  16.628  0.4677 -1.8125 -0.8873
 5371TIP3   OH237603   1.971   4.174   6.490 -0.1594 -0.2104 -0.0590
 5371TIP3    H137604   2.047   4.218   6.527 -0.3463  0.4867 -0.4801
 5371TIP3    H237605   1.930   4.130   6.564 -0.1056  0.5304  0.4173
 5372TIP3   OH237606   3.408   5.128  13.601  0.4135  0.1042  0.5932
 5372TIP3    H137607   3.352   5.139  13.678  0.0010 -1.0766  0.4791
 5372TIP3    H237608   3.352   5.152  13.527  0.0798 -0.9325  0.4913
 5373TIP3   OH237609   3.462   1.370  12.035  0.1670  0.6990  0.5369
 5373TIP3    H137610   3.540   1.318  12.052  0.2697  0.7731  0.3005
 5373TIP3    H237611   3.465   1.388  11.941 -0.0168  0.8909  0.5666
 5374TIP3   OH237612   4.235   1.105   4.815 -0.0087  0.1396 -0.3183
 5374TIP3    H137613   4.272   1.148   4.738 -1.4384 -0.3039 -1.2875
 5374TIP3    H237614   4.141   1.125   4.812 -0.6879 -2.6785 -0.6271
 5375TIP3   OH237615   5.606   6.829   1.135  0.4125  0.2207  0.5828
 5375TIP3    H137616   5.578   6.743   1.103  2.4749 -0.5617  0.7206
 5375TIP3    H237617   5.630   6.813   1.227  2.3860  0.5286  0.1591
 5376TIP3   OH237618   0.905   4.938  13.111  0.6986 -0.3160  0.4756
 5376TIP3    H137619   0.819   4.967  13.080  0.6202 -1.2119 -0.2010
 5376TIP3    H237620   0.896   4.933  13.206 -0.9185 -2.9803  0.3016
 5377TIP3   OH237621   2.050   4.961   1.605 -0.3915  1.0023  0.0820
 5377TIP3    H137622   2.051   4.887   1.667 -1.2677  1.5292  0.7528
 5377TIP3    H237623   2.120   4.941   1.543 -0.7374 -0.4941  0.1277
 5378TIP3   OH237624   3.838   1.460  16.685  0.1224  0.1796  0.4810
 5378TIP3    H137625   3.823   1.446  16.592  1.3930  1.4085  0.0532
 5378TIP3    H237626   3.752   1.477  16.722 -0.3303  0.2411 -0.5781
 5379TIP3   OH237627   1.156   2.238   0.967  0.4801  0.0577  0.7223
 5379TIP3    H137628   1.194   2.318   1.004  0.3038  0.1293  0.7494
 5379TIP3    H237629   1.201   2.167   1.012 -0.9571  0.1267  2.3513
 5380TIP3   OH237630   4.117   0.349  13.093  0.3754  0.2287  0.3988
 5380TIP3    H137631   4.125   0.259  13.124  2.5684  0.3062  0.2145
 5380TIP3    H237632   4.138   0.403  13.169 -0.4455  0.5798  0.3815
 5381TIP3   OH237633   4.785   4.581   6.180  0.2389 -0.0207  0.6092
 5381TIP3    H137634   4.821   4.596   6.267  0.1138  1.9416  0.3718
 5381TIP3    H237635   4.814   4.493   6.157 -0.4118 -0.9140  2.9373
 5382TIP3   OH237636   6.192   3.035  13.639  0.2766 -0.3276 -0.0960
 5382TIP3    H137637   6.232   3.079  13.564  1.1139 -0.9328 -0.0159
 5382TIP3    H237638   6.155   2.955  13.604  0.7443 -0.6541  0.1367
 5383TIP3   OH237639   5.774   6.602   3.922  0.3479  0.3475  0.5964
 5383TIP3    H137640   5.822   6.588   4.003 -0.9194  0.9210  1.4959
 5383TIP3    H237641   5.841   6.617   3.856  1.3936  1.1120  1.7892
 5384TIP3   OH237642   2.987   5.814  16.282  0.0353 -0.5702  0.3425
 5384TIP3    H137643   3.002   5.747  16.349  3.2816  1.0461  1.4322
 5384TIP3    H237644   3.024   5.776  16.202 -1.1235 -1.3166  0.1378
 5385TIP3   OH237645   2.963   6.772   2.495 -0.7123 -0.3350  0.1829
 5385TIP3    H137646   2.973   6.738   2.585 -0.8830 -1.9418 -0.3725
 5385TIP3    H237647   2.947   6.694   2.442  2.2939  0.1575 -1.7216
 5386TIP3   OH237648   0.497   2.306  12.538  0.5482  0.0550  0.1719
 5386TIP3    H137649   0.552   2.327  12.613  1.7892 -0.3191 -0.5930
 5386TIP3    H237650   0.519   2.372  12.472 -0.0444 -0.0073 -0.1016
 5387TIP3   OH237651   1.423   2.850   5.195 -0.1376 -0.0112  0.4863
 5387TIP3    H137652   1.352   2.855   5.260  0.1897 -3.2092  1.2552
 5387TIP3    H237653   1.503   2.861   5.246  0.0334  0.7881  0.0609
 5388TIP3   OH237654   2.927   5.522  12.210  0.0631 -0.2794  0.5464
 5388TIP3    H137655   2.983   5.461  12.258 -0.1953 -1.2334 -0.3423
 5388TIP3    H237656   2.932   5.494  12.119 -1.0886  0.2131  0.3076
 5389TIP3   OH237657   3.882   2.787  12.619 -0.0107 -0.7369  0.5265
 5389TIP3    H137658   3.959   2.810  12.671  1.3649 -2.3085 -0.7012
 5389TIP3    H237659   3.911   2.796  12.528 -2.0395  0.9294 -0.0389
 5390TIP3   OH237660   3.938   5.661   3.616 -0.1960 -0.3089  0.1489
 5390TIP3    H137661   3.931   5.613   3.534  0.4209 -1.5527  0.7996
 5390TIP3    H237662   3.947   5.752   3.590  0.5786 -0.7417 -1.1821
 5391TIP3   OH237663   5.133   0.480  12.907  0.1568 -0.0695  0.1152
 5391TIP3    H137664   5.228   0.480  12.912  0.1580 -1.7899  0.9864
 5391TIP3    H237665   5.113   0.477  12.814  0.9722 -0.2290 -0.0589
 5392TIP3   OH237666   5.085   3.250  15.149  0.0002 -0.3397  1.0795
 5392TIP3    H137667   5.003   3.208  15.172 -0.4954  0.4274  0.7532
 5392TIP3    H237668   5.110   3.210  15.065  0.1197 -0.7835  1.3231
 5393TIP3   OH237669   6.789   2.624  11.958  0.2185  0.4765  0.8819
 5393TIP3    H137670   6.860   2.656  11.903  0.3761  0.6532  1.1872
 5393TIP3    H237671   6.791   2.529  11.948  0.2248  0.5108  0.5582
 5394TIP3   OH237672   0.131   0.887  11.878 -0.5808  0.0561  0.1202
 5394TIP3    H137673   0.220   0.898  11.843 -0.7967  0.2453 -0.3849
 5394TIP3    H237674   0.119   0.793  11.885 -0.3713  0.0278  0.1004
 5395TIP3   OH237675   5.075   5.799   6.184  0.8486 -0.0945  0.1392
 5395TIP3    H137676   5.168   5.777   6.181  0.6401 -0.9009 -0.9713
 5395TIP3    H237677   5.072   5.894   6.178  1.5485 -0.1615 -1.7130
 5396TIP3   OH237678   1.122   0.102   0.546 -0.8044 -0.4014 -0.2923
 5396TIP3    H137679   1.102   0.108   0.453 -1.6385 -0.9353 -0.1630
 5396TIP3    H237680   1.091   0.015   0.571  1.1322 -1.0154  0.0887
 5397TIP3   OH237681   2.952   0.087   2.124 -0.5074 -0.1421  0.0229
 5397TIP3    H137682   2.941   0.137   2.205 -0.7193  0.5095 -0.3934
 5397TIP3    H237683   2.878   0.115   2.070 -0.8668 -1.2342 -0.0668
 5398TIP3   OH237684   2.665   1.535   4.626 -0.0930 -0.6520 -0.0215
 5398TIP3    H137685   2.743   1.558   4.676 -0.6342 -0.4739  0.7587
 5398TIP3    H237686   2.593   1.541   4.689 -0.7693 -0.6027 -0.7809
 5399TIP3   OH237687   1.081   6.317   5.109  0.6954  0.4017  0.2891
 5399TIP3    H137688   1.144   6.256   5.070 -0.8887 -0.1572 -1.5195
 5399TIP3    H237689   1.044   6.269   5.182  0.2906 -0.4029 -0.4198
 5400TIP3   OH237690   4.847   5.443  10.721  0.2483  0.2154  0.0471
 5400TIP3    H137691   4.931   5.460  10.763  0.3837 -0.1248 -0.0799
 5400TIP3    H237692   4.823   5.526  10.680 -0.0966  0.6761  1.1420
 5401TIP3   OH237693   5.308   6.016  16.231  0.0679  0.3438  0.2952
 5401TIP3    H137694   5.373   6.010  16.301  0.5553 -0.8510 -0.2377
 5401TIP3    H237695   5.356   5.993  16.151 -0.7238  0.6566 -0.2822
 5402TIP3   OH237696   4.151   3.305  16.956  0.8952  0.0357 -0.3887
 5402TIP3    H137697   4.210   3.233  16.979  1.9331  0.8832 -0.3520
 5402TIP3    H237698   4.128   3.289  16.864  0.0401 -1.0669 -0.0112
 5403TIP3   OH237699   5.056   2.699  12.171  0.5594 -0.5480 -0.5908
 5403TIP3    H137700   5.143   2.674  12.203 -0.1582 -2.4920 -0.0374
 5403TIP3    H237701   5.002   2.621  12.184 -1.8562  1.2701  1.0897
 5404TIP3   OH237702   3.503   5.746   3.992  0.2145  0.0589  0.0785
 5404TIP3    H137703   3.591   5.715   4.012  0.6761  1.5156  0.4377
 5404TIP3    H237704   3.516   5.837   3.964 -0.8628 -0.5180 -2.6251
 5405TIP3   OH237705   5.920   1.432   3.117  0.0024  0.3305 -0.2309
 5405TIP3    H137706   6.000   1.424   3.169  0.0201 -0.0563 -0.3128
 5405TIP3    H237707   5.915   1.350   3.068 -0.7280  0.1252  0.1793
 5406TIP3   OH237708   2.989   3.188   4.654  0.6818  0.6177  0.0337
 5406TIP3    H137709   3.040   3.210   4.732 -0.6561  1.2848  0.7615
 5406TIP3    H237710   3.053   3.183   4.584  1.7348  1.4854  0.8921
 5407TIP3   OH237711   3.735   2.260  16.083  0.5441  0.0543  0.0621
 5407TIP3    H137712   3.774   2.304  16.007 -0.4904  0.3013 -0.3325
 5407TIP3    H237713   3.756   2.168  16.069  1.7058  0.2611  0.2909
 5408TIP3   OH237714   4.404   2.264  15.000 -0.1808  0.1112  0.0636
 5408TIP3    H137715   4.404   2.175  15.033  1.9987 -0.0497 -0.2416
 5408TIP3    H237716   4.467   2.263  14.928 -1.2582  1.5543 -0.9727
 5409TIP3   OH237717   5.877   6.062   1.011  0.1478  0.0816  0.3113
 5409TIP3    H137718   5.876   6.148   1.054 -0.7426  0.4834 -0.4657
 5409TIP3    H237719   5.825   6.006   1.069  0.5748  0.1080  0.7258
 5410TIP3   OH237720   0.565   3.778   5.137 -0.3174  0.0469 -0.1575
 5410TIP3    H137721   0.583   3.716   5.066 -0.3206  0.7075 -0.7408
 5410TIP3    H237722   0.618   3.746   5.210 -1.3292 -1.4169 -0.0141
 5411TIP3   OH237723   0.175   2.255  11.060 -0.5054  0.1477 -0.3261
 5411TIP3    H137724   0.120   2.280  11.134 -0.2870  0.6320 -0.3251
 5411TIP3    H237725   0.246   2.320  11.060  1.8926 -2.1995  1.6207
 5412TIP3   OH237726   5.786   3.802   1.756 -0.0266  0.7486  0.6716
 5412TIP3    H137727   5.733   3.743   1.702 -0.5287 -0.6509  2.6057
 5412TIP3    H237728   5.805   3.876   1.698 -4.2805  1.5029 -0.0968
 5413TIP3   OH237729   1.367   1.501   4.479  0.4862 -0.0373  0.6427
 5413TIP3    H137730   1.405   1.427   4.526  1.7937  0.5471  0.5511
 5413TIP3    H237731   1.350   1.468   4.391  0.2550 -0.4649  0.8473
 5414TIP3   OH237732   0.946   3.154   0.092 -0.5380  0.3245 -0.4956
 5414TIP3    H137733   0.886   3.198   0.153  1.4266  0.9953  1.0453
 5414TIP3    H237734   0.947   3.211   0.015  0.2711  1.8724  0.6075
 5415TIP3   OH237735   3.082   6.712   6.524 -0.6164  0.1313  0.1095
 5415TIP3    H137736   3.096   6.714   6.429 -0.1244 -0.3509  0.1622
 5415TIP3    H237737   3.116   6.626   6.550 -1.3478 -0.0106  0.6332
 5416TIP3   OH237738   1.259   1.146  10.311  0.1254 -0.0056 -0.1189
 5416TIP3    H137739   1.199   1.221  10.308  0.3173  0.1999  0.7398
 5416TIP3    H237740   1.214   1.082  10.367  1.0320  0.4632  1.1864
 5417TIP3   OH237741   4.621   1.490   2.072  0.0482 -0.4528  0.3160
 5417TIP3    H137742   4.653   1.465   1.986 -1.3067  1.6407 -0.9004
 5417TIP3    H237743   4.560   1.420   2.097 -0.9236 -0.2336 -1.3043
 5418TIP3   OH237744   3.826   2.616   0.295  0.2761  0.1675 -0.0947
 5418TIP3    H137745   3.733   2.602   0.316 -0.2482  0.9145 -1.7511
 5418TIP3    H237746   3.844   2.705   0.325  0.3834  0.1314 -0.0505
 5419TIP3   OH237747   6.171   3.107  11.235  0.2296  0.0435 -0.3304
 5419TIP3    H137748   6.094   3.158  11.209  1.3661  2.7684  1.1895
 5419TIP3    H237749   6.240   3.137  11.176  0.6235 -0.8272 -0.3229
 5420TIP3   OH237750   4.971   1.770   0.989  0.0508  0.3977 -0.1178
 5420TIP3    H137751   4.945   1.805   0.904  0.5314  0.6840 -0.1500
 5420TIP3    H237752   5.031   1.835   1.024 -2.7423  2.0717  2.0023
 5421TIP3   OH237753   3.439   3.900  15.055 -0.1081  0.1500  0.1843
 5421TIP3    H137754   3.492   3.929  15.129 -0.6979  0.7593  0.3794
 5421TIP3    H237755   3.456   3.806  15.048 -2.1036 -0.5221  2.8555
 5422TIP3   OH237756   6.501   2.629   1.762 -0.1987 -0.1253  0.1480
 5422TIP3    H137757   6.508   2.662   1.851  1.4024  1.6801 -0.5714
 5422TIP3    H237758   6.589   2.638   1.726 -1.1684  0.8929 -2.1798
 5423TIP3   OH237759   6.615   0.922   2.224  0.1438 -0.6517 -0.0084
 5423TIP3    H137760   6.664   0.864   2.165 -0.0227 -0.0256 -0.7677
 5423TIP3    H237761   6.564   0.978   2.166 -1.8932 -1.6184  0.7780
 5424TIP3   OH237762   3.430   2.855   1.277  0.0090  0.6470  0.1516
 5424TIP3    H137763   3.439   2.838   1.371 -0.2974  0.5511  0.1634
 5424TIP3    H237764   3.518   2.881   1.250  0.1972  0.2618  0.3797
 5425TIP3   OH237765   6.362   1.336  13.724  0.4531  0.3800 -0.3452
 5425TIP3    H137766   6.290   1.392  13.754  1.2764  1.1274  0.2948
 5425TIP3    H237767   6.392   1.379  13.643  1.7366  1.5008  0.6681
 5426TIP3   OH237768   3.986   2.253   0.770 -0.8335 -0.1339  0.6599
 5426TIP3    H137769   3.976   2.257   0.675  3.8678  1.0332 -0.0696
 5426TIP3    H237770   3.943   2.331   0.803  0.9448  1.7067 -1.1344
 5427TIP3   OH237771   2.308   2.708  14.748 -0.1149  0.1771  0.1189
 5427TIP3    H137772   2.393   2.695  14.708  0.0288 -0.1518  0.5269
 5427TIP3    H237773   2.275   2.789  14.709  0.6924  0.6949  0.4943
 5428TIP3   OH237774   3.655   3.989  14.596 -0.3636 -0.1619 -0.0554
 5428TIP3    H137775   3.684   3.905  14.559 -0.3286 -0.0238 -0.3428
 5428TIP3    H237776   3.595   3.964  14.666 -2.1139 -0.4323 -1.5433
 5429TIP3   OH237777   3.303   0.596  14.376 -0.6120  0.3032  0.4134
 5429TIP3    H137778   3.275   0.618  14.287 -2.8854 -5.2791 -0.6536
 5429TIP3    H237779   3.221   0.578  14.423  0.6721 -0.5217  2.4811
 5430TIP3   OH237780   6.245   6.074  14.328 -0.7664 -0.2869 -0.0228
 5430TIP3    H137781   6.293   6.011  14.382 -0.3634 -1.1755 -1.3500
 5430TIP3    H237782   6.254   6.040  14.238  2.4687  3.4036 -1.4077
 5431TIP3   OH237783   4.507   0.009  16.059  0.1854 -0.0239  0.0301
 5431TIP3    H137784   4.429  -0.032  16.023 -0.0826  1.1272 -0.7584
 5431TIP3    H237785   4.490   0.014  16.153  0.1867 -1.5640  0.1446
 5432TIP3   OH237786   0.065   0.294   1.965  0.2066  0.0492  0.4990
 5432TIP3    H137787   0.035   0.365   2.021 -0.2825  0.9002 -0.8005
 5432TIP3    H237788   0.058   0.216   2.020 -0.8669  0.7496  1.4113
 5433TIP3   OH237789   6.371   2.922  15.784 -0.3787  0.7301  0.0961
 5433TIP3    H137790   6.429   2.996  15.766  0.5240  0.2488  0.9491
 5433TIP3    H237791   6.420   2.845  15.754 -0.4751  0.2966  1.0045
 5434TIP3   OH237792   3.198   0.887   5.780  0.2892  0.2748 -0.1389
 5434TIP3    H137793   3.266   0.847   5.834  0.8946  2.1592  0.5548
 5434TIP3    H237794   3.177   0.969   5.824 -0.3850  1.0973 -1.8886
 5435TIP3   OH237795   1.126   2.445  13.017 -0.5412 -0.2725  0.2174
 5435TIP3    H137796   1.166   2.380  12.961 -0.2811  0.2627 -0.2285
 5435TIP3    H237797   1.200   2.489  13.061 -0.6701  0.1888 -0.0158
 5436TIP3   OH237798   6.085   4.638   3.454  0.0677  0.7126  0.8038
 5436TIP3    H137799   6.148   4.650   3.525 -0.3820  0.3040  1.2807
 5436TIP3    H237800   6.052   4.549   3.467  1.0400  0.0697 -0.7793
 5437TIP3   OH237801   2.560   3.893   5.773 -0.0104 -0.2487  0.2325
 5437TIP3    H137802   2.616   3.954   5.821  0.6089 -0.6776  0.0720
 5437TIP3    H237803   2.621   3.826   5.740 -0.7259 -1.2099  0.8013
 5438TIP3   OH237804   5.693   4.816   0.929  0.6415 -0.2948  0.0383
 5438TIP3    H137805   5.629   4.748   0.949 -0.3109  0.6363  0.2779
 5438TIP3    H237806   5.639   4.894   0.911  1.7488  0.8033  1.3412
 5439TIP3   OH237807   0.553   3.091   0.943  0.0656  0.1388  0.2653
 5439TIP3    H137808   0.596   3.161   0.894 -0.8016  1.3265  1.1314
 5439TIP3    H237809   0.460   3.102   0.923 -0.3764  0.9840  2.4794
 5440TIP3   OH237810   1.926   3.413   4.883  0.3248  0.0282 -0.0438
 5440TIP3    H137811   1.844   3.462   4.878  0.4904  0.2762 -0.4037
 5440TIP3    H237812   1.932   3.386   4.974  1.5469  2.9920  0.8737
 5441TIP3   OH237813   4.308   5.142   4.324  0.5434  0.2901  0.5557
 5441TIP3    H137814   4.316   5.053   4.289 -0.5919  0.8159 -1.2156
 5441TIP3    H237815   4.249   5.133   4.399 -1.5388 -0.2189 -1.0263
 5442TIP3   OH237816   5.988   3.721  16.588 -0.1919 -0.1387  0.2604
 5442TIP3    H137817   5.989   3.636  16.631  1.1644  0.3325  1.2411
 5442TIP3    H237818   6.000   3.702  16.495  1.9957 -0.9518  0.6704
 5443TIP3   OH237819   6.727   0.532   4.446 -0.0919 -0.4172  0.1507
 5443TIP3    H137820   6.709   0.622   4.421 -0.8709 -0.5568  0.1975
 5443TIP3    H237821   6.695   0.479   4.373  0.1236 -0.6726  0.2377
 5444TIP3   OH237822   1.618   6.438  12.136  0.3988 -0.2558  0.4885
 5444TIP3    H137823   1.578   6.425  12.222  1.0144  0.4493  0.8974
 5444TIP3    H237824   1.678   6.364  12.125 -1.2354 -1.5451 -0.3021
 5445TIP3   OH237825   0.881   0.213  16.446 -0.0632  0.2350 -0.4697
 5445TIP3    H137826   0.904   0.299  16.410  2.5539  0.0863  0.6628
 5445TIP3    H237827   0.965   0.172  16.467 -1.3050 -1.5113  1.5183
 5446TIP3   OH237828   6.685   1.499  11.690 -0.0775 -0.9110 -0.2629
 5446TIP3    H137829   6.654   1.552  11.617 -3.6007 -1.8150  0.3876
 5446TIP3    H237830   6.728   1.423  11.649  0.8018  0.0842 -1.2576
 5447TIP3   OH237831   3.152   6.131   2.851 -0.1800  0.2038  0.3235
 5447TIP3    H137832   3.173   6.060   2.912 -1.4831  0.4142  1.0452
 5447TIP3    H237833   3.194   6.104   2.769 -1.1018 -1.6988  0.4192
 5448TIP3   OH237834   1.483   4.117  14.837  0.0451 -0.1805 -0.5680
 5448TIP3    H137835   1.419   4.132  14.767  1.3741  1.2576 -1.5459
 5448TIP3    H237836   1.511   4.205  14.864 -2.1394 -0.5068  3.5508
 5449TIP3   OH237837   3.104   3.467   0.294 -0.2145  0.4868  0.1484
 5449TIP3    H137838   3.068   3.456   0.382  0.2589 -1.5303  0.1411
 5449TIP3    H237839   3.196   3.488   0.308 -0.1028  0.0089  0.1405
 5450TIP3   OH237840   1.210   0.715   4.564  0.0563  0.8895  0.2055
 5450TIP3    H137841   1.240   0.793   4.518 -0.4721  1.2525  0.4784
 5450TIP3    H237842   1.282   0.652   4.553 -0.2494  0.7987 -1.5156
 5451TIP3   OH237843   1.825   1.151  12.955  0.2202 -0.0015 -0.2894
 5451TIP3    H137844   1.899   1.108  12.999 -0.6709 -1.1810  0.1107
 5451TIP3    H237845   1.748   1.100  12.982 -0.6753  0.8653 -1.1269
 5452TIP3   OH237846   2.633   0.197   3.029  0.1900 -0.0854  0.5217
 5452TIP3    H137847   2.690   0.230   3.098  0.1993 -1.0127  0.9797
 5452TIP3    H237848   2.690   0.185   2.953  1.1690 -3.0260  1.5690
 5453TIP3   OH237849   3.932   4.188  16.481  0.1453  0.1787  0.0190
 5453TIP3    H137850   3.999   4.192  16.549  0.6506  1.2149 -0.5268
 5453TIP3    H237851   3.978   4.156  16.404  0.0411  0.9785 -0.3798
 5454TIP3   OH237852   1.985   2.855  12.304  0.0442  0.5710 -0.4749
 5454TIP3    H137853   1.945   2.928  12.256 -3.0212 -0.9126 -0.3535
 5454TIP3    H237854   2.012   2.894  12.387 -2.2428  1.4963 -0.0896
 5455TIP3   OH237855   0.287   6.009  16.739 -0.0349  0.0710 -0.2164
 5455TIP3    H137856   0.232   5.933  16.756 -2.4826  2.1636  2.1513
 5455TIP3    H237857   0.225   6.077  16.712  1.9959  1.4213 -1.7770
 5456TIP3   OH237858   3.378   1.111  10.664  0.8269 -0.0727  0.0892
 5456TIP3    H137859   3.369   1.116  10.759 -2.2099  2.4368 -0.1570
 5456TIP3    H237860   3.376   1.018  10.645 -1.2180 -0.5918  2.3541
 5457TIP3   OH237861   4.861   5.364  13.485 -0.2468  0.7808 -0.3396
 5457TIP3    H137862   4.780   5.414  13.490 -0.6807  0.0769 -0.1380
 5457TIP3    H237863   4.860   5.308  13.563  0.4740  0.8260 -0.2886
 5458TIP3   OH237864   3.882   5.609  14.074 -0.3373  0.5287  0.3197
 5458TIP3    H137865   3.830   5.537  14.039  0.0510  1.0251 -1.3663
 5458TIP3    H237866   3.819   5.661  14.124 -0.7769 -0.5507  0.9334
 5459TIP3   OH237867   2.188   1.934   0.949  0.3310  0.1000 -0.3964
 5459TIP3    H137868   2.156   1.846   0.972 -1.1125  0.6696 -0.1071
 5459TIP3    H237869   2.180   1.937   0.854  0.8901 -0.2548 -0.4619
 5460TIP3   OH237870   3.372   2.145  11.040 -0.1598 -0.2423 -0.3606
 5460TIP3    H137871   3.413   2.113  10.960  2.3081  2.0358 -0.1732
 5460TIP3    H237872   3.379   2.241  11.034 -1.2981  0.0495  1.8774
 5461TIP3   OH237873   4.393   5.882  14.551  0.3004 -1.1330  0.1258
 5461TIP3    H137874   4.361   5.832  14.626 -0.0984 -0.0999  0.6687
 5461TIP3    H237875   4.354   5.839  14.475 -2.7102  0.2093  0.7518
 5462TIP3   OH237876   2.213   5.958   3.683 -0.1850 -0.6674 -0.1469
 5462TIP3    H137877   2.251   6.023   3.624 -2.2873  0.5408 -0.2609
 5462TIP3    H237878   2.215   5.877   3.633 -1.4181  0.2253 -1.7210
 5463TIP3   OH237879   3.991   1.376   4.546  0.2039 -0.4205  0.2361
 5463TIP3    H137880   3.958   1.466   4.542  0.0561 -0.4496  0.7010
 5463TIP3    H237881   3.953   1.341   4.627 -0.1309 -1.0573 -0.1963
 5464TIP3   OH237882   4.597   3.581  15.311  0.9355 -0.5225 -0.0526
 5464TIP3    H137883   4.502   3.592  15.306  0.9131 -0.3316  0.7276
 5464TIP3    H237884   4.623   3.561  15.221  0.2599  0.2601 -0.4448
 5465TIP3   OH237885   3.452   2.191  12.156 -0.5415  0.6359 -0.0768
 5465TIP3    H137886   3.486   2.244  12.084 -0.9146  0.5155 -0.3508
 5465TIP3    H237887   3.476   2.101  12.132  0.2085  0.6887  0.4537
 5466TIP3   OH237888   2.698   2.848  10.754 -0.4820  0.1301  0.3895
 5466TIP3    H137889   2.750   2.905  10.698  0.2412 -1.3119 -0.4511
 5466TIP3    H237890   2.615   2.894  10.766 -0.9416  0.1772 -2.4720
 5467TIP3   OH237891   0.681   1.755   4.666  0.0871 -0.1889  0.0268
 5467TIP3    H137892   0.661   1.669   4.629  0.4789 -0.9697  1.5655
 5467TIP3    H237893   0.776   1.761   4.663  0.1534 -0.4353  1.2374
 5468TIP3   OH237894   4.473   1.468  15.815 -0.3520 -0.3211  0.0389
 5468TIP3    H137895   4.543   1.493  15.755 -0.7246 -2.0865 -1.2012
 5468TIP3    H237896   4.394   1.505  15.776 -0.6378 -1.7265 -0.7852
 5469TIP3   OH237897   3.544   5.006  16.347  0.1949 -0.3938  0.2879
 5469TIP3    H137898   3.626   4.958  16.355  0.8730  0.4399 -1.1238
 5469TIP3    H237899   3.487   4.948  16.296 -0.4203 -1.3081  1.9384
 5470TIP3   OH237900   5.930   2.216   6.346  0.4734  0.1122 -0.6102
 5470TIP3    H137901   6.015   2.243   6.311  0.1844  0.6795 -0.8819
 5470TIP3    H237902   5.866   2.248   6.283  0.1576 -2.2484 -1.5777
 5471TIP3   OH237903   6.353   2.678   1.533 -0.4110 -0.3247 -0.0742
 5471TIP3    H137904   6.406   2.688   1.612  0.9113 -0.0904 -0.9570
 5471TIP3    H237905   6.293   2.607   1.553  0.2419 -0.6065  0.9648
 5472TIP3   OH237906   3.368   5.424   4.549  0.2972 -0.6284  0.1200
 5472TIP3    H137907   3.318   5.345   4.527  1.8965 -1.3605 -1.1522
 5472TIP3    H237908   3.343   5.488   4.482  0.4519 -0.7268 -0.0339
 5473TIP3   OH237909   0.017   3.922   1.954  0.8396  0.0630  0.3888
 5473TIP3    H137910   0.072   3.850   1.981  0.0684 -0.1931  1.3414
 5473TIP3    H237911  -0.037   3.942   2.031 -1.5183 -0.7625 -0.9334
 5474TIP3   OH237912   4.228   3.957   1.716 -0.4151  0.2716 -0.1453
 5474TIP3    H137913   4.303   3.931   1.662  0.0856  0.9719  0.1992
 5474TIP3    H237914   4.209   3.879   1.769  1.2576  0.6508  1.0899
 5475TIP3   OH237915   1.062   1.370   3.240 -0.0136 -0.4312  0.0010
 5475TIP3    H137916   0.975   1.330   3.243 -1.5275  2.6549  0.8746
 5475TIP3    H237917   1.070   1.416   3.324  2.6810 -0.9669  0.1190
 5476TIP3   OH237918   6.307   0.752   4.072  0.0967 -0.3881 -0.3125
 5476TIP3    H137919   6.388   0.707   4.095  0.2935  0.1035 -0.0187
 5476TIP3    H237920   6.238   0.689   4.091  0.3233 -0.3513  0.6744
 5477TIP3   OH237921   1.745   6.290   4.530 -0.4117  0.6216 -0.0977
 5477TIP3    H137922   1.718   6.362   4.473  2.2032 -0.2038 -2.6032
 5477TIP3    H237923   1.717   6.211   4.485  0.7997 -0.0363  0.2642
 5478TIP3   OH237924   1.471   2.705  11.211 -0.0085  0.1740  0.1421
 5478TIP3    H137925   1.389   2.704  11.259 -0.2127 -0.9004 -0.2114
 5478TIP3    H237926   1.524   2.772  11.255 -0.5970 -0.0126  1.1557
 5479TIP3   OH237927   5.658   2.620   0.070  0.4369 -0.3200  0.2206
 5479TIP3    H137928   5.725   2.568   0.027  2.0510  1.5583  0.3315
 5479TIP3    H237929   5.657   2.588   0.161 -0.2443 -1.6548 -0.2238
 5480TIP3   OH237930   4.485   2.462  13.376  0.0948  0.0237  0.0683
 5480TIP3    H137931   4.426   2.518  13.325  0.5645 -0.4511 -1.0164
 5480TIP3    H237932   4.569   2.509  13.375  0.2283 -0.2168  0.0093
 5481TIP3   OH237933   2.273   0.318  16.499 -0.0670  0.4502  0.8435
 5481TIP3    H137934   2.253   0.398  16.548  0.4548  2.0319 -1.3642
 5481TIP3    H237935   2.369   0.315  16.496 -0.0788  0.6800 -0.4364
 5482TIP3   OH237936   1.953   3.334   5.146  0.2115  0.3011 -0.2862
 5482TIP3    H137937   1.884   3.277   5.179  1.7561 -1.3913  0.1303
 5482TIP3    H237938   2.002   3.361   5.223  2.0061 -1.2220 -0.8372
 5483TIP3   OH237939   4.507   6.419  12.064 -0.0574 -0.1564  0.4029
 5483TIP3    H137940   4.441   6.426  12.133  0.8719 -1.3668  1.4834
 5483TIP3    H237941   4.585   6.386  12.109  0.4683 -1.3772 -1.2921
 5484TIP3   OH237942   5.695   1.190   1.612 -0.1512  0.1683 -0.2767
 5484TIP3    H137943   5.720   1.165   1.523 -3.6361  1.6729 -1.8770
 5484TIP3    H237944   5.621   1.132   1.632  0.0462  0.4321  1.3170
 5485TIP3   OH237945   3.833   2.165   2.671  0.0188 -0.3146 -0.0187
 5485TIP3    H137946   3.782   2.107   2.727 -0.5700 -2.1726 -2.3205
 5485TIP3    H237947   3.900   2.109   2.631  0.3764  0.8906 -1.2096
 5486TIP3   OH237948   4.214   1.828   4.251  0.0253  0.1779 -0.5338
 5486TIP3    H137949   4.273   1.760   4.284  0.5869  0.1623 -1.5350
 5486TIP3    H237950   4.193   1.801   4.162  0.5030  1.4553 -1.0641
 5487TIP3   OH237951   5.745   5.806  11.931  0.0207  0.7016 -0.3633
 5487TIP3    H137952   5.804   5.762  11.870 -0.6834  1.6532 -1.7958
 5487TIP3    H237953   5.771   5.898  11.926 -0.2042  0.8250  0.6118
 5488TIP3   OH237954   4.560   1.609   0.227 -0.5323  0.3386 -0.4434
 5488TIP3    H137955   4.470   1.612   0.260 -0.4390  1.0063 -0.2416
 5488TIP3    H237956   4.567   1.524   0.184 -1.4541  0.5360 -0.9996
 5489TIP3   OH237957   6.409   2.741   3.542 -0.2625 -0.1375  0.0934
 5489TIP3    H137958   6.443   2.803   3.478  1.5729 -0.3842  0.7643
 5489TIP3    H237959   6.486   2.712   3.591 -0.9306 -3.3194 -0.4792
 5490TIP3   OH237960   0.012   2.888  12.524  0.1178 -0.0345  0.0385
 5490TIP3    H137961   0.073   2.886  12.450 -0.2878  0.6889 -0.3320
 5490TIP3    H237962   0.066   2.873  12.601  0.3053 -2.6893 -0.5204
 5491TIP3   OH237963   5.939   4.298   0.185  0.0456  0.4194 -0.1094
 5491TIP3    H137964   5.989   4.303   0.104 -1.4132 -0.0732 -1.0821
 5491TIP3    H237965   5.925   4.204   0.198 -0.8009  0.5567  0.0114
 5492TIP3   OH237966   6.354   1.872  16.875 -0.2242 -0.0209 -0.0809
 5492TIP3    H137967   6.283   1.934  16.863  0.2273  0.7190  0.9043
 5492TIP3    H237968   6.382   1.885  16.966  3.9892  2.7880 -1.4635
 5493TIP3   OH237969   2.011   0.520  11.288  0.2822  0.3230 -0.7774
 5493TIP3    H137970   1.929   0.489  11.326  1.0906 -0.8213  0.1141
 5493TIP3    H237971   1.993   0.527  11.195 -0.9576  0.5378 -0.5391
 5494TIP3   OH237972   3.067   1.215  16.697 -0.5274 -0.3094 -0.7074
 5494TIP3    H137973   3.071   1.220  16.601 -0.6354  0.5385 -0.6784
 5494TIP3    H237974   3.148   1.257  16.726  0.2314 -1.9085 -0.4430
 5495TIP3   OH237975   1.810   3.284   1.280 -0.4358  0.0992  0.5400
 5495TIP3    H137976   1.810   3.254   1.190  0.0355  1.2833  0.1273
 5495TIP3    H237977   1.855   3.368   1.278 -0.4057  0.1476  1.8813
 5496TIP3   OH237978   1.005   3.421   2.649  0.6915 -0.1105 -0.4335
 5496TIP3    H137979   1.092   3.430   2.688  0.9479 -0.7609 -0.8418
 5496TIP3    H237980   0.971   3.510   2.645  0.4910 -0.0531  1.6499
 5497TIP3   OH237981   3.340   1.913  16.837  1.0804  0.2391  0.3920
 5497TIP3    H137982   3.391   1.943  16.912  0.8374  1.5160  0.0711
 5497TIP3    H237983   3.356   1.979  16.770  1.0013 -0.6870 -0.5670
 5498TIP3   OH237984   4.166   3.986  14.165 -0.8652  0.3189  0.0988
 5498TIP3    H137985   4.195   3.895  14.156 -3.8502 -0.7628  0.4643
 5498TIP3    H237986   4.196   4.028  14.085  1.7422 -0.5614  0.4936
 5499TIP3   OH237987   4.045   3.181   6.031 -0.2968  0.3660 -0.0821
 5499TIP3    H137988   4.004   3.229   6.104 -1.3059  0.5781 -0.7707
 5499TIP3    H237989   4.056   3.092   6.065  0.3632  0.7481  0.7438
 5500TIP3   OH237990   4.972   3.788   4.450  0.6293  0.6205  0.2811
 5500TIP3    H137991   4.949   3.768   4.359  0.4362  0.5754  0.3398
 5500TIP3    H237992   4.891   3.821   4.489 -0.0110 -1.7379  1.1344
 5501TIP3   OH237993   3.409   0.172   5.647 -0.3027 -0.3485  0.5725
 5501TIP3    H137994   3.379   0.184   5.557  0.6321  1.9241  0.4870
 5501TIP3    H237995   3.339   0.209   5.701 -0.7307 -1.4418  0.7918
 5502TIP3   OH237996   2.709   4.027   0.551  0.1076 -0.1287  0.0566
 5502TIP3    H137997   2.733   4.100   0.607 -0.7449 -0.3820  0.7610
 5502TIP3    H237998   2.637   3.983   0.596 -0.7516 -0.2072 -1.3265
 5503TIP3   OH237999   6.145   3.104   3.588  0.2568 -0.0308 -0.0444
 5503TIP3    H138000   6.159   3.095   3.494  0.6279 -0.7148  0.0721
 5503TIP3    H238001   6.083   3.177   3.596 -1.2561 -1.1592 -0.9103
 5504TIP3   OH238002   4.555   2.842  16.829 -0.1786  0.0022 -0.3118
 5504TIP3    H138003   4.571   2.927  16.788  1.2143 -0.1641 -0.1623
 5504TIP3    H238004   4.571   2.858  16.922 -0.2515 -0.3459 -0.2400
 5505TIP3   OH238005   1.495   4.718   5.165  0.1198  0.1779  0.0087
 5505TIP3    H138006   1.512   4.677   5.080 -0.4505 -0.5240  0.2157
 5505TIP3    H238007   1.405   4.692   5.186  0.4974 -0.2706  1.1503
 5506TIP3   OH238008   6.187   1.528   0.107 -0.6021 -0.7625  0.5580
 5506TIP3    H138009   6.239   1.485   0.175  0.6546 -0.5784 -0.2512
 5506TIP3    H238010   6.131   1.589   0.154 -0.7830 -1.6428  1.5317
 5507TIP3   OH238011   5.431   2.320   0.662  0.1208  0.0019 -0.6027
 5507TIP3    H138012   5.457   2.324   0.754  2.8018  0.4534 -1.2937
 5507TIP3    H238013   5.357   2.380   0.655  0.6495  0.8861  1.0287
 5508TIP3   OH238014   1.360   1.647   5.478 -0.2943  0.0007  0.0156
 5508TIP3    H138015   1.335   1.684   5.563 -0.9402  0.6820 -0.4568
 5508TIP3    H238016   1.433   1.701   5.448  0.1187 -0.4160  0.2578
 5509TIP3   OH238017   0.859   6.424  11.667 -0.1328  0.2763 -0.3498
 5509TIP3    H138018   0.921   6.424  11.740  1.1371 -2.0796 -1.3102
 5509TIP3    H238019   0.773   6.420  11.709  0.3782  2.1292  1.0052
 5510TIP3   OH238020   1.819   5.220  11.463 -0.2681 -0.9667 -1.1034
 5510TIP3    H138021   1.731   5.234  11.428 -0.3395 -0.2743 -0.6579
 5510TIP3    H238022   1.870   5.188  11.388 -0.3645  0.7002 -1.9104
 5511TIP3   OH238023   1.281   2.518   5.223  0.7212 -0.1743 -0.5043
 5511TIP3    H138024   1.317   2.438   5.263 -1.6014 -2.1915 -2.1067
 5511TIP3    H238025   1.198   2.531   5.269  2.0490  2.8001  1.3094
 5512TIP3   OH238026   4.030   2.372  17.096 -0.2861  0.2084 -0.5003
 5512TIP3    H138027   4.106   2.385  17.154 -0.5106  0.5302 -0.2706
 5512TIP3    H238028   3.954   2.384  17.153 -0.5166  1.3824 -1.0240
 5513TIP3   OH238029   4.836   2.923  14.767 -0.0218  0.2258 -0.0782
 5513TIP3    H138030   4.774   2.941  14.838  1.8052  0.2045  1.6168
 5513TIP3    H238031   4.837   3.004  14.716  0.1148  1.0265  1.1365
 5514TIP3   OH238032   3.364   2.920   6.108  0.3719  0.2029 -0.4509
 5514TIP3    H138033   3.374   2.834   6.147  0.6452  0.8586  0.9777
 5514TIP3    H238034   3.307   2.968   6.168 -0.3358  0.8166 -1.5710
 5515TIP3   OH238035   3.130   6.758   4.410 -0.8370  0.1980  0.2296
 5515TIP3    H138036   3.220   6.791   4.404 -0.5842 -0.7620 -1.9836
 5515TIP3    H238037   3.138   6.679   4.464 -0.7554  1.2270  1.8160
 5516TIP3   OH238038   3.611   4.518   5.201  0.3060  0.0823  0.7691
 5516TIP3    H138039   3.610   4.583   5.131 -1.3396  0.0303  0.6952
 5516TIP3    H238040   3.641   4.437   5.159  1.7723  0.6191  0.7297
 5517TIP3   OH238041   6.784   2.306  11.750  0.1560  0.1382 -0.4244
 5517TIP3    H138042   6.724   2.332  11.820 -2.4286 -0.9903 -2.0607
 5517TIP3    H238043   6.833   2.233  11.787 -0.0995  0.5151  0.6967
 5518TIP3   OH238044   4.998   2.213  15.754 -0.5603  0.2544 -0.1757
 5518TIP3    H138045   4.970   2.242  15.841 -0.3892 -0.5010  0.1352
 5518TIP3    H238046   4.917   2.200  15.706 -0.8492 -2.2861  0.8359
 5519TIP3   OH238047   4.030   5.085  14.606 -0.1405 -0.3893 -0.0017
 5519TIP3    H138048   4.116   5.100  14.646 -1.2153  1.4751  1.8418
 5519TIP3    H238049   4.022   5.154  14.540 -0.3402 -0.3705  0.0428
 5520TIP3   OH238050   4.252   1.378  15.969  0.4088 -0.4418 -0.0813
 5520TIP3    H138051   4.233   1.428  16.049  0.7940 -1.7180  0.8330
 5520TIP3    H238052   4.345   1.392  15.953 -0.1784  2.0741 -1.9536
 5521TIP3   OH238053   3.881   6.450  11.861  0.0461  0.6659 -0.4817
 5521TIP3    H138054   3.815   6.432  11.928 -0.7324  0.7609 -1.1958
 5521TIP3    H238055   3.830   6.459  11.780  0.7849  2.2425 -0.7991
 5522TIP3   OH238056   6.531   3.313   3.109 -0.5684 -0.0583 -0.0938
 5522TIP3    H138057   6.548   3.407   3.116 -2.2764  0.1930  1.0413
 5522TIP3    H238058   6.439   3.307   3.085 -0.5135 -1.4542 -0.0098
 5523TIP3   OH238059   3.467   4.169   2.185  0.3843 -0.0834 -0.5043
 5523TIP3    H138060   3.422   4.253   2.174  1.0766  0.3940  0.1690
 5523TIP3    H238061   3.399   4.110   2.219 -0.4920 -0.2323 -2.4169
 5524TIP3   OH238062   0.955   3.843   5.597 -0.1324 -0.0085 -0.3397
 5524TIP3    H138063   1.025   3.800   5.547 -0.2443  0.9437 -1.3474
 5524TIP3    H238064   0.886   3.777   5.605 -0.8876  0.3536 -3.0660
 5525TIP3   OH238065   0.174   0.076   6.155  0.7798 -0.2316  0.4870
 5525TIP3    H138066   0.107   0.031   6.207 -0.1082 -0.1846 -0.5676
 5525TIP3    H238067   0.254   0.027   6.172 -0.2519 -2.6931 -1.0682
 5526TIP3   OH238068   6.394   3.372   3.696  0.3830 -0.4132 -0.5089
 5526TIP3    H138069   6.457   3.444   3.705  0.0906 -0.1488 -0.5583
 5526TIP3    H238070   6.400   3.325   3.779  0.0092  0.1311 -0.1724
 5527TIP3   OH238071   1.551   4.178   5.932 -0.1570 -0.5571 -0.0150
 5527TIP3    H138072   1.481   4.113   5.935 -2.7896  2.0972  1.5325
 5527TIP3    H238073   1.582   4.184   6.023  0.5550 -0.1467 -0.2768
 5528TIP3   OH238074   4.881   2.140   4.740  0.1354  1.0540  0.4509
 5528TIP3    H138075   4.886   2.230   4.708  1.3064 -0.4957 -4.6802
 5528TIP3    H238076   4.971   2.107   4.735 -0.4339 -0.7308  1.0417
 5529TIP3   OH238077   2.237   3.791   0.505 -0.1227  0.0127 -0.0761
 5529TIP3    H138078   2.238   3.811   0.411  5.0853 -1.1840 -0.5701
 5529TIP3    H238079   2.264   3.874   0.547 -0.5026  0.0163  0.1630
 5530TIP3   OH238080   1.845   2.806   0.990 -0.4522 -0.1835  0.7931
 5530TIP3    H138081   1.816   2.847   1.072 -1.9476 -0.3185  0.3602
 5530TIP3    H238082   1.804   2.719   0.991  0.8481 -0.8156  0.6446
 5531TIP3   OH238083   4.339   5.643   5.489  0.2067  0.5827 -0.1619
 5531TIP3    H138084   4.397   5.594   5.547  0.2826  0.1724 -0.5759
 5531TIP3    H238085   4.390   5.718   5.461  0.2214  0.7032  0.1824
 5532TIP3   OH238086   3.567   1.951  15.252 -0.5013 -0.1470 -0.5006
 5532TIP3    H138087   3.510   1.961  15.175  0.2896  0.5297 -1.0115
 5532TIP3    H238088   3.566   1.857  15.270 -1.1665 -0.2438 -0.9742
 5533TIP3   OH238089   1.165   1.023   0.387 -0.4253  0.0317 -0.0260
 5533TIP3    H138090   1.131   0.973   0.312  2.0216  0.4555 -1.5455
 5533TIP3    H238091   1.191   0.956   0.450 -0.9439 -0.4058 -0.2660
 5534TIP3   OH238092   1.252   3.689  11.559 -0.0210 -0.2052 -0.3922
 5534TIP3    H138093   1.304   3.769  11.558  0.1873 -0.3329 -1.5170
 5534TIP3    H238094   1.165   3.717  11.588  0.0063  0.4673 -0.9219
 5535TIP3   OH238095   0.148   2.710  14.853  0.2497  0.1840 -0.2746
 5535TIP3    H138096   0.212   2.691  14.784  1.1054  0.1000  0.5217
 5535TIP3    H238097   0.065   2.718  14.807  0.7503 -0.2012 -1.2762
 5536TIP3   OH238098   4.002   2.537   3.137  0.3650 -0.0624  0.1593
 5536TIP3    H138099   4.039   2.603   3.080 -0.2560 -0.4055 -0.6646
 5536TIP3    H238100   3.910   2.562   3.146  0.6264  0.4527  1.6951
 5537TIP3   OH238101   3.828   0.151  15.395 -0.7397 -0.0419  0.1801
 5537TIP3    H138102   3.877   0.208  15.454  0.8510 -1.6605  0.5028
 5537TIP3    H238103   3.868   0.167  15.309 -0.8872 -0.0438  0.1112
 5538TIP3   OH238104   3.594   0.251   2.301 -0.1044  0.0049 -0.4531
 5538TIP3    H138105   3.615   0.183   2.364  0.2973  1.3567  0.9117
 5538TIP3    H238106   3.662   0.243   2.234 -0.6455 -1.5613 -0.8776
 5539TIP3   OH238107   5.273   5.645  11.935  0.1352  0.5017  0.2087
 5539TIP3    H138108   5.239   5.564  11.897 -0.1066  0.5819  0.2519
 5539TIP3    H238109   5.345   5.671  11.878  0.6187 -0.0793  0.5481
 5540TIP3   OH238110   4.432   3.232   0.342 -0.2120  0.2144  0.0606
 5540TIP3    H138111   4.503   3.171   0.321  0.7486  1.3150 -0.0278
 5540TIP3    H238112   4.453   3.311   0.292 -0.2062  1.3870  1.8152
 5541TIP3   OH238113   6.128   6.545   5.588 -0.6760  0.0788  0.2685
 5541TIP3    H138114   6.103   6.606   5.517  0.9674 -1.9312 -2.2121
 5541TIP3    H238115   6.223   6.551   5.591 -0.4926 -2.1882  0.0757
 5542TIP3   OH238116   2.002   2.281   5.134 -0.6557 -0.6604 -0.0427
 5542TIP3    H138117   2.040   2.368   5.121  1.4113 -1.6519 -1.2004
 5542TIP3    H238118   1.935   2.274   5.066  1.7432 -1.2678 -2.5150
 5543TIP3   OH238119   1.274   6.258   2.922 -0.0976  0.3401  0.1901
 5543TIP3    H138120   1.256   6.328   2.860  1.7026  0.7623  0.0803
 5543TIP3    H238121   1.191   6.213   2.933 -0.6417  0.7264 -1.9402
 5544TIP3   OH238122   5.271   1.808   0.159  0.3346 -0.6898 -0.3820
 5544TIP3    H138123   5.360   1.843   0.162 -0.1558  0.6166 -0.5829
 5544TIP3    H238124   5.220   1.875   0.113 -0.8322 -1.2485  0.0541
 5545TIP3   OH238125   2.185   6.069  13.263  0.7951  0.7636  0.1347
 5545TIP3    H138126   2.151   5.980  13.253  2.4222 -0.1443  1.9973
 5545TIP3    H238127   2.182   6.106  13.175 -2.1720 -0.2384 -0.2927
 5546TIP3   OH238128   0.601   5.138   6.288  0.2674  0.4245 -0.4948
 5546TIP3    H138129   0.524   5.097   6.248 -0.0366 -0.7307  1.1584
 5546TIP3    H238130   0.664   5.067   6.297  0.5740  0.7911  0.4249
 5547TIP3   OH238131   0.964   4.814   4.238 -0.0995  0.4439  0.8291
 5547TIP3    H138132   1.019   4.749   4.282 -0.3620 -0.0210  0.4784
 5547TIP3    H238133   0.875   4.790   4.262 -0.1606  1.2041  1.4063
 5548TIP3   OH238134   3.059   4.033   1.145  0.6210 -0.4801 -0.0352
 5548TIP3    H138135   3.116   4.110   1.151 -1.7157  1.2690  2.2814
 5548TIP3    H238136   2.997   4.054   1.075 -0.0586 -0.1881  0.6414
 5549TIP3   OH238137   6.439   1.171   0.706 -0.1744  0.4747  0.2293
 5549TIP3    H138138   6.393   1.114   0.645 -1.5653  0.1062  1.5473
 5549TIP3    H238139   6.473   1.243   0.652 -0.6326 -0.2619 -1.0704
 5550TIP3   OH238140   1.284   4.198   0.376 -0.0522  0.6053 -0.1229
 5550TIP3    H138141   1.249   4.212   0.288 -2.1239 -1.8751  0.1905
 5550TIP3    H238142   1.371   4.161   0.361 -0.5204 -0.1377 -1.1836
 5551TIP3   OH238143   5.640   5.410   0.264  0.1559  0.3279  0.4962
 5551TIP3    H138144   5.682   5.490   0.233  0.4862 -0.1449 -0.3177
 5551TIP3    H238145   5.555   5.439   0.298 -0.5000  0.8315 -1.4163
 5552TIP3   OH238146   6.063   1.678  16.178  0.0924 -0.5794 -0.8304
 5552TIP3    H138147   6.110   1.647  16.100  1.1756 -0.3865 -0.2827
 5552TIP3    H238148   6.060   1.601  16.235  0.7802 -0.2995 -0.3989
 5553TIP3   OH238149   4.553   2.162   5.279  0.1544 -0.0737  0.1461
 5553TIP3    H138150   4.637   2.145   5.322  0.8353 -0.6538 -1.3384
 5553TIP3    H238151   4.572   2.233   5.217 -0.8593  0.9211  0.9367
 5554TIP3   OH238152   5.682   6.330   1.958  0.6531 -0.2265  0.5174
 5554TIP3    H138153   5.748   6.270   1.989  1.9043  0.3989 -0.8242
 5554TIP3    H238154   5.688   6.326   1.863  0.1272  1.3013  0.3884
 5555TIP3   OH238155   3.492   6.658   2.473  0.0824  0.7864  0.3607
 5555TIP3    H138156   3.401   6.630   2.460  0.4975  0.0024 -1.1411
 5555TIP3    H238157   3.540   6.615   2.402  1.4173  2.2315  0.3452
 5556TIP3   OH238158   1.106   1.139  13.196 -0.5895  0.8583  0.1723
 5556TIP3    H138159   1.098   1.061  13.250  1.7227 -0.0108 -0.6191
 5556TIP3    H238160   1.019   1.180  13.200 -1.8062 -1.5849  0.8280
 5557TIP3   OH238161   5.142   0.385   4.032 -0.0608 -0.1721 -0.2646
 5557TIP3    H138162   5.074   0.317   4.031 -0.6983  0.1925  3.2270
 5557TIP3    H238163   5.216   0.343   4.076  0.3931  0.7164 -0.1717
 5558TIP3   OH238164   4.427   0.698  17.143  0.4686  0.2282 -0.1545
 5558TIP3    H138165   4.380   0.615  17.152  1.7790 -0.5558 -0.2453
 5558TIP3    H238166   4.506   0.687  17.195  0.0571  1.9415  0.9308
 5559TIP3   OH238167   4.363   5.547   5.192 -0.2723 -0.0878  0.0403
 5559TIP3    H138168   4.382   5.568   5.284  1.0002  0.3636 -0.2954
 5559TIP3    H238169   4.432   5.485   5.167 -1.8737 -1.9209 -0.0260
 5560TIP3   OH238170   5.799   5.002  11.487 -0.0170  0.4005 -0.5033
 5560TIP3    H138171   5.765   4.944  11.419 -0.4583  0.6493 -0.5024
 5560TIP3    H238172   5.803   5.088  11.445 -1.2259  0.7554  0.0530
 5561TIP3   OH238173   0.365   4.919   2.085 -0.0901 -0.3638 -0.1668
 5561TIP3    H138174   0.368   4.848   2.021  0.1791 -2.4961  2.0563
 5561TIP3    H238175   0.301   4.891   2.151 -1.0959  2.1822  0.0742
 5562TIP3   OH238176   4.086   5.661   4.166 -0.2978  0.3817  0.5104
 5562TIP3    H138177   4.127   5.696   4.245  0.6586  0.5713 -0.0459
 5562TIP3    H238178   4.117   5.719   4.096 -1.0646  0.1680 -0.0189
 5563TIP3   OH238179   3.054   3.238   0.828  0.6652  0.3179 -0.7088
 5563TIP3    H138180   3.092   3.244   0.740  0.1692  1.7854 -0.8479
 5563TIP3    H238181   3.125   3.263   0.887  1.0741 -0.9140 -0.6435
 5564TIP3   OH238182   2.897   4.195   3.656 -0.1803 -0.4450 -0.2261
 5564TIP3    H138183   2.910   4.111   3.612 -0.5837 -0.0976 -1.0501
 5564TIP3    H238184   2.832   4.240   3.601 -0.2577  0.2449  0.4186
 5565TIP3   OH238185   1.113   0.857  10.289  0.1626  0.3009  0.2936
 5565TIP3    H138186   1.159   0.838  10.371  4.0303 -0.8729 -1.8765
 5565TIP3    H238187   1.113   0.773  10.241 -2.3649  0.8365 -0.8276
 5566TIP3   OH238188   4.744   5.322  16.185 -0.4529  0.2120  0.0008
 5566TIP3    H138189   4.655   5.358  16.193 -1.8024 -2.8942  0.4518
 5566TIP3    H238190   4.741   5.271  16.104  0.9955  0.1520 -0.0353
 5567TIP3   OH238191   4.119   5.839  13.121 -0.4138  0.0852 -0.4137
 5567TIP3    H138192   4.187   5.884  13.071 -1.5103 -0.4627 -2.5304
 5567TIP3    H238193   4.043   5.897  13.116 -1.2940 -1.0888 -1.6269
 5568TIP3   OH238194   5.373   6.703  16.102  0.2978  0.7365 -0.2631
 5568TIP3    H138195   5.321   6.769  16.148 -0.5238  0.5880 -0.9741
 5568TIP3    H238196   5.312   6.633  16.081  1.3910 -0.8565  1.5488
 5569TIP3   OH238197   6.598   0.422   1.699  0.3530 -0.1276  0.6368
 5569TIP3    H138198   6.661   0.360   1.661 -0.3799 -0.2183 -0.4739
 5569TIP3    H238199   6.572   0.381   1.781 -1.4326 -2.2485 -0.8654
 5570TIP3   OH238200   4.672   6.272   0.237  0.1815  0.1237  0.0896
 5570TIP3    H138201   4.737   6.342   0.228 -0.4000  0.4802 -1.9824
 5570TIP3    H238202   4.677   6.246   0.329  1.7192  1.6093  0.4835
 5571TIP3   OH238203   2.706   0.366  13.750  0.4870  0.3024 -0.4707
 5571TIP3    H138204   2.791   0.374  13.793  0.0952 -0.9444  0.6103
 5571TIP3    H238205   2.723   0.314  13.672  0.9414  1.2173 -0.9844
 5572TIP3   OH238206   1.608   3.975  13.971 -0.2612  0.1835 -0.3794
 5572TIP3    H138207   1.658   3.941  14.044  1.4535  2.5648 -0.3109
 5572TIP3    H238208   1.522   3.998  14.008 -0.2916 -0.9473  0.2637
 5573TIP3   OH238209   3.815   4.515   2.864  0.3998 -0.2082 -0.3999
 5573TIP3    H138210   3.889   4.461   2.889  0.0779  0.0076  1.1283
 5573TIP3    H238211   3.742   4.454   2.853  0.3788 -0.2487 -0.0658
 5574TIP3   OH238212   5.562   1.763  15.780  0.0953  1.0052 -0.0426
 5574TIP3    H138213   5.480   1.727  15.746  1.4100 -2.4508  0.0467
 5574TIP3    H238214   5.559   1.747  15.874  1.3342 -0.3468 -0.1983
 5575TIP3   OH238215   4.938   0.068   2.667 -0.4094 -0.2585  0.3354
 5575TIP3    H138216   4.874   0.087   2.736 -1.0485 -1.9584  0.2469
 5575TIP3    H238217   4.961  -0.024   2.680  2.1028  0.3243  0.3884
 5576TIP3   OH238218   5.423   6.197   0.038  0.2827 -0.6601  0.0958
 5576TIP3    H138219   5.440   6.176   0.129 -0.7957  1.2809  0.8006
 5576TIP3    H238220   5.478   6.274   0.021 -1.3006  0.4656 -0.1279
 5577TIP3   OH238221   2.353   0.376   1.931  0.2147 -0.7367 -0.1314
 5577TIP3    H138222   2.334   0.407   2.019  3.9946  1.1444  0.1771
 5577TIP3    H238223   2.271   0.390   1.883 -0.5092  2.9252  1.8450
 5578TIP3   OH238224   0.638   2.623   3.028 -0.0327 -0.0135  0.5914
 5578TIP3    H138225   0.673   2.686   2.965 -0.5831 -0.1671  0.1261
 5578TIP3    H238226   0.552   2.657   3.052 -0.0091 -0.1849  0.9306
 5579TIP3   OH238227   6.799   6.405  16.150  0.0389  0.6632  0.1356
 5579TIP3    H138228   6.786   6.429  16.242  3.5457  0.8376  0.7220
 5579TIP3    H238229   6.819   6.488  16.107  1.3744  0.2249 -0.1209
 5580TIP3   OH238230   1.373   1.687   5.150 -0.8608 -0.0400 -0.4085
 5580TIP3    H138231   1.324   1.611   5.183 -1.1823 -0.2003 -1.2258
 5580TIP3    H238232   1.308   1.737   5.101 -0.4302  0.2757 -0.6570
 5581TIP3   OH238233   3.494   4.203  10.762 -0.2900  0.8220  0.6079
 5581TIP3    H138234   3.555   4.274  10.781 -0.8436  0.7490  3.0317
 5581TIP3    H238235   3.548   4.124  10.769 -0.2583  0.8629  0.8539
 5582TIP3   OH238236   6.447   4.357   0.926  0.3865  0.4916  0.2803
 5582TIP3    H138237   6.509   4.336   0.856  0.9599  1.2321  0.5414
 5582TIP3    H238238   6.362   4.363   0.883  1.0705  3.5705 -0.9381
 5583TIP3   OH238239   5.712   6.460  14.088 -0.1014 -0.0939  0.1932
 5583TIP3    H138240   5.677   6.490  14.172  0.1734 -0.2165  0.3514
 5583TIP3    H238241   5.645   6.401  14.054  0.8829 -2.0591  1.5044
 5584TIP3   OH238242   0.337   1.016   2.872  0.1040  0.2542  0.1869
 5584TIP3    H138243   0.345   1.106   2.901 -0.8463 -0.2468  2.2087
 5584TIP3    H238244   0.408   1.004   2.809  0.7128  2.1743  0.4494
 5585TIP3   OH238245   2.823   3.919  14.805 -0.1211 -0.3136  0.3812
 5585TIP3    H138246   2.848   3.850  14.866  0.2918  0.7868  1.4901
 5585TIP3    H238247   2.850   3.886  14.719  0.5052 -1.3117  0.9442
 5586TIP3   OH238248   5.564   4.640   2.775  0.1987  0.3613 -0.2834
 5586TIP3    H138249   5.518   4.565   2.736 -0.9845 -0.1863  2.0068
 5586TIP3    H238250   5.656   4.622   2.758 -0.1998 -0.1736 -2.1673
 5587TIP3   OH238251   1.699   3.060   5.144 -0.3138 -0.0356 -0.2631
 5587TIP3    H138252   1.679   3.114   5.221 -0.8525  1.6191 -1.5018
 5587TIP3    H238253   1.690   3.120   5.070  1.6128 -1.2030 -1.5290
 5588TIP3   OH238254   6.403   1.099   3.254 -0.2160 -0.2729 -0.4762
 5588TIP3    H138255   6.454   1.018   3.267 -0.3269 -0.1418  0.9796
 5588TIP3    H238256   6.455   1.150   3.192  2.2474  0.4634  2.0085
 5589TIP3   OH238257   1.003   2.072  12.998 -0.0065 -0.6046  0.3430
 5589TIP3    H138258   1.084   2.041  12.957 -1.1789 -2.0660 -0.9663
 5589TIP3    H238259   1.033   2.121  13.075  2.1836  0.2703 -0.9493
 5590TIP3   OH238260   0.522   4.311  16.049  0.1134 -0.0706 -0.1730
 5590TIP3    H138261   0.547   4.402  16.035  2.6706 -0.6850 -0.1447
 5590TIP3    H238262   0.571   4.284  16.127  2.2019 -2.3429 -2.0912
 5591TIP3   OH238263   3.772   3.702   3.605  0.3654  0.5247 -0.1725
 5591TIP3    H138264   3.794   3.737   3.519  2.0214 -2.7276 -1.2390
 5591TIP3    H238265   3.696   3.647   3.590  1.1430 -0.6993  0.2224
 5592TIP3   OH238266   0.631   6.376  14.361 -0.5586  0.1970 -0.4738
 5592TIP3    H138267   0.650   6.454  14.412  0.3377 -1.3145  1.6516
 5592TIP3    H238268   0.713   6.354  14.318 -1.0435  0.8798 -1.8079
 5593TIP3   OH238269   1.071   2.961  16.108  0.0895  0.2925  0.2331
 5593TIP3    H138270   1.049   2.915  16.189 -1.1188  1.2254  0.4634
 5593TIP3    H238271   0.988   2.997  16.078  0.4642 -0.2291 -1.5714
 5594TIP3   OH238272   5.617   5.899  15.378 -0.2759  0.1620 -0.5189
 5594TIP3    H138273   5.672   5.834  15.422  0.2435  2.2204  2.1110
 5594TIP3    H238274   5.674   5.939  15.312  0.1727 -0.3303 -0.4322
 5595TIP3   OH238275   4.713   3.448  11.408  0.5218  0.2030  0.7047
 5595TIP3    H138276   4.727   3.529  11.456  0.6112  0.1304  0.8026
 5595TIP3    H238277   4.650   3.399  11.460  0.4168  0.2378  0.6111
 5596TIP3   OH238278   4.349   3.903  11.230 -0.0547 -0.1369  0.0238
 5596TIP3    H138279   4.360   3.958  11.308 -3.9546 -0.6821  1.1955
 5596TIP3    H238280   4.382   3.817  11.257  0.9711  0.2681  0.1163
 5597TIP3   OH238281   3.718   3.646   1.198  0.4580 -0.4971  0.7249
 5597TIP3    H138282   3.807   3.612   1.209  1.0959  1.1537  0.9560
 5597TIP3    H238283   3.687   3.605   1.117  1.9257 -0.1266 -0.0715
 5598TIP3   OH238284   6.317   0.311   5.195  0.5332  0.5410  0.1990
 5598TIP3    H138285   6.313   0.381   5.131  1.6952  1.5745  1.2024
 5598TIP3    H238286   6.406   0.315   5.230 -0.2985  0.6145  2.4928
 5599TIP3   OH238287   1.438   2.639   5.437  0.4631  0.1955 -0.6597
 5599TIP3    H138288   1.410   2.728   5.459 -1.2255 -0.2503 -0.8725
 5599TIP3    H238289   1.389   2.617   5.357  1.1321 -0.7916 -0.8181
 5600TIP3   OH238290   5.304   4.538   0.832 -0.7073  0.3467 -0.4078
 5600TIP3    H138291   5.329   4.521   0.741 -0.2366  0.2829 -0.2674
 5600TIP3    H238292   5.220   4.584   0.826 -0.9439 -0.1397 -0.8561
 5601TIP3   OH238293   6.505   3.945  15.743 -0.0517  0.0968  0.2020
 5601TIP3    H138294   6.571   3.933  15.812  1.9854  0.3388 -1.5919
 5601TIP3    H238295   6.456   3.862  15.742  1.9808 -1.1750 -0.1034
 5602TIP3   OH238296   2.207   2.266  14.981  0.6867  0.6111  0.6651
 5602TIP3    H138297   2.229   2.290  15.071  0.6595 -0.6564  1.0216
 5602TIP3    H238298   2.156   2.185  14.989 -1.2455  1.6324 -0.3492
 5603TIP3   OH238299   0.232   5.523  14.945  0.4149 -0.0718  0.0269
 5603TIP3    H138300   0.309   5.485  14.904 -0.6299 -0.7037 -1.4549
 5603TIP3    H238301   0.165   5.455  14.937 -1.2297  1.6327 -1.7821
 5604TIP3   OH238302   0.425   2.817  12.415 -0.2840 -0.2960 -0.6864
 5604TIP3    H138303   0.402   2.844  12.504  0.5972  0.3002 -0.6349
 5604TIP3    H238304   0.410   2.895  12.361 -1.3437 -0.8063 -1.1710
 5605TIP3   OH238305   0.069   1.680  11.776  0.1427  0.3456 -0.4908
 5605TIP3    H138306   0.026   1.605  11.736  1.8965 -1.3166  0.5159
 5605TIP3    H238307   0.106   1.729  11.703 -2.6410  1.3979 -1.3119
 5606TIP3   OH238308   3.384   2.611  12.295 -0.9729 -0.3535 -0.7581
 5606TIP3    H138309   3.332   2.586  12.219  0.1110 -1.2362 -1.2500
 5606TIP3    H238310   3.374   2.538  12.356 -0.6103 -0.3747 -0.7167
 5607TIP3   OH238311   3.072   2.712   3.927  0.8716  0.1796  0.0949
 5607TIP3    H138312   2.987   2.673   3.909  1.6485 -1.3189 -0.5142
 5607TIP3    H238313   3.056   2.806   3.929 -0.7299 -0.0634 -0.3251
 5608TIP3   OH238314   4.297   4.421  13.212 -0.4018 -0.8461 -0.0631
 5608TIP3    H138315   4.257   4.484  13.153 -1.0689 -0.9654  0.2524
 5608TIP3    H238316   4.255   4.437  13.297  0.2353 -0.9594  0.2845
 5609TIP3   OH238317   6.531   0.578   5.492  0.2609 -0.1982 -0.4878
 5609TIP3    H138318   6.575   0.515   5.548 -0.6165  0.4068  0.9296
 5609TIP3    H238319   6.481   0.524   5.430  0.2327 -0.8926  0.1225
 5610TIP3   OH238320   3.346   5.355  13.981  0.1022 -0.5607 -1.1709
 5610TIP3    H138321   3.353   5.412  14.057 -0.5006 -1.3279 -0.5191
 5610TIP3    H238322   3.390   5.403  13.910 -0.4359  0.7033 -0.6637
 5611TIP3   OH238323   2.364   6.783  16.821 -0.0548  0.1789 -0.4187
 5611TIP3    H138324   2.399   6.762  16.735 -0.4715  1.9962 -1.0713
 5611TIP3    H238325   2.425   6.848  16.857  1.3787 -2.1045  1.6612
 5612TIP3   OH238326   3.937   2.986  16.877 -0.5559 -0.0386 -0.2367
 5612TIP3    H138327   3.856   3.038  16.878 -0.9100 -0.3544 -3.2466
 5612TIP3    H238328   3.992   3.029  16.812 -0.0010 -2.1845 -1.2547
 5613TIP3   OH238329   6.035   6.069   4.609  0.2263  0.0134 -0.0691
 5613TIP3    H138330   6.108   6.130   4.621 -1.2193  1.4334  1.9469
 5613TIP3    H238331   6.036   6.014   4.688 -0.7786 -0.0708 -0.1031
 5614TIP3   OH238332   3.084   0.744  16.014 -0.4670  0.5309 -0.1573
 5614TIP3    H138333   3.076   0.793  16.096 -2.8184 -2.1656  1.4362
 5614TIP3    H238334   3.174   0.711  16.015 -0.2969  0.9595  1.1091
 5615TIP3   OH238335   4.696   0.066  10.962  0.1203  0.9186  0.1124
 5615TIP3    H138336   4.741   0.148  10.981 -0.1716  1.3288 -0.9350
 5615TIP3    H238337   4.686   0.065  10.867  0.0567 -0.2998  0.1188
 5616TIP3   OH238338   6.264   5.138  12.572  0.2435  0.0455 -0.1649
 5616TIP3    H138339   6.320   5.189  12.629  1.4120  0.3660 -1.5327
 5616TIP3    H238340   6.264   5.186  12.489  0.5413 -1.6094 -1.1713
 5617TIP3   OH238341   0.136   2.083   0.852 -0.5769  0.2838  0.0110
 5617TIP3    H138342   0.224   2.119   0.862 -0.3106  0.3070 -2.0083
 5617TIP3    H238343   0.103   2.076   0.941  2.0664 -1.2511  0.9661
 5618TIP3   OH238344   5.801   6.372   6.420 -0.0237  0.0149  0.4493
 5618TIP3    H138345   5.859   6.441   6.387 -1.4132  1.8121  1.6110
 5618TIP3    H238346   5.726   6.419   6.457 -2.0579 -2.1899 -0.6086
 5619TIP3   OH238347   5.241   1.646   4.963 -0.3651  0.2082  0.1586
 5619TIP3    H138348   5.160   1.697   4.973 -0.2075  0.1749  2.0365
 5619TIP3    H238349   5.311   1.708   4.986  0.2660  0.4500 -2.1454
 5620TIP3   OH238350   5.938   3.546  11.390 -0.2063  0.0473  0.5038
 5620TIP3    H138351   6.002   3.520  11.456 -0.6295  0.1297  0.9563
 5620TIP3    H238352   5.967   3.633  11.360 -0.0297  0.0221  0.6059
 5621TIP3   OH238353   1.519   4.138  15.980  0.3261  0.2091  0.1309
 5621TIP3    H138354   1.470   4.139  15.897 -0.7441  0.2459  0.7557
 5621TIP3    H238355   1.611   4.128  15.953  0.0869  1.1612 -1.1056
 5622TIP3   OH238356   3.868   2.642   2.756  0.2832 -0.4762  0.5078
 5622TIP3    H138357   3.906   2.555   2.764 -1.2549 -1.0883  1.7995
 5622TIP3    H238358   3.944   2.701   2.747  1.3375 -1.9195 -0.5412
 5623TIP3   OH238359   2.755   2.886   1.136  0.0791 -0.2577 -0.2584
 5623TIP3    H138360   2.795   2.954   1.083  0.2746 -0.0247  0.1814
 5623TIP3    H238361   2.661   2.903   1.131 -0.0391 -1.1608 -1.7812
 5624TIP3   OH238362   5.987   5.930  14.450 -0.1242 -0.3717 -0.0887
 5624TIP3    H138363   6.077   5.957  14.468  0.3295 -2.2895  0.7532
 5624TIP3    H238364   5.938   6.012  14.446  1.5456  0.6861  0.0138
 5625TIP3   OH238365   6.249   4.496  10.264  0.2355  0.2860  0.7681
 5625TIP3    H138366   6.246   4.500  10.360  0.7826  0.8475  0.7696
 5625TIP3    H238367   6.334   4.458  10.244  0.0270 -0.0440  0.5055
 5626TIP3   OH238368   5.702   5.099   2.641 -0.5855 -0.2190 -0.1921
 5626TIP3    H138369   5.635   5.052   2.690 -0.9270  0.3592 -0.0893
 5626TIP3    H238370   5.657   5.129   2.562 -0.7976  1.2285  0.4530
 5627TIP3   OH238371   2.837   1.011  14.909 -0.1092 -0.6216  0.7722
 5627TIP3    H138372   2.768   1.040  14.968  1.1250  2.8967  0.7159
 5627TIP3    H238373   2.893   0.956  14.963 -0.7269 -0.1000  1.9951
 5628TIP3   OH238374   5.676   3.014  14.042  0.5097  0.4477 -0.2124
 5628TIP3    H138375   5.701   3.096  14.001  0.3291  0.5484 -0.1195
 5628TIP3    H238376   5.639   2.961  13.972 -0.7081  0.9887  0.0112
 5629TIP3   OH238377   1.081   4.929   0.784  0.2714 -0.4675  0.6462
 5629TIP3    H138378   1.060   4.836   0.773  0.5634 -0.5228  0.5624
 5629TIP3    H238379   1.118   4.955   0.699 -1.2393  0.1045  0.1268
 5630TIP3   OH238380   5.584   0.575   4.291  0.0444 -0.6061 -0.6292
 5630TIP3    H138381   5.645   0.537   4.354  3.0339 -1.8502 -3.9688
 5630TIP3    H238382   5.504   0.523   4.301 -0.2630  0.2849  3.0394
 5631TIP3   OH238383   0.533   4.987   5.115 -0.0372  0.4400  0.8696
 5631TIP3    H138384   0.450   5.020   5.080  0.1193  0.4258  0.4843
 5631TIP3    H238385   0.587   4.970   5.038  0.3961  0.6298  1.1268
 5632TIP3   OH238386   0.233   0.956   1.287 -0.3718 -0.4468  0.2125
 5632TIP3    H138387   0.294   1.027   1.306 -0.4798  0.4672 -2.4341
 5632TIP3    H238388   0.290   0.881   1.269 -0.2053 -0.6590  1.5348
 5633TIP3   OH238389   6.395   4.420   0.366 -0.5066 -0.2018  0.2919
 5633TIP3    H138390   6.309   4.379   0.378  0.1486 -1.5680  0.5668
 5633TIP3    H238391   6.403   4.431   0.271 -0.8962 -0.2667  0.2509
 5634TIP3   OH238392   3.273   5.996  13.894 -0.1208 -0.2952 -0.1125
 5634TIP3    H138393   3.196   6.052  13.907  1.2972  1.7848 -0.1618
 5634TIP3    H238394   3.323   6.004  13.976  0.8651 -0.2217 -0.7040
 5635TIP3   OH238395   2.477   2.039   0.474  0.4651 -0.5929  0.2658
 5635TIP3    H138396   2.563   2.006   0.448  1.0762  0.4876  0.8597
 5635TIP3    H238397   2.468   2.122   0.427 -1.0173 -1.5100 -1.1555
 5636TIP3   OH238398   3.689   4.297  12.448 -0.1666  0.1363 -0.3932
 5636TIP3    H138399   3.704   4.391  12.433  1.0258  0.0381  0.0820
 5636TIP3    H238400   3.703   4.257  12.362  0.2300  0.2898 -0.4007
 5637TIP3   OH238401   4.449   1.038   2.493  0.0499 -0.1835 -0.1969
 5637TIP3    H138402   4.534   1.044   2.450 -0.2730  2.1113 -0.6560
 5637TIP3    H238403   4.435   1.125   2.532 -0.8986 -1.3165  2.2322
 5638TIP3   OH238404   2.237   4.703   4.895  0.4294 -0.6163 -0.1166
 5638TIP3    H138405   2.333   4.702   4.901  0.7770  4.4234 -0.4093
 5638TIP3    H238406   2.209   4.751   4.973 -1.3323  1.8916 -2.1291
 5639TIP3   OH238407   2.600   5.641   5.420 -0.0300 -0.0093 -0.1899
 5639TIP3    H138408   2.685   5.597   5.413  0.2379  0.5155 -0.2879
 5639TIP3    H238409   2.559   5.628   5.335  1.1001  2.0391 -1.1315
 5640TIP3   OH238410   0.913   1.990   2.890  0.1580  0.2357 -0.2418
 5640TIP3    H138411   0.935   1.986   2.983  0.7254 -3.2606 -0.3995
 5640TIP3    H238412   0.957   2.069   2.859  1.3645  0.6106  2.1376
 5641TIP3   OH238413   0.675   6.297  15.069 -0.5754  0.9924  0.5366
 5641TIP3    H138414   0.663   6.383  15.028  0.3128  0.9590  0.1905
 5641TIP3    H238415   0.635   6.306  15.156  0.2916  2.0472  0.8561
 5642TIP3   OH238416   5.467   2.645   1.240  0.0420 -0.5060  0.4983
 5642TIP3    H138417   5.497   2.728   1.278  0.7226 -0.0348 -1.0132
 5642TIP3    H238418   5.372   2.647   1.252 -0.0334  0.8225 -0.1349
 5643TIP3   OH238419   5.878   2.644   5.057  0.1441  0.1896  0.1737
 5643TIP3    H138420   5.865   2.550   5.048 -1.4351  0.4716 -1.1030
 5643TIP3    H238421   5.793   2.678   5.084  0.3681  1.3617 -0.4861
 5644TIP3   OH238422   4.211   1.160  16.141 -0.0487  0.3137 -0.2182
 5644TIP3    H138423   4.239   1.206  16.063  0.5806 -0.3180 -0.3701
 5644TIP3    H238424   4.115   1.169  16.140 -0.1238 -0.3880 -1.5053
 5645TIP3   OH238425   3.887   3.215  15.033  0.3260 -0.1642 -0.5062
 5645TIP3    H138426   3.949   3.279  15.067  0.3632 -0.4500 -0.0234
 5645TIP3    H238427   3.853   3.170  15.110 -0.0038 -0.4480 -0.8076
 5646TIP3   OH238428   2.748   6.005   4.978 -0.2084  0.4938  0.1097
 5646TIP3    H138429   2.668   5.964   4.946  0.5888 -0.8064 -0.3077
 5646TIP3    H238430   2.795   6.031   4.899  0.5211 -0.2742  0.2697
 5647TIP3   OH238431   1.387   2.567   5.846 -0.1714  0.6466 -0.0037
 5647TIP3    H138432   1.325   2.607   5.907 -0.4065  0.0951  0.1312
 5647TIP3    H238433   1.419   2.640   5.792 -0.3560  1.0534  0.4336
 5648TIP3   OH238434   2.236   5.547   6.620 -0.0455 -0.3128 -0.2970
 5648TIP3    H138435   2.228   5.516   6.530  1.2939  1.4642 -1.0981
 5648TIP3    H238436   2.331   5.547   6.636 -0.2559 -0.4181  1.0613
 5649TIP3   OH238437   6.195   0.272  15.809  0.4025  0.4723 -0.3904
 5649TIP3    H138438   6.203   0.331  15.884 -3.3497  0.4368  0.2151
 5649TIP3    H238439   6.133   0.315  15.750  0.6074 -1.0727 -1.8160
 5650TIP3   OH238440   2.604   2.982  14.255  0.6208 -0.2566 -0.6975
 5650TIP3    H138441   2.606   3.078  14.260 -0.4930 -0.2481  0.1519
 5650TIP3    H238442   2.688   2.958  14.216  1.1926  1.0305 -0.3246
 5651TIP3   OH238443   2.161   3.870  16.257 -0.4194 -0.6892 -0.3150
 5651TIP3    H138444   2.120   3.956  16.247 -0.3280 -0.5375  0.4994
 5651TIP3    H238445   2.178   3.863  16.351 -1.5710 -2.1131 -0.1753
 5652TIP3   OH238446   2.374   5.794  14.882 -0.0715 -0.0741 -0.0309
 5652TIP3    H138447   2.348   5.727  14.946 -0.7917 -0.9103 -1.1644
 5652TIP3    H238448   2.291   5.826  14.846  0.3440 -1.2864 -2.2047
 5653TIP3   OH238449   4.761   3.178  13.118 -0.0783 -0.3854  0.2090
 5653TIP3    H138450   4.850   3.143  13.121 -0.0212 -0.2625 -0.0364
 5653TIP3    H238451   4.751   3.224  13.201 -0.1753 -1.0318  0.5620
 5654TIP3   OH238452   6.000   3.520  13.512 -0.0627  0.0826 -0.1508
 5654TIP3    H138453   6.041   3.567  13.585 -0.0957  0.4486 -0.3679
 5654TIP3    H238454   6.074   3.492  13.458  0.1591 -2.2094  1.1948
 5655TIP3   OH238455   6.144   1.614  11.712  0.1611  0.3689  0.5386
 5655TIP3    H138456   6.106   1.534  11.675 -0.4616  0.4429  0.9841
 5655TIP3    H238457   6.200   1.649  11.643  1.9544 -1.4416  1.0019
 5656TIP3   OH238458   6.210   2.989  12.148  0.0079  0.1144 -0.5381
 5656TIP3    H138459   6.165   3.019  12.069 -0.8019  1.5879  0.4124
 5656TIP3    H238460   6.153   3.019  12.220  0.9949 -0.6862  0.6219
 5657TIP3   OH238461   3.823   4.189   1.188  0.8591  0.6417  0.0756
 5657TIP3    H138462   3.845   4.113   1.242 -0.2803 -0.0287 -0.3685
 5657TIP3    H238463   3.797   4.257   1.251  1.2790  0.4713  0.4397
 5658TIP3   OH238464   5.243   0.168   4.252 -0.5065  0.4399  0.1498
 5658TIP3    H138465   5.177   0.223   4.294 -1.1597 -0.6658  0.6251
 5658TIP3    H238466   5.193   0.112   4.192  0.2540  1.0032 -1.0554
 5659TIP3   OH238467   6.064   2.336   1.519  0.2787  0.4672  0.3284
 5659TIP3    H138468   6.129   2.401   1.545  1.6324  0.1732 -2.0073
 5659TIP3    H238469   5.986   2.388   1.498  0.3566  1.0141  1.3426
 5660TIP3   OH238470   1.811   1.554  11.836  0.0344 -0.5976  0.4131
 5660TIP3    H138471   1.829   1.614  11.764 -0.1980 -1.2072 -0.1751
 5660TIP3    H238472   1.718   1.531  11.825  0.3023 -1.6259  0.1665
 5661TIP3   OH238473   2.780   4.983   3.005  0.0165  0.1205 -0.0346
 5661TIP3    H138474   2.714   4.998   2.937 -0.2868  4.2528  0.9125
 5661TIP3    H238475   2.862   5.009   2.964  0.7776 -2.4035 -0.3199
 5662TIP3   OH238476   2.429   1.961  16.621  0.7773 -0.4440 -0.2191
 5662TIP3    H138477   2.490   1.891  16.642 -1.8780 -3.0752 -0.7033
 5662TIP3    H238478   2.479   2.020  16.565  3.6200 -0.9374  1.5609
 5663TIP3   OH238479   4.807   3.217  12.361 -0.3115 -0.6906  0.4156
 5663TIP3    H138480   4.744   3.274  12.318 -1.2369 -1.3007  0.9248
 5663TIP3    H238481   4.806   3.136  12.311  2.7257  0.4159 -1.7518
 5664TIP3   OH238482   5.799   1.442  10.976  0.3392  0.3224  0.1354
 5664TIP3    H138483   5.814   1.489  11.057 -0.2554 -0.6649  0.8456
 5664TIP3    H238484   5.842   1.494  10.909  3.5386 -0.3769  1.4668
 5665TIP3   OH238485   6.710   4.012   3.178 -0.0204  0.3454 -0.3079
 5665TIP3    H138486   6.634   3.988   3.231 -2.1195  1.3933 -2.6251
 5665TIP3    H238487   6.697   3.967   3.095  0.7508  2.1494 -1.4806
 5666TIP3   OH238488   6.223   2.787  14.110 -0.1003 -0.0144 -0.0293
 5666TIP3    H138489   6.139   2.829  14.126  0.0013  0.8550 -1.5579
 5666TIP3    H238490   6.288   2.845  14.150 -0.0906  0.3770 -0.6044
 5667TIP3   OH238491   2.304   4.710  10.692  0.6423  0.1077  0.0808
 5667TIP3    H138492   2.301   4.719  10.597  0.2303 -0.7438  0.0051
 5667TIP3    H238493   2.229   4.655  10.713  2.2754 -2.0244  0.6268
 5668TIP3   OH238494   1.738   0.321   2.864  0.3620  0.3342 -0.0030
 5668TIP3    H138495   1.689   0.398   2.895  1.4486  1.2687 -0.5208
 5668TIP3    H238496   1.707   0.308   2.774  1.1613  1.0483 -0.4004
 5669TIP3   OH238497   0.034   0.320  13.927  0.3226  0.1470 -0.0321
 5669TIP3    H138498  -0.007   0.394  13.971  0.1886 -0.7990  1.5160
 5669TIP3    H238499   0.085   0.277  13.996  1.3521 -0.5184 -1.1766
 5670TIP3   OH238500   4.511   6.535  14.720  0.1424 -0.3767 -0.1973
 5670TIP3    H138501   4.473   6.573  14.799  0.3744 -1.3659  0.4086
 5670TIP3    H238502   4.456   6.459  14.701 -0.2270  0.1474 -1.3023
 5671TIP3   OH238503   3.148   6.023  16.452 -0.0309 -0.1862  0.2695
 5671TIP3    H138504   3.109   6.010  16.366  0.6929  0.8355 -0.2368
 5671TIP3    H238505   3.078   6.002  16.514 -1.0122  0.4588 -0.5944
 5672TIP3   OH238506   0.102   5.042  16.112 -0.3107  0.3661 -0.0128
 5672TIP3    H138507   0.008   5.058  16.108 -0.7266 -1.5701  1.1015
 5672TIP3    H238508   0.127   5.019  16.022 -0.6150  2.0180 -0.5690
 5673TIP3   OH238509   4.525   2.056   3.412 -0.6787 -0.0923  0.5258
 5673TIP3    H138510   4.477   1.985   3.453 -0.4848 -2.3644 -2.8201
 5673TIP3    H238511   4.458   2.116   3.380 -0.8895  0.5939  2.1511
 5674TIP3   OH238512   0.688   4.649   3.535  0.3673 -0.1789 -0.2340
 5674TIP3    H138513   0.777   4.661   3.567 -0.2608 -0.4750  1.7427
 5674TIP3    H238514   0.678   4.554   3.526  0.4043 -0.1195 -0.9354
 5675TIP3   OH238515   4.890   1.735  16.712  0.5746  0.3196  0.1873
 5675TIP3    H138516   4.808   1.783  16.695  0.0502 -0.1143  1.3495
 5675TIP3    H238517   4.946   1.799  16.756 -0.0697 -0.0339  1.6009
 5676TIP3   OH238518   1.296   1.606  15.279  0.4264 -0.0012  0.0801
 5676TIP3    H138519   1.362   1.604  15.210  1.4086 -1.8840  0.9863
 5676TIP3    H238520   1.346   1.622  15.359 -0.4714  0.4580  0.5593
 5677TIP3   OH238521   2.046   1.407   2.196 -1.1013  0.1010  0.6256
 5677TIP3    H138522   1.963   1.451   2.178  0.2248  1.7824 -1.9560
 5677TIP3    H238523   2.106   1.478   2.220  0.5887 -0.4544 -1.6565
 5678TIP3   OH238524   2.991   6.365  13.447  0.3084  0.0840 -0.3056
 5678TIP3    H138525   2.966   6.442  13.499  0.3666 -0.6137  0.7998
 5678TIP3    H238526   2.908   6.331  13.413  0.3510  1.0173 -1.3707
 5679TIP3   OH238527   0.122   6.199  14.539 -0.2458  0.0813 -0.0529
 5679TIP3    H138528   0.124   6.292  14.514  0.2971  0.6915  2.0509
 5679TIP3    H238529   0.192   6.190  14.604  0.5646 -2.1280 -1.1238
 5680TIP3   OH238530   2.122   5.639   4.788 -0.5070 -0.2835 -0.3910
 5680TIP3    H138531   2.071   5.639   4.706 -1.7293  2.8241  0.2373
 5680TIP3    H238532   2.064   5.596   4.851 -1.2992  0.9032 -0.2813
 5681TIP3   OH238533   1.950   0.895  16.303 -0.1445 -0.6293  0.3975
 5681TIP3    H138534   1.879   0.886  16.366  0.1588 -1.5298  0.6268
 5681TIP3    H238535   2.015   0.830  16.331  0.1808 -0.7474 -0.5907
 5682TIP3   OH238536   6.358   0.459   1.082  0.4991 -0.2452  0.3268
 5682TIP3    H138537   6.399   0.396   1.024  0.8812 -0.8143  1.1918
 5682TIP3    H238538   6.407   0.540   1.068 -0.2249 -0.0309 -1.0450
 5683TIP3   OH238539   4.183   6.163   5.896  0.1922  0.5499  0.1913
 5683TIP3    H138540   4.249   6.231   5.903  0.7495 -0.0349  0.6451
 5683TIP3    H238541   4.131   6.171   5.976  1.2369 -0.5548  1.0279
 5684TIP3   OH238542   6.365   2.612   0.967 -0.2049  0.0597  0.0948
 5684TIP3    H138543   6.453   2.646   0.984 -1.1189  1.2991  2.7637
 5684TIP3    H238544   6.375   2.563   0.885  3.2735 -1.0457  0.9834
 5685TIP3   OH238545   0.193   5.369  15.959  0.2395  0.2998 -0.2467
 5685TIP3    H138546   0.108   5.341  15.993  0.8281  0.0469  1.0825
 5685TIP3    H238547   0.190   5.464  15.961  0.0387  0.2899 -0.0229
 5686TIP3   OH238548   3.968   2.629  14.794  0.0469  0.5964  0.4590
 5686TIP3    H138549   3.947   2.585  14.877 -1.5791  0.1497 -0.1601
 5686TIP3    H238550   3.977   2.557  14.731  3.1447  0.7612  0.5356
 5687TIP3   OH238551   2.976   5.129   2.781  0.3876  0.2200  0.1888
 5687TIP3    H138552   2.908   5.187   2.745 -1.2045 -0.5060  1.8751
 5687TIP3    H238553   3.024   5.099   2.704 -1.6898  0.1647 -1.1840
 5688TIP3   OH238554   1.893   6.662   2.933  0.6087 -0.0759  0.3289
 5688TIP3    H138555   1.858   6.684   2.847 -0.7295  0.7166  1.0390
 5688TIP3    H238556   1.838   6.710   2.994 -0.5297 -3.0344  1.8173
 5689TIP3   OH238557   0.719   1.755  12.086 -0.7170  0.5781  0.7144
 5689TIP3    H138558   0.632   1.778  12.056 -1.0807 -0.7833  0.6590
 5689TIP3    H238559   0.773   1.753  12.007 -0.3402  2.5223  0.8759
 5690TIP3   OH238560   6.720   5.217   0.696  0.4696 -0.5165  0.6530
 5690TIP3    H138561   6.660   5.149   0.726 -1.5352  0.1352 -1.4627
 5690TIP3    H238562   6.689   5.297   0.739 -0.0073 -0.2399 -0.1705
 5691TIP3   OH238563   0.400   6.500  15.250 -0.1106  0.6304 -0.9331
 5691TIP3    H138564   0.412   6.521  15.157 -1.5829  2.5469 -0.7545
 5691TIP3    H238565   0.395   6.586  15.293  1.6819 -0.1996  1.1272
 5692TIP3   OH238566   1.535   2.326  12.843 -0.6252 -0.5418 -0.0669
 5692TIP3    H138567   1.500   2.279  12.767 -2.0767 -2.1171  1.4880
 5692TIP3    H238568   1.494   2.412  12.838 -0.0963 -0.3520 -1.4813
 5693TIP3   OH238569   1.458   0.691   2.745 -0.2634 -0.6024  0.0876
 5693TIP3    H138570   1.379   0.734   2.713 -0.6599 -0.5603  1.0780
 5693TIP3    H238571   1.426   0.622   2.803  0.4053 -1.1915 -0.2369
 5694TIP3   OH238572   1.928   2.378  10.609  0.0727  0.1802 -0.4605
 5694TIP3    H138573   1.868   2.342  10.674  1.9705 -1.9876  0.2694
 5694TIP3    H238574   1.894   2.348  10.525 -0.6730  0.2619 -0.1895
 5695TIP3   OH238575   0.893   6.109  12.159  0.3902  0.1417  0.0656
 5695TIP3    H138576   0.812   6.075  12.120  0.1795  0.0309  0.5877
 5695TIP3    H238577   0.896   6.068  12.246  1.3877 -0.4280 -0.2218
 5696TIP3   OH238578   2.757   1.549   2.928  0.1689  0.0159 -0.9187
 5696TIP3    H138579   2.711   1.629   2.951  1.6415  0.9272 -1.0487
 5696TIP3    H238580   2.841   1.578   2.892  1.2441 -1.6008  0.1528
 5697TIP3   OH238581   5.978   6.486  12.001 -0.1712 -0.0327 -0.0886
 5697TIP3    H138582   5.959   6.536  11.922  0.7761  0.5003  0.0064
 5697TIP3    H238583   6.006   6.400  11.970  0.9135  0.4094 -0.3820
 5698TIP3   OH238584   2.204   6.215   5.454 -0.8737 -0.0271 -0.2401
 5698TIP3    H138585   2.137   6.191   5.519 -0.3916  0.3545  0.4181
 5698TIP3    H238586   2.287   6.206   5.501 -0.5529  0.8683 -0.6057
 5699TIP3   OH238587   4.886   5.256  11.832  0.2904 -0.0080 -0.4001
 5699TIP3    H138588   4.900   5.332  11.775  0.1461  0.8253  0.6575
 5699TIP3    H238589   4.796   5.228  11.813  0.0593  0.5893 -0.1951
 5700TIP3   OH238590   6.600   0.221  14.523  0.2368  0.3733 -0.3728
 5700TIP3    H138591   6.553   0.209  14.605 -0.2804 -1.1877 -0.8593
 5700TIP3    H238592   6.531   0.229  14.457  0.6412  0.0392 -0.8429
 5701TIP3   OH238593   3.862   0.572  16.609 -0.4686 -0.2108 -0.2857
 5701TIP3    H138594   3.796   0.566  16.540  0.4130  0.7590 -1.2680
 5701TIP3    H238595   3.815   0.549  16.690 -1.8839  0.0176 -1.0070
 5702TIP3   OH238596   2.242   3.488   3.571  0.6325 -0.0005  0.1149
 5702TIP3    H138597   2.278   3.416   3.518 -0.6320 -0.4330 -0.2007
 5702TIP3    H238598   2.156   3.455   3.599  0.0153  1.4053 -0.0647
 5703TIP3   OH238599   2.550   2.897  13.775 -0.0097  0.0354 -0.2352
 5703TIP3    H138600   2.525   2.966  13.713  1.4931  0.0183 -0.9081
 5703TIP3    H238601   2.479   2.833  13.770 -0.1300  0.2334 -1.6533
 5704TIP3   OH238602   1.016   0.924   4.298 -0.3504 -0.1631 -0.1471
 5704TIP3    H138603   0.943   0.971   4.258 -2.9888 -3.4854  0.3057
 5704TIP3    H238604   1.064   0.887   4.224 -0.3412  0.3171 -0.3888
 5705TIP3   OH238605   2.006   6.145   5.692 -0.0817 -0.2481 -0.1050
 5705TIP3    H138606   2.039   6.172   5.778 -1.4124  0.7676  0.1071
 5705TIP3    H238607   1.942   6.211   5.669  1.7853  0.7646 -2.9035
 5706TIP3   OH238608   5.839   1.960   1.166 -0.2267 -0.0999  0.1284
 5706TIP3    H138609   5.802   1.876   1.194  0.4701 -0.1133  1.0663
 5706TIP3    H238610   5.857   2.006   1.248 -0.7029  1.0152 -0.3815
 5707TIP3   OH238611   0.172   1.353  11.323 -0.4956  0.0303 -0.4255
 5707TIP3    H138612   0.219   1.434  11.305 -0.3596 -0.0172 -0.2869
 5707TIP3    H238613   0.131   1.330  11.239  0.2698 -0.2758 -0.7221
 5708TIP3   OH238614   1.211   1.444   3.032 -0.1441 -0.4004 -0.0488
 5708TIP3    H138615   1.150   1.426   2.961  0.0822 -1.3635 -0.0206
 5708TIP3    H238616   1.158   1.441   3.112 -0.6043  1.7394 -0.2152
 5709TIP3   OH238617   4.106   2.950  12.701  0.6458  0.4728 -0.3500
 5709TIP3    H138618   4.135   2.888  12.634 -0.4464 -0.1262 -0.2907
 5709TIP3    H238619   4.182   2.960  12.758  1.3814  0.4915 -1.3035
 5710TIP3   OH238620   4.561   0.541   2.228 -1.0689 -0.0891 -0.6589
 5710TIP3    H138621   4.523   0.474   2.285 -1.0068  0.3252 -0.1239
 5710TIP3    H238622   4.491   0.563   2.166 -1.3381 -0.0950 -0.3551
 5711TIP3   OH238623   6.053   5.773   4.140 -0.5286  0.3619 -0.7338
 5711TIP3    H138624   6.066   5.842   4.206 -0.1299  0.7873 -1.2445
 5711TIP3    H238625   5.982   5.806   4.085 -0.6729  0.1346 -0.6856
 5712TIP3   OH238626   4.303   2.357   4.402 -0.0408 -0.2317 -0.3464
 5712TIP3    H138627   4.336   2.388   4.317  0.7297 -0.3801 -0.1033
 5712TIP3    H238628   4.332   2.423   4.464  1.2483 -1.1989  0.1154
 5713TIP3   OH238629   5.625   0.422  16.434  0.6446  0.6099 -0.2747
 5713TIP3    H138630   5.661   0.413  16.523  0.6945  2.8100 -0.0010
 5713TIP3    H238631   5.568   0.346  16.423  2.5471 -1.0434  0.6672
 5714TIP3   OH238632   4.406   3.641  14.027  0.4273 -0.1278 -0.7378
 5714TIP3    H138633   4.369   3.562  13.987  1.7028 -0.4339 -1.3740
 5714TIP3    H238634   4.402   3.707  13.958 -2.0919  0.9125  0.2553
 5715TIP3   OH238635   5.493   0.313   1.717 -0.6002 -0.0264 -0.1365
 5715TIP3    H138636   5.510   0.364   1.796  1.5567  3.1852 -2.4334
 5715TIP3    H238637   5.570   0.256   1.709 -0.6414 -0.0809 -0.1490
 5716TIP3   OH238638   4.130   3.788  13.681 -0.7157 -0.4403  0.4058
 5716TIP3    H138639   4.054   3.737  13.653 -0.4215 -0.3948 -0.5053
 5716TIP3    H238640   4.201   3.758  13.624 -0.0520 -0.4667  1.2302
 5717TIP3   OH238641   3.388   2.128  12.605 -0.2144  0.9704 -0.1013
 5717TIP3    H138642   3.299   2.100  12.628 -0.4092 -3.0671 -4.3360
 5717TIP3    H238643   3.383   2.152  12.513  3.3105 -1.7092 -1.2193
 5718TIP3   OH238644   6.763   0.754  15.297  0.1420 -0.5934 -0.2032
 5718TIP3    H138645   6.765   0.831  15.241 -0.4494 -0.0620  0.4874
 5718TIP3    H238646   6.847   0.755  15.342  0.8350 -1.3047 -1.4191
 5719TIP3   OH238647   1.230   5.136  13.620  0.5408 -0.5360 -0.1668
 5719TIP3    H138648   1.213   5.145  13.526 -0.8581 -1.2808 -0.0144
 5719TIP3    H238649   1.204   5.221  13.657  2.4499  0.2844 -0.5818
 5720TIP3   OH238650   1.547   4.861   0.404 -0.0222  0.1977 -0.4390
 5720TIP3    H138651   1.601   4.827   0.476 -0.8041 -0.5980 -0.2024
 5720TIP3    H238652   1.489   4.788   0.382 -0.6226  0.8512 -1.0546
 5721TIP3   OH238653   0.432   1.785   3.510  0.5427  0.8773 -0.5444
 5721TIP3    H138654   0.346   1.826   3.516  0.8145  1.5021 -0.8356
 5721TIP3    H238655   0.483   1.828   3.578  0.1007 -0.8357  0.9241
 5722TIP3   OH238656   3.063   0.263  16.900  0.1661  0.8117  0.3579
 5722TIP3    H138657   3.012   0.336  16.867  0.7719  1.2392  0.3491
 5722TIP3    H238658   3.150   0.300  16.916  0.1707  0.3731  1.4259
 5723TIP3   OH238659   2.620   4.069   5.371  0.3543 -0.0383 -0.5837
 5723TIP3    H138660   2.590   4.007   5.304  0.7382 -0.9549  0.0729
 5723TIP3    H238661   2.541   4.090   5.421  0.6524 -2.1933  0.9382
 5724TIP3   OH238662   0.924   1.133   2.865 -0.7591 -0.0087  0.0800
 5724TIP3    H138663   0.834   1.164   2.876 -1.4228 -1.2435 -1.4479
 5724TIP3    H238664   0.970   1.206   2.823 -1.8564 -0.3882 -1.9133
 5725TIP3   OH238665   5.816   6.014   1.705 -0.2565  0.6509  0.6055
 5725TIP3    H138666   5.868   5.934   1.707 -1.5535 -0.2231  2.5720
 5725TIP3    H238667   5.869   6.078   1.753  0.1680  0.5455  0.2746
 5726TIP3   OH238668   0.504   2.973   4.306  0.0827  0.3114  0.2632
 5726TIP3    H138669   0.599   2.958   4.310 -0.0149 -0.2147  0.7817
 5726TIP3    H238670   0.470   2.898   4.259  0.0083  0.9464 -0.7172
 5727TIP3   OH238671   6.663   3.980   4.371 -0.3203 -0.2649  0.5418
 5727TIP3    H138672   6.653   3.886   4.360 -1.1909 -0.4766  2.7550
 5727TIP3    H238673   6.578   4.016   4.347 -0.0520 -0.0347 -0.1012
 5728TIP3   OH238674   6.833   1.826  12.291  0.3136  0.1927 -0.0246
 5728TIP3    H138675   6.864   1.763  12.355 -2.2731 -0.3532  0.8226
 5728TIP3    H238676   6.836   1.779  12.207  0.2873 -0.3689  0.2896
 5729TIP3   OH238677   0.948   5.653   4.709  0.1395 -0.4022  0.3183
 5729TIP3    H138678   0.868   5.608   4.682 -0.3765  0.2446  0.7185
 5729TIP3    H238679   1.000   5.660   4.629  0.4353 -2.0813  0.3436
 5730TIP3   OH238680   5.805   3.551  16.754 -0.0494 -0.4533  0.5128
 5730TIP3    H138681   5.818   3.477  16.695  1.0121 -0.3939  0.6689
 5730TIP3    H238682   5.750   3.612  16.703  0.3262 -0.6812 -0.1723
 5731TIP3   OH238683   2.952   1.484   0.995  0.5776 -0.6922  0.2770
 5731TIP3    H138684   2.865   1.502   1.031  0.0234  0.9064 -1.6489
 5731TIP3    H238685   2.939   1.407   0.940  0.0595  0.1728 -0.8660
 5732TIP3   OH238686   1.360   5.081   4.329 -0.1273 -0.1627 -0.2322
 5732TIP3    H138687   1.326   5.058   4.416  1.0099  1.0098  0.5668
 5732TIP3    H238688   1.455   5.079   4.339  0.0475 -1.0018 -1.7563
 5733TIP3   OH238689   0.401   5.345  14.748  0.7834 -0.1002 -0.0513
 5733TIP3    H138690   0.336   5.404  14.709  1.4356  0.8954  0.3320
 5733TIP3    H238691   0.451   5.312  14.673 -0.4785 -1.3037 -0.4075
 5734TIP3   OH238692   2.261   4.020   1.927  0.4141 -0.0368  0.4067
 5734TIP3    H138693   2.284   3.992   1.839  2.6027 -0.3144  0.9987
 5734TIP3    H238694   2.308   3.959   1.985 -0.7769  0.2760  1.7677
 5735TIP3   OH238695   1.252   5.024   4.945 -0.6120  0.3644 -0.3704
 5735TIP3    H138696   1.248   4.928   4.947 -1.9198  0.4077  1.2812
 5735TIP3    H238697   1.176   5.051   4.894  0.3701  0.5435 -1.8056
 5736TIP3   OH238698   4.756   1.610  14.809  0.1263 -0.4140  0.6755
 5736TIP3    H138699   4.670   1.619  14.770  0.6511 -1.4075 -0.8162
 5736TIP3    H238700   4.777   1.697  14.842 -1.5756 -0.2430  1.3861
 5737TIP3   OH238701   1.241   2.963   3.071  0.4654  0.1959 -0.2823
 5737TIP3    H138702   1.270   2.877   3.102 -0.9082 -0.5368 -0.9321
 5737TIP3    H238703   1.158   2.979   3.117 -0.1027  0.4209 -1.3490
 5738TIP3   OH238704   5.690   2.191  14.059 -0.0463  0.1275  0.2907
 5738TIP3    H138705   5.719   2.215  13.971 -0.0417 -0.5776  0.0962
 5738TIP3    H238706   5.769   2.159  14.103 -0.5104 -2.0034 -0.3092
 5739TIP3   OH238707   0.027   5.773  15.827  0.4106  0.2948 -0.4130
 5739TIP3    H138708  -0.059   5.775  15.868  0.3124  0.0881 -0.6046
 5739TIP3    H238709   0.055   5.864  15.824 -0.2388  0.4864 -1.2502
 5740TIP3   OH238710   0.159   3.455  15.033  0.7633  0.2498  0.1720
 5740TIP3    H138711   0.164   3.538  14.986 -0.6480 -0.2371 -0.8893
 5740TIP3    H238712   0.163   3.388  14.965  1.5181 -0.5725  0.9876
 5741TIP3   OH238713   4.775   6.006   0.613 -0.2757  0.3065  0.5064
 5741TIP3    H138714   4.856   6.006   0.664  0.8521 -1.0465 -1.2242
 5741TIP3    H238715   4.799   6.042   0.528 -0.7217 -2.7705 -1.0701
 5742TIP3   OH238716   5.016   0.694  11.357 -0.4034  0.2045 -0.0529
 5742TIP3    H138717   5.041   0.613  11.311 -1.5163  0.7185 -1.6666
 5742TIP3    H238718   4.958   0.664  11.427  0.3756 -0.5042  0.3146
 5743TIP3   OH238719   1.757   0.169   4.543 -0.1455 -0.2832 -0.0665
 5743TIP3    H138720   1.673   0.163   4.498 -0.5354  0.2255  0.5850
 5743TIP3    H238721   1.778   0.078   4.565 -1.4630 -0.2506  1.4519
 5744TIP3   OH238722   6.111   3.725  15.097 -0.3013  0.2638 -0.0849
 5744TIP3    H138723   6.179   3.692  15.038 -0.9402  0.5743 -1.0309
 5744TIP3    H238724   6.038   3.665  15.084 -1.8239  2.4044 -2.5273
 5745TIP3   OH238725   0.254   4.635   4.859  0.1654  0.0541 -0.5552
 5745TIP3    H138726   0.270   4.729   4.862  0.9982 -0.0244 -1.8250
 5745TIP3    H238727   0.256   4.607   4.951  1.3756  1.0545 -0.2503
 5746TIP3   OH238728   2.635   3.243   1.419 -0.3040  0.0301 -0.0415
 5746TIP3    H138729   2.592   3.307   1.476 -0.8097  1.5056 -1.9647
 5746TIP3    H238730   2.575   3.169   1.416 -1.7781  1.2042 -1.0186
 5747TIP3   OH238731   0.280   6.129   6.212  0.4939 -0.1367  0.1462
 5747TIP3    H138732   0.313   6.103   6.297  0.1442 -0.2773  0.2408
 5747TIP3    H238733   0.191   6.093   6.208 -1.0917  3.2035  1.3968
 5748TIP3   OH238734   6.150   4.241  17.123 -0.6306  0.1055 -0.1005
 5748TIP3    H138735   6.143   4.168  17.062 -0.0643  0.1694 -0.2469
 5748TIP3    H238736   6.180   4.201  17.205 -1.9201 -0.0604  0.3095
 5749TIP3   OH238737   0.983   6.462  11.936 -0.1647 -0.1061 -0.3041
 5749TIP3    H138738   0.943   6.548  11.947  0.3381 -0.1084  2.0972
 5749TIP3    H238739   1.077   6.479  11.936  0.0051 -0.7784  2.2505
 5750TIP3   OH238740   5.399   2.961   0.875 -0.0147  0.4344 -0.3101
 5750TIP3    H138741   5.436   3.033   0.925 -0.1879  0.3008  0.0102
 5750TIP3    H238742   5.305   2.975   0.877 -0.2283 -0.9428  1.5467
 5751TIP3   OH238743   4.161   4.647   5.512  0.0593  0.1988 -0.1086
 5751TIP3    H138744   4.250   4.681   5.521  0.0236  0.3580 -0.3653
 5751TIP3    H238745   4.168   4.579   5.445 -0.0216  0.2438 -0.1620
 5752TIP3   OH238746   4.595   2.876   5.548  0.2210 -0.7635 -0.2176
 5752TIP3    H138747   4.533   2.854   5.479  0.7217 -1.0599 -0.5719
 5752TIP3    H238748   4.614   2.969   5.534  0.9565 -1.0214 -0.9899
 5753TIP3   OH238749   2.841   3.227  14.937 -0.3663  0.3703  0.2537
 5753TIP3    H138750   2.849   3.314  14.900  1.6848  0.4078  0.6837
 5753TIP3    H238751   2.865   3.168  14.866 -1.0748  0.1762  0.1664
 5754TIP3   OH238752   4.664   2.439  17.003  0.3259  0.2339 -0.4235
 5754TIP3    H138753   4.655   2.400  17.089  0.2875  1.3299  0.0921
 5754TIP3    H238754   4.589   2.407  16.953  0.1890 -0.1747  0.0404
 5755TIP3   OH238755   1.192   1.850   1.108 -0.3077  0.3765 -0.2298
 5755TIP3    H138756   1.174   1.925   1.164  2.8793  0.2001  1.2372
 5755TIP3    H238757   1.127   1.785   1.134  0.5683  0.5698  2.8398
 5756TIP3   OH238758   3.731   0.826  13.799 -0.4351 -0.1581 -0.0836
 5756TIP3    H138759   3.733   0.918  13.775 -0.5145 -0.0775  0.2083
 5756TIP3    H238760   3.729   0.779  13.716 -3.2249  0.1504 -0.2731
 5757TIP3   OH238761   3.773   6.370   0.042  0.2945 -0.4864  0.0766
 5757TIP3    H138762   3.779   6.282   0.080  1.3831 -0.2007  0.6304
 5757TIP3    H238763   3.689   6.404   0.073  0.7120 -0.6365  1.4582
 5758TIP3   OH238764   2.412   3.532  16.214  0.1550  0.5628 -0.3853
 5758TIP3    H138765   2.380   3.448  16.181 -0.3985  0.6810 -0.1502
 5758TIP3    H238766   2.472   3.563  16.146 -0.0244  0.2157 -0.7036
 5759TIP3   OH238767   4.079   6.709  13.674 -0.2425 -0.2040  0.0344
 5759TIP3    H138768   4.072   6.673  13.762 -0.7211 -1.8094 -0.6164
 5759TIP3    H238769   4.160   6.671  13.638 -0.6923 -0.5554 -0.6323
 5760TIP3   OH238770   2.806   6.442   4.958 -0.5715  0.1112  0.2266
 5760TIP3    H138771   2.860   6.420   5.035 -0.4454  0.4447  0.2326
 5760TIP3    H238772   2.862   6.497   4.904 -1.1812  1.1601  0.6314
 5761TIP3   OH238773   2.484   1.786   0.020 -0.3596  0.5919 -0.0406
 5761TIP3    H138774   2.454   1.859  -0.034  1.2330  1.3076 -0.0371
 5761TIP3    H238775   2.468   1.708  -0.033 -2.5351  0.8504  0.1503
 5762TIP3   OH238776   5.558   3.546  14.292  0.0767 -0.4226 -0.3809
 5762TIP3    H138777   5.590   3.520  14.378  0.9477  1.3322 -0.1176
 5762TIP3    H238778   5.466   3.518  14.290 -0.4194  0.8424  1.7555
 5763TIP3   OH238779   0.733   6.409  16.269  0.2431 -0.0184  0.8041
 5763TIP3    H138780   0.699   6.334  16.219  1.7574 -0.1820 -0.0462
 5763TIP3    H238781   0.817   6.379  16.304 -0.2962  0.4621  2.6180
 5764TIP3   OH238782   6.017   5.406  15.437  0.4175 -0.0630 -1.0268
 5764TIP3    H138783   6.018   5.497  15.466 -0.6180 -0.2722 -0.2721
 5764TIP3    H238784   6.098   5.368  15.472 -0.5254 -0.1678  1.1974
 5765TIP3   OH238785   4.361   1.265   0.402 -0.2879 -0.6523 -0.3528
 5765TIP3    H138786   4.383   1.327   0.472 -3.4941  1.1656 -0.7329
 5765TIP3    H238787   4.354   1.181   0.446 -0.7320  0.1799  1.2514
 5766TIP3   OH238788   1.545   2.963   4.798 -0.4006  0.3676 -0.1368
 5766TIP3    H138789   1.557   3.049   4.839  2.5481  0.6159 -1.2762
 5766TIP3    H238790   1.603   2.905   4.847  1.3371  0.1552 -2.3150
 5767TIP3   OH238791   6.645   5.581   2.022  0.2184  0.3505 -0.7859
 5767TIP3    H138792   6.712   5.602   2.087 -0.7201  1.7864 -0.2447
 5767TIP3    H238793   6.695   5.562   1.943  1.3597 -0.8652  0.1585
 5768TIP3   OH238794   0.353   4.456   5.091 -0.2689 -0.7259 -0.2559
 5768TIP3    H138795   0.332   4.490   5.179 -1.7882  1.7000 -1.4365
 5768TIP3    H238796   0.341   4.361   5.098  0.1293 -0.6505  2.2646
 5769TIP3   OH238797   2.851   2.143  12.461 -0.1284 -0.3928  0.3156
 5769TIP3    H138798   2.868   2.190  12.542 -0.9172  1.0367 -0.3120
 5769TIP3    H238799   2.869   2.206  12.391 -0.3788 -1.2898 -0.6005
 5770TIP3   OH238800   2.534   1.236  11.715 -0.1487 -0.0549  0.2663
 5770TIP3    H138801   2.484   1.212  11.638 -0.1467  0.9431 -0.0638
 5770TIP3    H238802   2.560   1.327  11.700  2.2580 -0.6766  0.1377
 5771TIP3   OH238803   1.906   1.474  16.811  0.6233  0.4849  0.4009
 5771TIP3    H138804   1.828   1.438  16.855  0.5721  0.4219  0.2587
 5771TIP3    H238805   1.878   1.487  16.720  0.1251  2.4242  0.7784
 5772TIP3   OH238806   0.569   4.853   2.232 -0.0011 -0.3625  0.4018
 5772TIP3    H138807   0.497   4.892   2.182  2.3054  1.3900 -1.8183
 5772TIP3    H238808   0.577   4.908   2.310  2.0010  2.7635 -1.7857
 5773TIP3   OH238809   0.016   2.937   0.383 -0.4694 -0.2931 -0.1981
 5773TIP3    H138810   0.097   2.985   0.398 -1.9910  2.0442  1.0339
 5773TIP3    H238811   0.006   2.881   0.460  0.8326 -2.0661 -1.2175
 5774TIP3   OH238812   1.471   6.643   1.692 -0.3998  0.0075  0.2677
 5774TIP3    H138813   1.520   6.577   1.742  0.4614  0.0254 -0.5290
 5774TIP3    H238814   1.435   6.595   1.618 -0.2573  0.3100  0.0004
 5775TIP3   OH238815   2.429   3.596  15.844 -0.2860 -0.1956 -0.9247
 5775TIP3    H138816   2.510   3.583  15.895  0.9455  2.7522 -1.9488
 5775TIP3    H238817   2.359   3.594  15.910  1.0195  1.0778  0.5820
 5776TIP3   OH238818   0.245   3.731  13.042 -0.1079  0.1503 -0.0167
 5776TIP3    H138819   0.192   3.652  13.049  0.6582 -0.3693  0.0328
 5776TIP3    H238820   0.333   3.699  13.020 -0.4218  1.1477 -3.1587
 5777TIP3   OH238821   2.522   2.485  12.238  0.4045  0.0974 -0.5764
 5777TIP3    H138822   2.457   2.522  12.178  0.9209  0.0672 -1.1662
 5777TIP3    H238823   2.587   2.444  12.181  0.1619 -1.1940  0.0494
 5778TIP3   OH238824   4.009   4.335  13.669 -0.7411 -0.6625 -0.2997
 5778TIP3    H138825   4.020   4.241  13.682  1.1146 -0.3435  0.7956
 5778TIP3    H238826   4.024   4.373  13.756  1.6774  0.8484 -1.2671
 5779TIP3   OH238827   4.784   3.489  13.786 -0.3781  0.5701  0.0401
 5779TIP3    H138828   4.757   3.573  13.748  0.0262  1.0834  0.8785
 5779TIP3    H238829   4.732   3.480  13.865 -1.0129 -0.3735 -0.4589
 5780TIP3   OH238830   5.799   4.026   6.431 -0.0204 -0.6778 -0.5222
 5780TIP3    H138831   5.861   3.972   6.480 -1.4977 -1.9800 -0.0071
 5780TIP3    H238832   5.754   3.965   6.373 -2.1030 -0.1505  0.4430
 5781TIP3   OH238833   6.252   0.078  14.185  0.1378 -0.2616  0.0882
 5781TIP3    H138834   6.171   0.123  14.209 -0.2392 -1.8902  2.1202
 5781TIP3    H238835   6.239   0.053  14.094 -0.7380  1.3395 -0.2602
 5782TIP3   OH238836   0.419   3.646   5.534  0.5930 -0.4707 -0.6451
 5782TIP3    H138837   0.442   3.558   5.503 -1.5037 -0.3803 -2.7773
 5782TIP3    H238838   0.447   3.648   5.626  1.6595 -2.9725 -0.8530
 5783TIP3   OH238839   1.929   1.947  13.950 -0.6409 -0.6488  0.0620
 5783TIP3    H138840   2.011   1.936  13.999  0.3464  0.8570 -1.1591
 5783TIP3    H238841   1.868   1.982  14.014  0.5691  1.1192  0.3214
 5784TIP3   OH238842   4.444   3.100   4.683  0.0752  0.0398  0.4229
 5784TIP3    H138843   4.366   3.155   4.681  0.6395  1.0541  2.7832
 5784TIP3    H238844   4.415   3.017   4.719  0.1104  0.5717  1.7416
 5785TIP3   OH238845   0.686   1.577   2.846  0.0521 -0.1788 -0.2665
 5785TIP3    H138846   0.597   1.609   2.829  0.4781  0.8730 -0.6581
 5785TIP3    H238847   0.714   1.626   2.923  0.2854 -0.4987 -0.1511
 5786TIP3   OH238848   1.692   6.100   0.499 -0.4252 -0.7081  0.2222
 5786TIP3    H138849   1.762   6.057   0.450 -0.6525 -0.1494 -0.6234
 5786TIP3    H238850   1.616   6.042   0.488 -0.1118 -1.2999  1.1170
 5787TIP3   OH238851   0.948   2.593   2.695 -0.4631 -0.2259 -0.0265
 5787TIP3    H138852   0.996   2.638   2.765  1.2815  2.4240 -2.6562
 5787TIP3    H238853   1.006   2.522   2.669  0.4343  0.7588 -0.8140
 5788TIP3   OH238854   3.499   6.249  10.781  0.6390 -0.3981  0.2247
 5788TIP3    H138855   3.513   6.220  10.690  2.4253  0.0123  0.3251
 5788TIP3    H238856   3.443   6.326  10.773 -0.7858 -1.4508 -0.3569
 5789TIP3   OH238857   4.984   3.455   2.179  0.3541  1.0765 -0.4991
 5789TIP3    H138858   4.925   3.519   2.140  0.5260  1.0653 -0.7811
 5789TIP3    H238859   4.927   3.383   2.205  0.1135  1.4857  0.1346
 5790TIP3   OH238860   5.035   2.549   3.849 -0.4102 -0.1282 -0.3199
 5790TIP3    H138861   4.962   2.493   3.822  0.0095  0.2693 -2.4246
 5790TIP3    H238862   4.998   2.637   3.850 -0.5969 -0.1969  1.2035
 5791TIP3   OH238863   1.170   5.516   0.561  0.4995  0.4796 -0.0848
 5791TIP3    H138864   1.151   5.584   0.496  0.3054  0.4918 -0.0162
 5791TIP3    H238865   1.246   5.549   0.609 -0.9806  1.7470  1.4867
 5792TIP3   OH238866   1.632   6.288   2.570  0.0790 -0.1288 -0.3669
 5792TIP3    H138867   1.683   6.288   2.488  0.6799 -1.2818 -0.0115
 5792TIP3    H238868   1.677   6.225   2.626 -1.0745 -0.2988  0.3934
 5793TIP3   OH238869   1.997   4.043  12.849 -0.1533  0.6358 -0.4253
 5793TIP3    H138870   1.967   4.078  12.765 -1.0442  0.0671 -0.3542
 5793TIP3    H238871   2.003   3.949  12.836  0.7629  0.6470 -0.1612
 5794TIP3   OH238872   4.440   5.412   1.085  0.0130  0.1116 -0.3219
 5794TIP3    H138873   4.467   5.379   1.171  2.4146  0.7299 -0.7501
 5794TIP3    H238874   4.507   5.379   1.025 -0.4213  1.4292 -1.5961
 5795TIP3   OH238875   1.248   6.747  17.090 -0.0231 -0.1039 -0.2791
 5795TIP3    H138876   1.182   6.714  17.150 -0.7869  0.5414 -0.7338
 5795TIP3    H238877   1.279   6.670  17.043 -2.4125 -0.1639 -1.9627
 5796TIP3   OH238878   2.033   2.606  15.884  0.2420  0.1515  0.1293
 5796TIP3    H138879   2.039   2.661  15.962 -1.8896 -0.7545  0.9818
 5796TIP3    H238880   1.969   2.650  15.828 -0.4994 -0.7551  0.2424
 5797TIP3   OH238881   3.606   0.972   3.549 -0.3448 -0.5215  0.2943
 5797TIP3    H138882   3.531   0.914   3.534  0.6703 -1.9386  0.5052
 5797TIP3    H238883   3.622   1.013   3.464 -0.7549 -0.9610  0.0016
 5798TIP3   OH238884   5.268   6.597   3.304 -0.2159  0.9007 -0.0459
 5798TIP3    H138885   5.313   6.602   3.389 -1.2160  2.8592  0.4240
 5798TIP3    H238886   5.275   6.505   3.279  2.0491  0.7004  1.0760
 5799TIP3   OH238887   1.062   4.889  14.037 -0.2721  0.3916  0.0197
 5799TIP3    H138888   1.124   4.901  14.109  1.8042  0.1742 -1.6616
 5799TIP3    H238889   1.049   4.795  14.031  2.4132  0.0609 -2.1001
 5800TIP3   OH238890   5.758   4.297  10.366  0.3861 -0.5855  0.0259
 5800TIP3    H138891   5.793   4.224  10.417 -1.3894 -2.7538 -1.6548
 5800TIP3    H238892   5.826   4.364  10.369  2.5256 -2.6790  0.8618
 5801TIP3   OH238893   5.335   4.532  15.144  0.5044 -0.4549 -0.4660
 5801TIP3    H138894   5.255   4.495  15.183 -0.0864 -1.1339 -2.1917
 5801TIP3    H238895   5.303   4.598  15.083  1.3946  0.6062  0.1954
 5802TIP3   OH238896   6.242   0.497   1.536  0.0713  0.1041  0.7468
 5802TIP3    H138897   6.276   0.586   1.550 -0.7778  0.8964 -1.6755
 5802TIP3    H238898   6.147   0.508   1.536 -0.0455 -0.8550  0.6532
 5803TIP3   OH238899   6.651   3.198  12.741 -0.5909 -0.1304  0.4332
 5803TIP3    H138900   6.653   3.177  12.648 -0.9630  1.3078  0.0845
 5803TIP3    H238901   6.560   3.185  12.767 -0.6288  0.1370  0.4364
 5804TIP3   OH238902   4.290   5.207  14.733  1.2508 -0.5067 -0.3483
 5804TIP3    H138903   4.380   5.234  14.716  1.3986 -0.7038  0.1092
 5804TIP3    H238904   4.267   5.248  14.816  1.6543 -2.1468  0.6115
 5805TIP3   OH238905   4.408   3.005  16.572  0.4405 -0.3780 -0.2507
 5805TIP3    H138906   4.441   2.915  16.576  0.4532 -0.3345  2.5219
 5805TIP3    H238907   4.472   3.056  16.622  1.1549  1.4864 -2.8996
 5806TIP3   OH238908   0.750   5.773   0.155  0.3540  0.7444  0.2314
 5806TIP3    H138909   0.711   5.706   0.211 -1.3292  1.2182 -0.3390
 5806TIP3    H238910   0.840   5.741   0.139  0.6450  0.2600  2.5779
 5807TIP3   OH238911   0.690   3.939   4.191  0.0918 -0.1214 -0.3532
 5807TIP3    H138912   0.680   3.988   4.110  1.0231 -0.8580 -0.9352
 5807TIP3    H238913   0.780   3.955   4.218  0.2174 -1.0089 -0.2213
 5808TIP3   OH238914   6.093   0.604   2.908 -0.1824 -0.3300 -0.2130
 5808TIP3    H138915   6.024   0.557   2.862 -0.4311  0.1237 -0.3066
 5808TIP3    H238916   6.092   0.567   2.997  0.4898 -1.3997 -0.6363
 5809TIP3   OH238917   0.906   6.610  14.254 -0.3518 -0.1603  0.4375
 5809TIP3    H138918   0.845   6.576  14.188 -0.8923 -0.4890  1.0883
 5809TIP3    H238919   0.893   6.705  14.252  0.5049 -0.0502 -0.7549
 5810TIP3   OH238920   0.807   1.261   3.289 -0.4021 -0.4052 -0.2910
 5810TIP3    H138921   0.760   1.200   3.232 -0.8662 -0.4280  0.1107
 5810TIP3    H238922   0.802   1.220   3.376 -2.3739  1.0961  0.3755
 5811TIP3   OH238923   3.442   2.286  11.695  0.3885  0.4317 -0.1815
 5811TIP3    H138924   3.502   2.344  11.743  0.7214 -0.2865  0.2809
 5811TIP3    H238925   3.455   2.200  11.734  0.4363 -0.1168 -1.3496
 5812TIP3   OH238926   3.029   4.606  16.314 -0.0194  0.3112 -0.2015
 5812TIP3    H138927   2.978   4.649  16.245 -0.7498  0.8912  0.6732
 5812TIP3    H238928   2.963   4.571  16.374  0.5836  1.3306  1.1098
 5813TIP3   OH238929   4.961   2.959   5.050  0.2007 -0.1854  0.4507
 5813TIP3    H138930   4.895   2.942   5.117 -0.9162 -2.1338 -1.0141
 5813TIP3    H238931   4.920   3.022   4.991  0.6294  0.4472  0.8150
 5814TIP3   OH238932   5.144   3.385   2.660 -0.0421  0.0557 -0.4048
 5814TIP3    H138933   5.059   3.370   2.701  0.3414 -1.4970 -0.1052
 5814TIP3    H238934   5.123   3.416   2.572 -0.9299 -0.6090 -0.4441
 5815TIP3   OH238935   3.276   0.606   2.912  0.1604 -0.1545 -0.2095
 5815TIP3    H138936   3.369   0.591   2.925  0.2478 -0.3753 -1.0252
 5815TIP3    H238937   3.272   0.690   2.866  0.0916 -1.0223 -1.8803
 5816TIP3   OH238938   2.600   3.667  16.074  0.2594 -0.1420 -0.1015
 5816TIP3    H138939   2.567   3.752  16.104 -0.1455 -0.2977 -0.0993
 5816TIP3    H238940   2.684   3.657  16.119  0.1445  0.0983  0.1720
 5817TIP3   OH238941   2.543   5.011  14.590 -0.2637  0.1493  0.1019
 5817TIP3    H138942   2.604   4.939  14.576  0.0683  0.2909  0.7606
 5817TIP3    H238943   2.596   5.079  14.632 -0.1700  1.4508 -2.0260
 5818TIP3   OH238944   4.491   1.038  14.833 -0.3810 -0.3026 -0.2174
 5818TIP3    H138945   4.478   1.126  14.798 -0.1339 -0.1171  0.1492
 5818TIP3    H238946   4.413   0.990  14.807 -0.5007  0.0130 -0.4503
 5819TIP3   OH238947   3.181   6.248   3.321  0.0611 -0.3848  0.3916
 5819TIP3    H138948   3.120   6.297   3.267 -0.1811 -0.8742  0.2153
 5819TIP3    H238949   3.252   6.222   3.262  0.9583  1.0182  0.7979
 5820TIP3   OH238950   6.315   6.253   5.589 -0.4643  0.0038 -0.3841
 5820TIP3    H138951   6.351   6.165   5.580 -0.7296 -0.0056 -1.6138
 5820TIP3    H238952   6.390   6.311   5.579  0.1573 -0.0679  2.9701
 5821TIP3   OH238953   0.816   3.129  11.298  0.9889 -0.2882  0.3600
 5821TIP3    H138954   0.740   3.186  11.283  0.6855 -1.0434 -1.1509
 5821TIP3    H238955   0.802   3.054  11.240  3.3960  0.0361 -0.7824
 5822TIP3   OH238956   6.454   1.673   0.738 -0.0803 -0.8931 -0.2267
 5822TIP3    H138957   6.384   1.687   0.675 -1.0610 -0.0618  1.0036
 5822TIP3    H238958   6.526   1.727   0.705 -0.5748 -0.4737 -0.6429
 5823TIP3   OH238959   0.287   4.252   4.491  0.0714 -0.3411 -0.1753
 5823TIP3    H138960   0.345   4.197   4.439 -0.1341 -1.2758  0.5761
 5823TIP3    H238961   0.345   4.302   4.548  0.2239 -0.1211 -0.5175
 5824TIP3   OH238962   4.428   3.859  14.982 -0.1690  0.5580  0.1175
 5824TIP3    H138963   4.338   3.847  15.014 -0.1076 -0.7974 -0.1579
 5824TIP3    H238964   4.419   3.868  14.887 -0.1982  2.9101  0.2769
 5825TIP3   OH238965   0.535   3.214   0.585  0.4533  0.3400 -0.2692
 5825TIP3    H138966   0.536   3.252   0.673 -1.1546  1.5976 -0.7686
 5825TIP3    H238967   0.448   3.231   0.552  1.4904  1.2766 -2.7322
 5826TIP3   OH238968   3.612   5.353   4.757 -1.0427 -0.0027  0.2542
 5826TIP3    H138969   3.531   5.362   4.707  0.4029 -0.3119 -2.3282
 5826TIP3    H238970   3.593   5.286   4.823 -3.3706  1.2157  0.8991
 5827TIP3   OH238971   6.132   0.032   4.139 -0.4320  0.0193  0.1889
 5827TIP3    H138972   6.162   0.118   4.169 -1.3966  0.8519 -1.1699
 5827TIP3    H238973   6.212  -0.010   4.105  0.0001  0.4364  0.6602
 5828TIP3   OH238974   3.357   3.316   2.982  0.3609 -0.0090  0.5777
 5828TIP3    H138975   3.401   3.248   3.033  0.5748  1.3369  2.2765
 5828TIP3    H238976   3.268   3.284   2.970  1.1173 -1.7615 -0.9941
 5829TIP3   OH238977   1.922   1.218   3.429  0.0570 -0.7660  0.2882
 5829TIP3    H138978   1.868   1.152   3.386 -1.3017 -0.3941  1.3580
 5829TIP3    H238979   1.891   1.301   3.394 -2.8000 -0.2225  3.5153
 5830TIP3   OH238980   6.725   0.605   1.233  0.3219  0.2586 -0.0914
 5830TIP3    H138981   6.684   0.539   1.289 -1.6963 -0.2202 -1.9954
 5830TIP3    H238982   6.743   0.678   1.292 -2.6176  0.1803  1.0760
 5831TIP3   OH238983   4.264   2.550   4.982 -0.5280  0.6652  0.6604
 5831TIP3    H138984   4.208   2.544   4.905  0.4440 -1.6776  0.0364
 5831TIP3    H238985   4.212   2.511   5.053  0.4834 -2.4817 -0.1375
 5832TIP3   OH238986   0.754   3.170   0.310 -0.2731 -0.0340 -0.5158
 5832TIP3    H138987   0.683   3.163   0.374 -1.6724  0.3722 -1.9620
 5832TIP3    H238988   0.827   3.205   0.360 -0.1117 -3.0973  1.7233
 5833TIP3   OH238989   1.295   3.073   2.803 -0.2665  0.2728 -0.0335
 5833TIP3    H138990   1.296   3.005   2.870  1.0749  0.5095  0.2126
 5833TIP3    H238991   1.205   3.108   2.805  0.3282  2.0788  3.5181
 5834TIP3   OH238992   6.665   1.684  12.613  0.1383 -0.6691 -0.1926
 5834TIP3    H138993   6.708   1.632  12.546  0.2006 -0.8090 -0.0450
 5834TIP3    H238994   6.730   1.693  12.682  0.1159 -0.4246 -0.2016
 5835TIP3   OH238995   3.472   1.480   5.890  0.1111  0.0772  0.5192
 5835TIP3    H138996   3.568   1.480   5.901  0.2036 -0.6667 -0.1484
 5835TIP3    H238997   3.442   1.558   5.935  1.2090  1.2593 -0.7172
 5836TIP3   OH238998   4.729   6.260  15.495 -0.2128 -0.4197 -0.5577
 5836TIP3    H138999   4.681   6.186  15.459 -0.1049 -1.1003  0.6243
 5836TIP3    H239000   4.806   6.220  15.538  0.8721  0.5464 -1.5354
 5837TIP3   OH239001   4.210   6.382   0.551  0.1520 -0.4863  0.1095
 5837TIP3    H139002   4.169   6.296   0.541  0.4298 -1.1005  3.2184
 5837TIP3    H239003   4.146   6.433   0.601  0.6561  0.6385 -0.3568
 5838TIP3   OH239004   6.646   0.958  11.163 -0.0999 -0.1449 -0.1105
 5838TIP3    H139005   6.566   0.911  11.185  1.0301 -1.3859  1.6341
 5838TIP3    H239006   6.640   1.041  11.211 -0.8881  0.3384 -1.0222
 5839TIP3   OH239007   3.809   3.961   2.092  0.7669 -0.2627  0.2564
 5839TIP3    H139008   3.748   3.916   2.034 -0.3732  1.0522  0.3722
 5839TIP3    H239009   3.885   3.981   2.037 -0.7466  1.9623 -1.1713
 5840TIP3   OH239010   5.224   3.139  13.536  0.0015 -0.3271 -0.2237
 5840TIP3    H139011   5.249   3.189  13.613  1.8086 -1.4985  0.0072
 5840TIP3    H239012   5.287   3.165  13.469 -0.4336 -0.6519 -0.7670
 5841TIP3   OH239013   0.489   5.194  13.882  0.2116 -0.4762  0.2343
 5841TIP3    H139014   0.401   5.216  13.912 -0.4006  0.5212 -2.0438
 5841TIP3    H239015   0.544   5.201  13.960 -1.4501  0.5005  1.3831
 5842TIP3   OH239016   0.287   3.179   1.532 -0.0759  0.3392 -0.1044
 5842TIP3    H139017   0.313   3.179   1.624 -0.7326  1.7736  0.0970
 5842TIP3    H239018   0.325   3.098   1.497 -1.0049 -0.9804  1.7493
 5843TIP3   OH239019   6.713   4.529   3.657  0.7033  0.0510 -0.5226
 5843TIP3    H139020   6.687   4.437   3.651 -0.6859  0.3103  0.9493
 5843TIP3    H239021   6.633   4.575   3.681  1.5197  1.5804 -0.6108
 5844TIP3   OH239022   3.385   0.991  15.908 -0.6283 -0.1237 -0.6385
 5844TIP3    H139023   3.363   0.972  16.000  0.1561 -0.9301 -0.6074
 5844TIP3    H239024   3.385   1.087  15.904 -1.1605 -0.0793  0.0820
 5845TIP3   OH239025   4.351   0.175   2.802  0.0570 -0.2357  0.4003
 5845TIP3    H139026   4.259   0.155   2.818 -0.0117 -0.2924 -0.0653
 5845TIP3    H239027   4.385   0.098   2.755  0.5549 -0.5887  1.3029
 5846TIP3   OH239028   4.294   5.804   1.966  0.5025 -0.0016 -0.1884
 5846TIP3    H139029   4.263   5.892   1.943 -0.6169 -0.7349 -1.6979
 5846TIP3    H239030   4.261   5.748   1.895  1.5824 -1.5720  0.4880
 5847TIP3   OH239031   0.453   0.509   1.645  0.6035  0.2478  0.5386
 5847TIP3    H139032   0.359   0.495   1.649  0.6253 -0.7461 -1.1840
 5847TIP3    H239033   0.463   0.604   1.637 -0.4511  0.2490 -1.6754
 5848TIP3   OH239034   2.896   5.664   2.365  0.2702  0.6462 -0.3355
 5848TIP3    H139035   2.882   5.756   2.341  1.5362  0.7213 -0.9159
 5848TIP3    H239036   2.891   5.617   2.282  0.2835  0.2795 -0.1307
 5849TIP3   OH239037   0.231   4.654  15.240 -0.0170  0.6456  0.3049
 5849TIP3    H139038   0.324   4.646  15.261 -0.5644 -0.3152  2.8009
 5849TIP3    H239039   0.212   4.577  15.185  0.3843 -0.0391  1.0922
 5850TIP3   OH239040   1.695   0.538  12.743 -0.2080 -0.0394 -0.0398
 5850TIP3    H139041   1.725   0.450  12.764  2.4604  1.2196  1.9909
 5850TIP3    H239042   1.700   0.543  12.647 -0.6982 -2.1259 -0.2245
 5851TIP3   OH239043   5.009   2.663  14.862  0.2851  0.2398 -0.5307
 5851TIP3    H139044   5.009   2.758  14.876 -1.3465  0.2605 -0.4542
 5851TIP3    H239045   4.924   2.645  14.821  1.4809 -0.9129 -2.6814
 5852TIP3   OH239046   0.596   0.664   4.550 -0.2548 -0.4986  0.2485
 5852TIP3    H139047   0.550   0.634   4.472  1.5195 -1.9976 -0.2922
 5852TIP3    H239048   0.674   0.709   4.517 -0.3265  0.3365  1.1562
 5853TIP3   OH239049   6.697   2.122  17.055  0.4824  0.0455  0.4394
 5853TIP3    H139050   6.732   2.034  17.070  1.0774  0.2393  0.2046
 5853TIP3    H239051   6.725   2.145  16.967 -3.2710 -1.2164 -1.2860
 5854TIP3   OH239052   2.356   1.841  13.296  0.4138 -0.1968 -0.0067
 5854TIP3    H139053   2.444   1.846  13.259  0.6730 -0.2062  0.6000
 5854TIP3    H239054   2.367   1.795  13.378  0.0664  1.0322  0.7596
 5855TIP3   OH239055   6.310   2.025  15.941 -0.3550 -0.2874 -0.1454
 5855TIP3    H139056   6.233   2.078  15.920  0.2105  0.1089 -1.3147
 5855TIP3    H239057   6.373   2.088  15.978 -0.0211 -0.3084 -0.6721
 5856TIP3   OH239058   4.559   2.087   2.045 -0.0129 -0.1994  0.3196
 5856TIP3    H139059   4.542   2.148   2.117  0.8827 -0.1346  0.4898
 5856TIP3    H239060   4.652   2.068   2.052  0.2906  0.4916 -1.3425
 5857TIP3   OH239061   3.567   1.701   5.573 -0.4186  0.0850 -0.4260
 5857TIP3    H139062   3.476   1.688   5.545 -0.6713  1.5017 -0.3302
 5857TIP3    H239063   3.564   1.781   5.625  0.8503 -0.0037 -0.2048
 5858TIP3   OH239064   1.638   5.942  14.702 -0.3832  0.0653 -0.6448
 5858TIP3    H139065   1.607   6.008  14.763  1.2432  1.7465 -1.5075
 5858TIP3    H239066   1.672   5.871  14.757 -1.4067  0.3129  0.3210
 5859TIP3   OH239067   2.105   6.115  12.702 -0.4505 -0.5714  0.4538
 5859TIP3    H139068   2.182   6.061  12.721 -0.1929 -0.9807 -1.5260
 5859TIP3    H239069   2.055   6.114  12.783  0.3456 -2.4623  0.9946
 5860TIP3   OH239070   6.711   0.432   0.099  0.7364  0.8130  0.2128
 5860TIP3    H139071   6.795   0.474   0.082  1.4752 -1.0360 -1.0040
 5860TIP3    H239072   6.701   0.369   0.027  0.4064 -2.1619  2.6814
 5861TIP3   OH239073   5.993   6.760   4.354  0.7997  0.0409 -0.0287
 5861TIP3    H139074   5.923   6.819   4.384 -0.0755 -1.3890  0.8473
 5861TIP3    H239075   6.038   6.810   4.286 -1.4858  0.7863 -1.1217
 5862TIP3   OH239076   2.404   6.638  11.261  0.2114 -0.4060  0.1237
 5862TIP3    H139077   2.484   6.686  11.284  0.3407 -0.4012 -0.3269
 5862TIP3    H239078   2.434   6.569  11.202 -0.0714 -0.6081  0.2217
 5863TIP3   OH239079   3.728   1.451  12.167  0.8454 -0.1417 -1.0182
 5863TIP3    H139080   3.740   1.410  12.081  1.8313 -0.7815 -0.5842
 5863TIP3    H239081   3.789   1.406  12.224  0.8044  0.8620 -0.1579
 5864TIP3   OH239082   4.859   2.613  17.075 -0.0943  0.2103  0.8760
 5864TIP3    H139083   4.920   2.543  17.099 -0.9075 -0.3978  1.2545
 5864TIP3    H239084   4.782   2.566  17.043  0.1712  0.9735 -1.0046
 5865TIP3   OH239085   1.772   1.062  15.224  0.1834  0.5833 -0.1494
 5865TIP3    H139086   1.785   1.083  15.316  0.5860  0.3243 -0.1496
 5865TIP3    H239087   1.681   1.033  15.219  0.7756 -1.5208  0.5565
 5866TIP3   OH239088   0.901   6.735   0.942 -0.0043 -0.5769 -0.1422
 5866TIP3    H139089   0.847   6.673   0.991 -0.8980  1.3206  1.3851
 5866TIP3    H239090   0.988   6.726   0.981  0.4143 -2.2941 -1.3440
 5867TIP3   OH239091   0.199   0.953  11.203  0.3868 -0.7845 -0.0500
 5867TIP3    H139092   0.224   0.954  11.111  2.5638  0.7926  0.4867
 5867TIP3    H239093   0.274   0.915  11.248 -0.4981 -1.1901  1.1257
 5868TIP3   OH239094   3.957   3.172   0.248 -0.1961 -0.7643 -0.2533
 5868TIP3    H139095   3.866   3.142   0.255 -0.2137 -0.3648  2.0056
 5868TIP3    H239096   3.965   3.202   0.157 -1.7216 -2.5811 -1.0683
 5869TIP3   OH239097   1.620   4.510   0.129 -0.6773 -0.5209 -0.1009
 5869TIP3    H139098   1.694   4.464   0.168 -0.6173  0.6356  1.2310
 5869TIP3    H239099   1.576   4.444   0.075  0.0813 -1.7875  0.7757
 5870TIP3   OH239100   5.371   6.738  14.503  0.2718 -0.1669 -0.0161
 5870TIP3    H139101   5.424   6.746  14.424  1.4539  0.1685  0.7777
 5870TIP3    H239102   5.370   6.826  14.541 -2.6408  0.3571 -1.0604
 5871TIP3   OH239103   1.364   3.903  14.960 -0.1884  0.0187 -0.2393
 5871TIP3    H139104   1.277   3.888  14.925 -0.5755  1.1427  0.2032
 5871TIP3    H239105   1.396   3.980  14.913  0.3348 -0.0393  0.0130
 5872TIP3   OH239106   1.662   0.882  13.742 -0.5365  0.2602  0.2106
 5872TIP3    H139107   1.610   0.961  13.727 -0.1519  0.4453 -0.1514
 5872TIP3    H239108   1.653   0.831  13.661 -0.1299  0.3088  0.1312
 5873TIP3   OH239109   1.292   1.756   1.780 -0.4651  0.5939 -0.4096
 5873TIP3    H139110   1.214   1.704   1.759  2.1361 -3.8219 -0.3869
 5873TIP3    H239111   1.361   1.721   1.724  2.2656  1.9780  1.7739
 5874TIP3   OH239112   6.174   5.131  14.986  0.2834 -0.5146  0.6293
 5874TIP3    H139113   6.126   5.055  15.019  1.1428 -1.0181  0.7334
 5874TIP3    H239114   6.166   5.196  15.056 -2.1790  0.2819 -0.2652
 5875TIP3   OH239115   1.974   3.200   2.467 -0.6089 -0.1623  0.0326
 5875TIP3    H139116   1.902   3.187   2.528  0.7261 -0.3038  1.6303
 5875TIP3    H239117   2.046   3.147   2.502  0.2736 -0.1137 -1.5744
 5876TIP3   OH239118   6.037   2.692   4.112 -0.4550 -0.3194  0.3004
 5876TIP3    H139119   6.021   2.615   4.058 -0.4808  0.1001 -0.2946
 5876TIP3    H239120   6.099   2.745   4.061 -0.3398 -0.0040  0.7604
 5877TIP3   OH239121   1.330   0.835  12.166  0.3155 -0.2783  0.0716
 5877TIP3    H139122   1.300   0.805  12.252  2.5037 -1.3073  0.5514
 5877TIP3    H239123   1.257   0.887  12.132 -0.9127 -0.4803  2.2039
 5878TIP3   OH239124   3.014   5.851   4.449 -0.4410  0.2090  0.0604
 5878TIP3    H139125   3.059   5.936   4.447 -0.3015  0.1555 -2.4730
 5878TIP3    H239126   3.078   5.790   4.413  0.1417 -1.4487  3.5063
 5879TIP3   OH239127   6.677   2.169  12.318 -0.1012  0.1954 -0.3861
 5879TIP3    H139128   6.694   2.111  12.392 -1.2331 -0.1727 -0.3900
 5879TIP3    H239129   6.762   2.182  12.277  0.5506  0.4183  0.9855
 5880TIP3   OH239130   1.058   4.175  12.183  0.2600 -0.2872  0.4872
 5880TIP3    H139131   1.144   4.206  12.153 -0.0632  1.9949  1.6710
 5880TIP3    H239132   1.063   4.179  12.278 -1.0986 -0.3109  0.5743
 5881TIP3   OH239133   3.978   4.917   3.665  0.2094 -0.2310  0.2537
 5881TIP3    H139134   3.911   4.881   3.607 -0.6233 -0.7898  1.5081
 5881TIP3    H239135   4.040   4.961   3.607  0.2285 -2.0374 -1.1783
 5882TIP3   OH239136   3.041   4.302   0.377  0.2284 -0.9965 -0.4087
 5882TIP3    H139137   3.123   4.268   0.340 -0.1614 -1.8567 -0.5207
 5882TIP3    H239138   3.007   4.361   0.310  0.6910 -0.7285 -0.4142
 5883TIP3   OH239139   6.182   1.817   4.837  0.4136 -0.1937 -0.4409
 5883TIP3    H139140   6.167   1.816   4.931 -0.2463 -2.5632 -0.5105
 5883TIP3    H239141   6.102   1.854   4.800 -0.2378 -1.3031 -0.1682
 5884TIP3   OH239142   5.143   2.167  16.555  0.4191  0.4376  0.6972
 5884TIP3    H139143   5.207   2.130  16.495 -0.1129 -0.6193  0.7697
 5884TIP3    H239144   5.058   2.137  16.522  0.0681  0.4487  1.5584
 5885TIP3   OH239145   2.193   5.335   3.515  0.5273  0.4701 -0.0385
 5885TIP3    H139146   2.272   5.382   3.543  1.4952 -1.5847  0.9226
 5885TIP3    H239147   2.214   5.243   3.532 -1.5454 -0.2479 -1.1561
 5886TIP3   OH239148   4.464   4.223  12.731 -0.3059  0.0636  0.4007
 5886TIP3    H139149   4.553   4.211  12.699 -0.1578  0.7547  0.5272
 5886TIP3    H239150   4.423   4.137  12.724  0.3561 -0.2439  0.2897
 5887TIP3   OH239151   5.074   1.389  16.412 -0.2401 -0.4288 -0.7265
 5887TIP3    H139152   5.003   1.423  16.358  1.0107  1.2506 -1.3896
 5887TIP3    H239153   5.103   1.463  16.465  0.2350 -1.3935  0.4190
 5888TIP3   OH239154   0.650   1.774   6.185  0.2643 -0.6377  0.6849
 5888TIP3    H139155   0.601   1.697   6.215 -1.2512  0.4521  1.1012
 5888TIP3    H239156   0.583   1.831   6.147  1.1979  0.9488  1.3712
 5889TIP3   OH239157   2.190   3.914   2.388  0.1745 -0.8003  0.0690
 5889TIP3    H139158   2.120   3.849   2.387  0.2248 -0.8698 -1.5819
 5889TIP3    H239159   2.152   3.989   2.435 -0.9695 -0.8968 -0.6597
 5890TIP3   OH239160   0.260   6.217   4.236  0.3692 -0.3774 -0.1355
 5890TIP3    H139161   0.350   6.183   4.244  0.5886  0.3946  0.7780
 5890TIP3    H239162   0.268   6.291   4.176  0.5803  0.4946  0.9456
 5891TIP3   OH239163   1.759   1.632   2.485 -0.5450  0.0939 -0.3639
 5891TIP3    H139164   1.695   1.639   2.415  0.2502  0.9350 -1.0345
 5891TIP3    H239165   1.794   1.720   2.495  0.8237 -0.4244 -0.3266
 5892TIP3   OH239166   1.809   0.201  12.048  0.0177  0.6183 -0.1083
 5892TIP3    H139167   1.827   0.214  12.142 -4.0260  1.7361  0.7322
 5892TIP3    H239168   1.815   0.288  12.010 -0.5688  0.5502 -0.3724
 5893TIP3   OH239169   3.476   6.152  13.271  0.7432  0.5566 -0.0993
 5893TIP3    H139170   3.473   6.237  13.228  2.2391  1.4238  1.3573
 5893TIP3    H239171   3.569   6.129  13.273  0.5713 -0.1740  1.2392
 5894TIP3   OH239172   1.184   5.946   2.771  0.2319  0.0694 -0.0435
 5894TIP3    H139173   1.238   6.024   2.755  0.5459  0.1057  1.0809
 5894TIP3    H239174   1.106   5.959   2.718  0.7528  0.6476 -0.6833
 5895TIP3   OH239175   3.708   4.388   0.025 -0.3798  0.3228 -0.3970
 5895TIP3    H139176   3.792   4.348   0.002 -0.1183  0.3179  0.5270
 5895TIP3    H239177   3.693   4.362   0.116 -2.2825 -1.2213 -1.0571
 5896TIP3   OH239178   4.065   5.610  15.668  0.2539 -0.5119  0.0607
 5896TIP3    H139179   4.113   5.671  15.612 -1.7011 -0.0696 -1.2348
 5896TIP3    H239180   4.024   5.665  15.734 -0.7540 -0.4667 -0.5609
 5897TIP3   OH239181   1.936   2.674   3.522 -0.0347 -0.1535 -0.3642
 5897TIP3    H139182   1.966   2.765   3.521 -1.6771  0.4132 -0.9901
 5897TIP3    H239183   2.013   2.623   3.496  1.0980  0.9759  0.6568
 5898TIP3   OH239184   6.719   2.720  10.700 -0.4287 -0.4647  0.2197
 5898TIP3    H139185   6.632   2.688  10.722 -0.6660 -1.6526 -2.1304
 5898TIP3    H239186   6.710   2.815  10.700 -1.3585 -0.5279  1.2245
 5899TIP3   OH239187   0.685   2.219  11.560 -0.2293 -0.4458 -0.1708
 5899TIP3    H139188   0.709   2.298  11.609 -0.2928  0.2070 -1.1590
 5899TIP3    H239189   0.762   2.199  11.508 -0.0366 -1.3457  0.4343
 5900TIP3   OH239190   5.254   4.750   3.282 -0.2155 -0.3885  0.1002
 5900TIP3    H139191   5.222   4.668   3.244  0.7238 -0.9868  0.5479
 5900TIP3    H239192   5.349   4.747   3.266 -0.0031  0.0162  1.2151
 5901TIP3   OH239193   2.498   5.052  13.626 -0.4564 -0.3725  0.5765
 5901TIP3    H139194   2.506   5.073  13.533 -1.2546 -0.5328  0.4629
 5901TIP3    H239195   2.415   5.091  13.653 -0.5608 -0.9069  1.0574
 5902TIP3   OH239196   1.268   3.795  16.272 -0.7103  0.0659  0.0808
 5902TIP3    H139197   1.324   3.850  16.216 -1.1839  0.2681 -0.2004
 5902TIP3    H239198   1.323   3.720  16.295 -0.4608  0.0551 -0.5359
 5903TIP3   OH239199   2.241   6.209  11.319  0.0207  0.3693  0.5764
 5903TIP3    H139200   2.261   6.227  11.411 -2.4087  0.2952  1.1940
 5903TIP3    H239201   2.232   6.296  11.279 -2.2329  0.5426  1.2836
 5904TIP3   OH239202   3.652   2.793   6.092 -0.3567 -0.4332  0.1824
 5904TIP3    H139203   3.560   2.768   6.096 -0.0279 -1.7029  0.1840
 5904TIP3    H239204   3.699   2.715   6.122  0.7342  0.1007 -0.1075
 5905TIP3   OH239205   2.587   5.762  11.779  0.2489  0.0312  0.3388
 5905TIP3    H139206   2.517   5.786  11.717  0.3378 -0.4494  0.0528
 5905TIP3    H239207   2.546   5.698  11.836 -1.0988  3.1827  3.2931
 5906TIP3   OH239208   4.315   5.628  11.205 -0.4213 -0.6016  0.0119
 5906TIP3    H139209   4.280   5.638  11.294 -0.6196 -1.3153  0.0211
 5906TIP3    H239210   4.408   5.610  11.218 -0.6235 -1.6484  0.1343
 5907TIP3   OH239211   4.542   4.408   4.762  0.3472 -0.0645 -0.2166
 5907TIP3    H139212   4.506   4.387   4.848  0.7953  0.3230  0.0707
 5907TIP3    H239213   4.476   4.377   4.700  0.1926 -0.6910  0.2510
 5908TIP3   OH239214   3.730   4.559   4.576  0.8258 -0.4333  0.0535
 5908TIP3    H139215   3.677   4.565   4.655  0.3895  0.4397 -0.2971
 5908TIP3    H239216   3.748   4.466   4.567  0.5598 -0.5875  0.9674
 5909TIP3   OH239217   5.920   1.601   1.574 -0.3811 -0.1263  0.0199
 5909TIP3    H139218   5.872   1.683   1.588 -3.3102 -1.6414 -0.2303
 5909TIP3    H239219   5.941   1.570   1.662 -2.1080 -0.5912  0.3043
 5910TIP3   OH239220   6.263   5.345  15.596  0.4276  0.5179  0.1415
 5910TIP3    H139221   6.323   5.273  15.577  0.7984  1.0927 -0.8960
 5910TIP3    H239222   6.312   5.424  15.573  0.1366  1.1376  1.5552
 5911TIP3   OH239223   5.141   4.065  14.136 -0.6144  0.4006  0.4707
 5911TIP3    H139224   5.189   4.107  14.064  0.8916 -0.7554  0.7570
 5911TIP3    H239225   5.124   4.135  14.198 -1.1044  1.2312 -0.5723
 5912TIP3   OH239226   2.850   0.374   6.048 -0.7657 -0.7128  0.6914
 5912TIP3    H139227   2.818   0.459   6.078 -1.4676 -1.3360  1.7692
 5912TIP3    H239228   2.876   0.329   6.128  0.2551 -1.2533  0.0611
 5913TIP3   OH239229   3.893   4.072   4.045 -0.3926  0.3342 -0.0887
 5913TIP3    H139230   3.980   4.113   4.044  0.3966 -1.2702 -0.0155
 5913TIP3    H239231   3.861   4.087   4.134  1.3929 -2.1270  1.0918
 5914TIP3   OH239232   5.968   6.561  16.427 -0.2759  0.4160  0.1060
 5914TIP3    H139233   6.021   6.630  16.466 -0.5548  0.7631 -0.1161
 5914TIP3    H239234   6.028   6.512  16.371  0.0167  0.2179  0.5928
 5915TIP3   OH239235   0.702   3.677   5.392 -0.8692 -0.0153  0.0896
 5915TIP3    H139236   0.734   3.587   5.403 -1.1309 -0.4450 -2.1664
 5915TIP3    H239237   0.772   3.722   5.345 -0.6393  1.0685  1.4092
 5916TIP3   OH239238   6.470   4.221  15.701  0.1139  0.0725  0.3226
 5916TIP3    H139239   6.451   4.131  15.728 -1.6072  0.2084 -0.3429
 5916TIP3    H239240   6.512   4.212  15.615 -0.0112 -0.1015  0.2800
 5917TIP3   OH239241   1.179   6.009  13.612  0.3423 -0.9097  0.9502
 5917TIP3    H139242   1.274   6.023  13.611  0.2836  0.0086 -2.2358
 5917TIP3    H239243   1.163   5.945  13.543 -1.3458 -1.3476  1.6983
 5918TIP3   OH239244   6.480   6.411  14.952  0.1697  0.3629 -0.3428
 5918TIP3    H139245   6.475   6.458  14.869 -2.6126 -2.5080 -2.0243
 5918TIP3    H239246   6.511   6.323  14.929 -0.2213 -0.3946  1.7269
 5919TIP3   OH239247   0.771   6.036   2.358  0.1612 -0.0327  0.1054
 5919TIP3    H139248   0.760   5.998   2.271 -0.2587  1.8617 -0.7328
 5919TIP3    H239249   0.858   6.008   2.386  0.9075  0.4657 -1.5705
 5920TIP3   OH239250   0.331   5.430  15.237  0.1721 -0.1178 -0.2107
 5920TIP3    H139251   0.377   5.407  15.156  1.0385 -3.3821  1.0642
 5920TIP3    H239252   0.252   5.375  15.236  0.9299 -1.3546  1.7415
 5921TIP3   OH239253   6.280   5.716   3.981 -0.0723 -0.0976 -0.2279
 5921TIP3    H139254   6.196   5.696   3.940 -0.1451  0.3935 -0.3158
 5921TIP3    H239255   6.257   5.758   4.064  0.0925  0.5692 -0.5195
 5922TIP3   OH239256   4.303   0.704   3.546 -0.5056  0.2830  0.0801
 5922TIP3    H139257   4.265   0.633   3.598 -1.9632  0.3441 -0.8557
 5922TIP3    H239258   4.244   0.715   3.472  1.2004  0.5958 -1.3137
 5923TIP3   OH239259   0.047   0.460  14.729  0.0915  0.4549 -0.0641
 5923TIP3    H139260   0.031   0.369  14.756 -0.0959  0.2225 -0.9253
 5923TIP3    H239261   0.130   0.456  14.682 -2.0615 -0.2154 -4.2579
 5924TIP3   OH239262   4.944   4.171   3.526  0.2987  0.1855  0.4218
 5924TIP3    H139263   5.007   4.225   3.573  1.4589 -0.1021 -0.7319
 5924TIP3    H239264   4.995   4.133   3.454 -1.3572  0.4930 -0.9603
 5925TIP3   OH239265   6.102   6.222  14.510 -0.0567  0.0186 -0.2314
 5925TIP3    H139266   6.135   6.170  14.436  2.3457  1.3705 -0.2219
 5925TIP3    H239267   6.173   6.218  14.575 -0.5240  1.8942  0.4526
 5926TIP3   OH239268   4.945   3.800   1.590 -0.4620  0.5799 -0.1275
 5926TIP3    H139269   4.887   3.872   1.615 -1.1347  0.6379 -1.7004
 5926TIP3    H239270   5.020   3.844   1.547  0.2240  0.4453  0.9083
 5927TIP3   OH239271   5.238   6.042   4.267  0.2975  0.0957  0.8238
 5927TIP3    H139272   5.174   5.992   4.317  0.4194 -0.2591  0.6279
 5927TIP3    H239273   5.228   6.132   4.298  1.1731 -0.2904  2.3494
 5928TIP3   OH239274   1.817   5.405   6.548 -0.4364 -0.2454  0.4276
 5928TIP3    H139275   1.876   5.346   6.501  0.4846  1.7556 -1.0697
 5928TIP3    H239276   1.863   5.423   6.630  0.2826  0.0272 -0.0262
 5929TIP3   OH239277   2.358   3.540  11.608  0.4535 -0.0324 -0.4019
 5929TIP3    H139278   2.374   3.624  11.651  1.9005  1.4044 -3.4188
 5929TIP3    H239279   2.275   3.551  11.563 -0.9155 -1.4284  1.5873
 5930TIP3   OH239280   3.458   1.850  12.250 -0.0065  0.0559 -0.1860
 5930TIP3    H139281   3.369   1.882  12.233 -0.6831 -1.0233  1.1431
 5930TIP3    H239282   3.512   1.894  12.184 -1.2008  2.2640  0.2256
 5931TIP3   OH239283   4.571   4.490  14.105  0.5162 -0.6947  0.2664
 5931TIP3    H139284   4.537   4.401  14.111  1.3946 -1.0596  0.0656
 5931TIP3    H239285   4.666   4.479  14.110  0.6273  0.2521  0.4444
 5932TIP3   OH239286   2.834   5.526   2.610  0.5930 -0.2588  0.1891
 5932TIP3    H139287   2.916   5.563   2.644  0.4520 -0.0238  0.2705
 5932TIP3    H239288   2.840   5.535   2.515  0.6435 -0.2069  0.1975
 5933TIP3   OH239289   3.547   5.609   4.917 -0.1295  0.1777  0.0737
 5933TIP3    H139290   3.625   5.555   4.901 -0.4055  0.2536 -1.7860
 5933TIP3    H239291   3.482   5.575   4.856 -1.0433  1.1717  0.4596
 5934TIP3   OH239292   6.065   0.885  14.301 -0.1886  0.1379 -0.2545
 5934TIP3    H139293   6.139   0.827  14.318  1.0956  1.5909 -0.6647
 5934TIP3    H239294   6.078   0.958  14.361 -2.0953 -0.2024  0.6671
 5935TIP3   OH239295   1.961   5.704   0.385 -0.0854 -0.0678 -0.6190
 5935TIP3    H139296   1.936   5.660   0.466 -0.9381 -1.5733 -1.6431
 5935TIP3    H239297   2.056   5.710   0.390 -0.0917 -0.4697  0.3248
 5936TIP3   OH239298   1.262   2.712  12.304 -0.4455  0.2400  0.5107
 5936TIP3    H139299   1.309   2.738  12.383 -1.6086 -0.7105  1.5596
 5936TIP3    H239300   1.305   2.630  12.277  1.9429  2.0521 -1.6698
 5937TIP3   OH239301   0.907   1.684   4.556  0.0514 -0.5664 -0.0132
 5937TIP3    H139302   0.953   1.625   4.616 -0.1693  0.9192  1.7046
 5937TIP3    H239303   0.965   1.691   4.480 -0.3245 -3.6371 -0.6888
 5938TIP3   OH239304   1.105   0.278  13.191  0.8436  0.6721 -0.1728
 5938TIP3    H139305   1.201   0.286  13.190  1.0785 -1.3794  1.0655
 5938TIP3    H239306   1.082   0.272  13.284 -0.4348  0.5300 -0.4767
 5939TIP3   OH239307   5.112   5.962  14.645 -0.4478 -0.8869 -0.3172
 5939TIP3    H139308   5.192   5.915  14.670 -1.3157 -1.5468  1.3028
 5939TIP3    H239309   5.124   5.980  14.551  0.4180 -3.3581 -0.7646
 5940TIP3   OH239310   3.184   5.605  13.217  0.2661 -0.0727 -0.2436
 5940TIP3    H139311   3.199   5.530  13.274  1.2059  0.4483  0.2364
 5940TIP3    H239312   3.122   5.660  13.265 -0.9180 -0.8178 -0.8788
 5941TIP3   OH239313   5.805   1.063   4.823  0.5294 -0.0405  0.3603
 5941TIP3    H139314   5.815   1.029   4.734  3.3322  2.3663 -0.4130
 5941TIP3    H239315   5.712   1.083   4.831  0.3666  0.8966 -2.5822
 5942TIP3   OH239316   1.121   4.398  14.149 -0.4189 -0.4147 -0.0720
 5942TIP3    H139317   1.102   4.316  14.104 -1.4739 -1.2156  1.6871
 5942TIP3    H239318   1.153   4.370  14.236  0.1768  1.0398  0.2035
 5943TIP3   OH239319   0.679   1.143   5.383 -0.2486  0.2167 -0.1561
 5943TIP3    H139320   0.652   1.219   5.434  2.2982  0.7600  0.5122
 5943TIP3    H239321   0.654   1.165   5.293  1.7006  2.5771 -0.2205
 5944TIP3   OH239322   5.494   1.513  15.259  0.0918 -0.2518 -0.1451
 5944TIP3    H139323   5.545   1.432  15.253 -0.0483 -0.2818 -1.0848
 5944TIP3    H239324   5.446   1.517  15.176 -0.7297  0.2443  0.3374
 5945TIP3   OH239325   4.057   0.535   2.380  0.2496 -0.7331  0.2022
 5945TIP3    H139326   4.098   0.450   2.393  1.2259 -0.3546 -0.2751
 5945TIP3    H239327   3.964   0.517   2.375  0.4962 -1.8754 -0.6386
 5946TIP3   OH239328   4.938   5.750   0.319 -0.5350  0.1854 -0.2419
 5946TIP3    H139329   4.885   5.732   0.397 -0.1863 -0.9661 -0.2567
 5946TIP3    H239330   4.956   5.844   0.324  0.0081  0.0371  1.4228
 5947TIP3   OH239331   3.636   5.379  13.003 -0.1127 -0.3969 -0.2990
 5947TIP3    H139332   3.711   5.430  12.971 -0.3836  1.4716  1.7238
 5947TIP3    H239333   3.581   5.365  12.926  0.3576  1.7969 -1.1073
 5948TIP3   OH239334   1.293   4.308  12.114  0.2154 -0.6256 -0.0943
 5948TIP3    H139335   1.290   4.345  12.202  2.8775 -0.6569  0.0677
 5948TIP3    H239336   1.301   4.384  12.056  0.7777 -0.7182 -0.1370
 5949TIP3   OH239337   1.332   2.807   0.293 -0.4096  0.1374 -0.4060
 5949TIP3    H139338   1.415   2.815   0.339 -0.2893  1.4804 -0.8349
 5949TIP3    H239339   1.268   2.853   0.348 -0.6864 -0.0719 -0.5454
 5950TIP3   OH239340   4.896   5.334   3.792  0.0511  0.1489  0.1993
 5950TIP3    H139341   4.850   5.253   3.773 -1.0035 -0.6010  4.6922
 5950TIP3    H239342   4.988   5.314   3.776 -0.3972 -1.1063 -1.0073
 5951TIP3   OH239343   1.180   2.477   5.526  0.0966 -0.2265 -0.0307
 5951TIP3    H139344   1.140   2.553   5.568 -4.1258 -2.2662  0.1709
 5951TIP3    H239345   1.233   2.436   5.595 -0.4266  0.6356  0.9044
 5952TIP3   OH239346   3.195   4.175   1.335 -0.4077  0.0430 -0.7713
 5952TIP3    H139347   3.276   4.154   1.289 -1.4992 -1.8143 -1.9598
 5952TIP3    H239348   3.167   4.092   1.374 -0.0284  1.3307  2.5907
 5953TIP3   OH239349   1.558   0.182  13.959  0.3894  0.0037  0.0581
 5953TIP3    H139350   1.639   0.221  13.993 -0.3007  0.5924  1.0883
 5953TIP3    H239351   1.532   0.119  14.026 -0.9412  1.1076  0.6294
 5954TIP3   OH239352   1.481   2.474   6.400  0.6952 -0.1192  0.2264
 5954TIP3    H139353   1.430   2.395   6.386  3.7912 -1.8850 -2.2727
 5954TIP3    H239354   1.464   2.528   6.322 -0.5827  1.3333  1.4285
 5955TIP3   OH239355   6.547   1.880   3.697  0.6949 -0.1951  0.4776
 5955TIP3    H139356   6.555   1.821   3.772 -1.3904 -1.2154 -0.0374
 5955TIP3    H239357   6.458   1.914   3.702  1.2812  1.6091 -0.2455
 5956TIP3   OH239358   5.304   4.555   1.616 -0.9712 -0.6360  0.6144
 5956TIP3    H139359   5.311   4.646   1.585 -1.5491 -0.5265  0.8007
 5956TIP3    H239360   5.374   4.547   1.682 -0.1371 -0.6887 -0.2500
 5957TIP3   OH239361   0.725   3.072   1.530  0.3158  0.4350 -0.1909
 5957TIP3    H139362   0.765   3.006   1.474  1.9491 -0.0405  1.4670
 5957TIP3    H239363   0.771   3.153   1.509  0.9090  0.2623  0.4115
 5958TIP3   OH239364   1.702   4.251  16.898 -0.5630  0.0890 -0.1592
 5958TIP3    H139365   1.726   4.341  16.920  0.1447  0.0733 -0.8180
 5958TIP3    H239366   1.782   4.213  16.863 -0.3632 -1.3326  1.6882
 5959TIP3   OH239367   6.128   5.647   1.902 -0.0697  0.2345 -0.0734
 5959TIP3    H139368   6.062   5.643   1.971 -1.6187  1.8044 -1.3741
 5959TIP3    H239369   6.160   5.737   1.904 -0.1231  0.3076 -1.3428
 5960TIP3   OH239370   6.820   2.004   2.704 -0.0300  0.6925  0.8265
 5960TIP3    H139371   6.849   2.039   2.788 -1.1620  1.3400  0.9705
 5960TIP3    H239372   6.725   2.017   2.704 -0.3897 -1.4854  0.4566
 5961TIP3   OH239373   0.665   3.691  12.425 -0.2074  0.2683 -0.2064
 5961TIP3    H139374   0.589   3.642  12.457 -0.2910  0.4750 -0.0849
 5961TIP3    H239375   0.724   3.695  12.500  0.5480 -1.0870 -0.6869
 5962TIP3   OH239376   0.801   4.237  11.347 -0.4273 -0.1851  0.0191
 5962TIP3    H139377   0.780   4.162  11.403 -1.5487 -0.5029 -0.7744
 5962TIP3    H239378   0.723   4.248  11.292  0.8591 -0.3352 -1.9551
 5963TIP3   OH239379   5.101   2.834   0.453  0.1551  0.1253  0.1443
 5963TIP3    H139380   5.149   2.898   0.505  0.2032  0.4727 -0.3175
 5963TIP3    H239381   5.014   2.831   0.493  0.2698  0.1947  0.4013
 5964TIP3   OH239382   1.272   5.003  12.221 -0.5982 -0.2430  0.5396
 5964TIP3    H139383   1.335   5.070  12.248  0.6893 -1.2816  0.2162
 5964TIP3    H239384   1.296   4.925  12.272 -1.7767 -0.5956  0.5810
 5965TIP3   OH239385   1.095   2.559  13.611 -0.3230 -0.3871 -0.4664
 5965TIP3    H139386   1.156   2.585  13.542 -1.4544  0.7814 -1.0786
 5965TIP3    H239387   1.135   2.591  13.692 -0.5839  1.3009 -0.9730
 5966TIP3   OH239388   4.179   5.627   2.207  0.3395 -0.1903 -0.2001
 5966TIP3    H139389   4.241   5.618   2.279 -0.0130  0.9667  0.2727
 5966TIP3    H239390   4.228   5.673   2.139  0.2660 -0.0731 -0.1738
 5967TIP3   OH239391   6.256   3.440  11.925 -0.5462 -0.2970  0.8581
 5967TIP3    H139392   6.346   3.473  11.931 -0.7664  0.3978  0.5227
 5967TIP3    H239393   6.265   3.345  11.917  0.1272 -0.2913  1.4719
 5968TIP3   OH239394   4.674   0.549   3.868  0.8039 -0.6765 -0.1141
 5968TIP3    H139395   4.693   0.518   3.957  0.5914  2.4821  1.1478
 5968TIP3    H239396   4.759   0.553   3.826  1.2240  0.0391  0.7664
 5969TIP3   OH239397   1.527   4.007   2.541 -0.0009 -0.5424 -0.3141
 5969TIP3    H139398   1.432   4.008   2.529  0.0964 -0.1971 -1.1102
 5969TIP3    H239399   1.539   4.022   2.635 -0.6968  0.6795 -0.3978
 5970TIP3   OH239400   4.062   1.076  14.928 -0.1600  0.3123 -0.2181
 5970TIP3    H139401   4.090   1.039  15.012 -0.6925  0.5672  0.0760
 5970TIP3    H239402   4.106   1.022  14.862 -1.0466 -0.9413  0.1968
 5971TIP3   OH239403   1.649   3.850   5.985 -0.2279  0.2398  0.1184
 5971TIP3    H139404   1.586   3.810   6.045 -1.4162 -0.0592 -1.2551
 5971TIP3    H239405   1.734   3.821   6.016 -0.7523  0.5946  1.9983
 5972TIP3   OH239406   3.725   6.774  16.256 -0.3708  0.2626 -0.4932
 5972TIP3    H139407   3.787   6.760  16.328  0.2594  0.4501 -0.9885
 5972TIP3    H239408   3.671   6.695  16.255  0.7021 -0.4923 -0.8562
 5973TIP3   OH239409   2.711   0.983  13.272 -0.0890  0.4267  0.2068
 5973TIP3    H139410   2.785   0.935  13.309 -0.5090 -1.0884 -0.8352
 5973TIP3    H239411   2.634   0.945  13.315 -0.3908  0.6119 -0.1654
 5974TIP3   OH239412   6.037   0.001  11.727  0.3034 -0.7200 -0.2932
 5974TIP3    H139413   6.026  -0.089  11.696  1.9332 -1.0601 -0.0151
 5974TIP3    H239414   6.043  -0.007  11.822  0.1972 -0.2848 -0.2489
 5975TIP3   OH239415   6.175   1.257   4.777  0.3982 -0.1004  0.4839
 5975TIP3    H139416   6.256   1.240   4.824  0.2987 -2.6749 -0.1584
 5975TIP3    H239417   6.119   1.303   4.840  0.9896 -1.6519  2.2234
 5976TIP3   OH239418   5.286   4.188  11.521  0.5800  0.1429 -0.8904
 5976TIP3    H139419   5.226   4.213  11.591 -1.8459 -3.1963 -1.5215
 5976TIP3    H239420   5.244   4.218  11.441  0.7834 -0.4074 -1.2101
 5977TIP3   OH239421   1.244   5.816   4.518 -0.1155  0.2059  0.0485
 5977TIP3    H139422   1.304   5.875   4.564  1.4762 -1.0721 -0.2861
 5977TIP3    H239423   1.216   5.866   4.441  0.7265  0.7465  0.0769
 5978TIP3   OH239424   0.055   2.670   4.543  1.0700 -0.2576 -0.1409
 5978TIP3    H139425   0.148   2.673   4.564  0.9216  0.2405  0.4648
 5978TIP3    H239426   0.012   2.719   4.613  0.3211 -0.7135 -0.2585
 5979TIP3   OH239427   4.704   0.482  14.256  0.2001 -0.2048  0.3568
 5979TIP3    H139428   4.784   0.487  14.204 -0.0535  1.2816  0.0466
 5979TIP3    H239429   4.730   0.511  14.343 -0.2494  1.8419 -0.1227
 5980TIP3   OH239430   6.483   0.375  15.029 -0.4829  0.1979  0.7919
 5980TIP3    H139431   6.432   0.456  15.029 -0.7235  0.0457  0.7571
 5980TIP3    H239432   6.555   0.392  15.090 -1.3731 -0.0826  1.9583
 5981TIP3   OH239433   6.491   2.942   4.022  0.0552 -0.2964  0.4762
 5981TIP3    H139434   6.457   2.942   3.933 -1.3692  0.0869  0.9737
 5981TIP3    H239435   6.483   2.851   4.051 -1.2282 -0.1117  0.7917
 5982TIP3   OH239436   6.012   1.614  11.985  0.1277  0.1369  0.1999
 5982TIP3    H139437   6.013   1.562  11.904  1.9444 -0.6264  0.6699
 5982TIP3    H239438   6.046   1.699  11.959  1.7952 -0.4562  0.3359
 5983TIP3   OH239439   1.651   6.295   0.125 -0.6775  1.0336  0.5425
 5983TIP3    H139440   1.684   6.320   0.211 -2.6567  1.4360  1.2356
 5983TIP3    H239441   1.728   6.266   0.077  0.4862  0.8380  2.4331
 5984TIP3   OH239442   1.744   3.422  15.529 -0.0978 -0.1428 -0.2755
 5984TIP3    H139443   1.828   3.377  15.528  0.6320  1.1675  0.0328
 5984TIP3    H239444   1.754   3.494  15.466 -0.3899  1.0155  0.9468
 5985TIP3   OH239445   5.205   6.174   4.850 -0.6440  0.3400  0.0423
 5985TIP3    H139446   5.248   6.100   4.807  0.4764  0.9781  0.0465
 5985TIP3    H239447   5.167   6.136   4.930  2.3141  0.2504  1.5295
 5986TIP3   OH239448   2.499   5.529   2.173  0.3930 -0.9534 -0.2969
 5986TIP3    H139449   2.484   5.608   2.225 -2.7042  1.2331 -3.9969
 5986TIP3    H239450   2.429   5.469   2.200  0.4718 -0.9316 -0.0451
 5987TIP3   OH239451   2.763   5.822   3.215 -0.2015  0.8063 -0.6915
 5987TIP3    H139452   2.815   5.766   3.159  0.9636  0.4791  0.6577
 5987TIP3    H239453   2.820   5.843   3.289 -2.3166 -0.6590  1.5657
 5988TIP3   OH239454   6.303   5.380   5.174 -0.4561 -0.2471 -0.2817
 5988TIP3    H139455   6.318   5.343   5.087 -0.8818 -1.2091  0.0269
 5988TIP3    H239456   6.278   5.471   5.159  2.1828  0.4358 -0.9924
 5989TIP3   OH239457   4.167   5.287  16.630 -0.5557  0.3643 -0.1899
 5989TIP3    H139458   4.134   5.373  16.605  1.7100  2.0225  2.1633
 5989TIP3    H239459   4.131   5.272  16.718  2.4454  0.9612  1.2477
 5990TIP3   OH239460   4.946   5.003  11.649  0.2703 -0.1321  0.4120
 5990TIP3    H139461   4.987   4.945  11.713 -2.6588 -1.0498  1.6333
 5990TIP3    H239462   4.939   5.087  11.694  0.8730  0.0554  0.1623
 5991TIP3   OH239463   0.878   1.617   5.905 -0.0304  0.1769  0.1393
 5991TIP3    H139464   0.894   1.711   5.904 -0.3658  0.2408  0.4965
 5991TIP3    H239465   0.796   1.606   5.856  0.9226 -0.1222 -1.4657
 5992TIP3   OH239466   6.166   6.524   6.035 -0.1444  0.3397  0.2527
 5992TIP3    H139467   6.142   6.599   5.981 -0.9932 -1.9362 -2.8898
 5992TIP3    H239468   6.082   6.486   6.063  0.2072 -0.2444  0.5459
 5993TIP3   OH239469   5.220   1.013   5.308  0.3955 -0.1660 -0.0132
 5993TIP3    H139470   5.190   1.102   5.289 -0.4977 -0.1158  1.5237
 5993TIP3    H239471   5.315   1.021   5.316  0.3723  0.5491 -0.3638
 5994TIP3   OH239472   6.672   1.890   5.777 -0.8354  0.4003 -0.3351
 5994TIP3    H139473   6.578   1.879   5.787 -0.7752 -1.3203 -1.2099
 5994TIP3    H239474   6.710   1.822   5.832 -0.1268  0.5395 -0.6455
 5995TIP3   OH239475   3.775   5.160  14.096 -0.7600 -0.1827 -0.1611
 5995TIP3    H139476   3.766   5.221  14.170 -0.7632  0.1108 -0.4031
 5995TIP3    H239477   3.812   5.080  14.135  0.8142  0.5312 -0.1194
 5996TIP3   OH239478   5.484   6.111   3.771  0.9422  0.3836  0.2712
 5996TIP3    H139479   5.435   6.084   3.848 -1.7401  3.8050  0.0148
 5996TIP3    H239480   5.549   6.173   3.805  0.2879  1.2811 -0.0675
 5997TIP3   OH239481   2.721   1.397  13.766  0.0597 -0.3141  0.0809
 5997TIP3    H139482   2.795   1.337  13.774  0.6607  0.4781  0.5889
 5997TIP3    H239483   2.647   1.341  13.741  1.0699 -0.9682 -1.5988
 5998TIP3   OH239484   3.707   1.344  11.384 -0.6230 -0.4160 -0.6938
 5998TIP3    H139485   3.637   1.334  11.319 -0.9015  0.2358 -0.5040
 5998TIP3    H239486   3.661   1.346  11.468 -0.2967 -0.8749 -0.4992
 5999TIP3   OH239487   3.977   6.450  11.197  0.0248  0.3793  0.3043
 5999TIP3    H139488   3.915   6.519  11.218 -0.1978 -0.3539  2.2275
 5999TIP3    H239489   3.977   6.446  11.101 -1.2382  1.8613  0.2113
 6000TIP3   OH239490   6.216   0.355  13.337 -0.2395  0.4741 -0.0183
 6000TIP3    H139491   6.128   0.317  13.338 -1.0856  2.2952  0.3841
 6000TIP3    H239492   6.249   0.337  13.249 -0.8138 -0.6552 -0.0131
 6001TIP3   OH239493   1.047   0.611   1.018 -0.2455 -0.2423 -0.5405
 6001TIP3    H139494   0.993   0.687   0.998 -0.8191 -1.1382 -2.6910
 6001TIP3    H239495   0.988   0.550   1.063 -1.1451 -1.2317 -2.9107
 6002TIP3   OH239496   5.639   6.536  11.479 -0.6483  0.1727 -0.1779
 6002TIP3    H139497   5.566   6.558  11.421  0.8781  1.8973 -1.5543
 6002TIP3    H239498   5.710   6.510  11.421 -0.2696 -2.0422  1.1607
 6003TIP3   OH239499   4.217   4.397   0.143 -0.1951 -0.2581  0.0537
 6003TIP3    H139500   4.259   4.311   0.150  1.7478  0.7426  2.9086
 6003TIP3    H239501   4.132   4.386   0.185 -0.8564 -1.2274 -1.4864
 6004TIP3   OH239502   0.190   6.464  14.447 -0.4185 -0.1789  0.7846
 6004TIP3    H139503   0.163   6.523  14.517 -1.8546  1.3177 -0.9273
 6004TIP3    H239504   0.120   6.471  14.381  1.3079 -0.7864 -1.2205
 6005TIP3   OH239505   3.976   4.635  11.439 -0.2471 -0.0225  0.1057
 6005TIP3    H139506   3.998   4.727  11.446  1.5070 -0.5065  3.1866
 6005TIP3    H239507   3.918   4.619  11.514  0.2686 -1.5552  0.2189
 6006TIP3   OH239508   0.609   3.883  16.493 -0.1392  0.0094  0.0736
 6006TIP3    H139509   0.646   3.795  16.500 -1.1665 -0.5057 -0.8152
 6006TIP3    H239510   0.526   3.878  16.542 -0.9337  0.0402 -1.2348
 6007TIP3   OH239511   3.357   0.298  16.684 -0.0787 -0.3405  0.0662
 6007TIP3    H139512   3.381   0.315  16.775 -0.1047 -0.9239  0.1881
 6007TIP3    H239513   3.314   0.212  16.686 -0.6309 -0.0879 -0.4034
 6008TIP3   OH239514   1.057   4.889  11.988  0.2275  0.2898 -0.1892
 6008TIP3    H139515   1.115   4.827  12.031  0.1761  0.5781  0.3025
 6008TIP3    H239516   0.983   4.898  12.048  0.3142  0.9509 -0.1772
 6009TIP3   OH239517   2.189   1.861  16.722 -0.5683  0.0488  0.4722
 6009TIP3    H139518   2.125   1.926  16.693 -0.1717 -0.3026 -1.3367
 6009TIP3    H239519   2.274   1.898  16.697 -0.1510 -0.1020  1.6055
 6010TIP3   OH239520   6.234   0.350  14.050 -0.3745  0.6392 -0.2431
 6010TIP3    H139521   6.148   0.364  14.090 -0.0810  2.7620 -0.2496
 6010TIP3    H239522   6.217   0.291  13.977 -1.2479 -1.6634  1.7049
 6011TIP3   OH239523   0.075   5.551  15.616 -0.4026  0.3204 -0.1234
 6011TIP3    H139524   0.089   5.507  15.700 -1.7663 -0.7530 -0.4272
 6011TIP3    H239525   0.000   5.609  15.632 -0.7381  0.0297 -0.6265
 6012TIP3   OH239526   3.106   2.472  14.085 -0.4675 -0.0865  0.5592
 6012TIP3    H139527   3.021   2.499  14.051  1.0790  2.0751 -2.0333
 6012TIP3    H239528   3.120   2.526  14.163 -1.0986  0.1874  0.4829
 6013TIP3   OH239529   2.831   6.208   4.355  0.6679 -0.3485  0.1917
 6013TIP3    H139530   2.776   6.187   4.278 -1.0368  0.4603  1.1270
 6013TIP3    H239531   2.812   6.137   4.417  0.2164  0.2474  0.7423
 6014TIP3   OH239532   5.945   4.768  16.104 -0.1489  0.2848  0.2615
 6014TIP3    H139533   5.911   4.855  16.081 -1.2067  0.6060  2.7212
 6014TIP3    H239534   6.040   4.779  16.105 -0.1971  1.0055 -0.8025
 6015TIP3   OH239535   5.307   0.123   2.894 -0.4064 -0.3800  0.4016
 6015TIP3    H139536   5.275   0.213   2.904 -0.2418 -0.2277 -0.3732
 6015TIP3    H239537   5.342   0.100   2.979  0.4616  0.6558  0.3337
 6016TIP3   OH239538   5.588   6.281  11.616  0.3760 -0.1431  0.0579
 6016TIP3    H139539   5.598   6.376  11.605  1.7442  0.3841  4.1213
 6016TIP3    H239540   5.678   6.249  11.620 -0.0293 -1.1606  1.4616
 6017TIP3   OH239541   0.392   3.522  16.727 -0.1392 -0.1306  0.1302
 6017TIP3    H139542   0.438   3.604  16.745 -3.5337  1.9330  0.2289
 6017TIP3    H239543   0.396   3.513  16.632 -0.4173  0.5990  0.0443
 6018TIP3   OH239544   5.058   5.719  13.120  0.1156 -0.1206 -0.3343
 6018TIP3    H139545   5.030   5.811  13.119 -1.4201 -0.5535 -0.3393
 6018TIP3    H239546   5.137   5.719  13.173 -0.6168  1.0233  0.8268
 6019TIP3   OH239547   1.710   3.293  13.641  0.1775  0.3466 -0.1678
 6019TIP3    H139548   1.762   3.235  13.697 -0.9702 -0.8986 -0.3255
 6019TIP3    H239549   1.661   3.348  13.701 -4.1735 -3.6341  0.5348
 6020TIP3   OH239550   3.058   1.130   4.167 -0.0000 -0.3672 -0.0018
 6020TIP3    H139551   3.072   1.064   4.099 -0.4653  1.4120 -1.9262
 6020TIP3    H239552   2.966   1.154   4.158  0.2278  0.7428  0.4908
 6021TIP3   OH239553   3.590   6.436   3.360  0.2033  0.6964 -0.2922
 6021TIP3    H139554   3.667   6.451   3.415  0.2514  0.3450 -0.2623
 6021TIP3    H239555   3.626   6.422   3.272  0.8009 -5.3701  0.5146
 6022TIP3   OH239556   4.460   3.204  15.293 -0.6212 -0.8273  0.1023
 6022TIP3    H139557   4.459   3.120  15.248 -1.6771 -0.5469 -0.4438
 6022TIP3    H239558   4.410   3.189  15.373  2.0095 -1.5608  1.7067
 6023TIP3   OH239559   0.990   1.896   1.628  0.3054 -0.4631 -0.0360
 6023TIP3    H139560   0.898   1.923   1.622 -0.1179 -1.8266  0.0529
 6023TIP3    H239561   1.021   1.936   1.709 -0.1119  0.2556 -0.2173
 6024TIP3   OH239562   4.400   6.836   6.399  0.4274 -0.2575  0.0867
 6024TIP3    H139563   4.328   6.824   6.461  0.3256  0.7320  0.1660
 6024TIP3    H239564   4.359   6.867   6.319  0.8145  1.1004  0.3801
 6025TIP3   OH239565   6.615   2.398  11.949  0.1500 -0.0900 -0.5888
 6025TIP3    H139566   6.555   2.464  11.913  1.6948  1.2189 -0.8895
 6025TIP3    H239567   6.601   2.401  12.043  0.1684  0.6708 -0.6018
 6026TIP3   OH239568   3.692   4.808   0.576 -0.0823 -0.1987 -0.2049
 6026TIP3    H139569   3.638   4.791   0.652 -1.1650 -1.4657 -1.2078
 6026TIP3    H239570   3.683   4.902   0.560  1.0904  0.3327  1.8495
 6027TIP3   OH239571   5.155   5.538   0.785  0.2759  0.1756 -0.5291
 6027TIP3    H139572   5.219   5.491   0.730  0.8535 -0.9871  1.0485
 6027TIP3    H239573   5.073   5.490   0.772  0.4685 -0.2490 -0.2109
 6028TIP3   OH239574   3.871   4.007  11.116  0.8772 -0.2457 -0.2328
 6028TIP3    H139575   3.869   3.934  11.055 -0.1429 -0.3248 -0.1291
 6028TIP3    H239576   3.820   4.075  11.073  0.7762 -0.0402  0.2093
 6029TIP3   OH239577   4.041   2.052  16.438 -0.6725  0.0341  0.7552
 6029TIP3    H139578   3.966   1.994  16.427 -0.3903 -0.4926  1.5286
 6029TIP3    H239579   4.048   2.064  16.533  1.3594 -1.4531  0.8528
 6030TIP3   OH239580   5.075   5.397   1.992  0.1922 -0.8589 -0.0288
 6030TIP3    H139581   5.014   5.409   2.065 -0.5486 -2.7970 -0.2518
 6030TIP3    H239582   5.050   5.313   1.955  2.9865 -1.7272 -0.1695
 6031TIP3   OH239583   2.788   5.852   5.261  0.9462 -0.6399  0.0590
 6031TIP3    H139584   2.862   5.827   5.317 -0.4388 -4.2253  0.5651
 6031TIP3    H239585   2.776   5.777   5.203 -1.6283  0.2804 -0.7213
 6032TIP3   OH239586   5.486   5.171   4.168 -0.1253 -0.1459 -0.1093
 6032TIP3    H139587   5.501   5.174   4.074  0.7956  0.4832  0.0483
 6032TIP3    H239588   5.484   5.077   4.189  1.6070 -0.2849 -0.4651
 6033TIP3   OH239589   3.000   0.047  15.554  0.0181 -0.2221  0.3708
 6033TIP3    H139590   2.967   0.123  15.506  0.2256 -0.1434  0.3509
 6033TIP3    H239591   3.084   0.076  15.589 -0.1454 -0.2675  0.8105
 6034TIP3   OH239592   5.618   6.199  13.382 -0.2446 -0.3640 -0.5141
 6034TIP3    H139593   5.590   6.136  13.448 -0.8038 -0.5474 -0.9174
 6034TIP3    H239594   5.538   6.244  13.356  0.1740  0.6112 -0.1373
 6035TIP3   OH239595   2.444   3.056   1.229 -0.4871 -0.0561 -0.0041
 6035TIP3    H139596   2.414   3.040   1.318 -1.7496 -0.7491 -0.5267
 6035TIP3    H239597   2.409   3.142   1.207 -1.6029 -0.5867 -0.3850
 6036TIP3   OH239598   6.431   5.310   6.368  0.9420 -0.5023 -0.7109
 6036TIP3    H139599   6.397   5.222   6.385  1.3857 -0.2363  2.0236
 6036TIP3    H239600   6.515   5.313   6.413  1.4040  1.0252 -1.6032
 6037TIP3   OH239601   2.943   4.711  11.867 -0.1366  0.0384 -0.0301
 6037TIP3    H139602   2.947   4.802  11.839  1.5237  0.1594  0.4553
 6037TIP3    H239603   2.909   4.715  11.957 -1.0304  0.0784 -0.3673
 6038TIP3   OH239604   1.634   2.146   2.332  0.1713  0.0158  0.0060
 6038TIP3    H139605   1.725   2.174   2.324  0.6169 -0.2971  2.9081
 6038TIP3    H239606   1.585   2.227   2.348  0.5860 -0.1067  2.3107
 6039TIP3   OH239607   2.789   0.678  16.676  0.1369  0.1173 -0.2893
 6039TIP3    H139608   2.842   0.755  16.654  0.9751 -0.6333 -0.9957
 6039TIP3    H239609   2.793   0.623  16.598 -0.8736 -0.4194  0.0183
 6040TIP3   OH239610   2.860   2.748   5.834 -0.4648  0.4314 -0.4799
 6040TIP3    H139611   2.838   2.772   5.744 -0.0513  0.6284 -0.5271
 6040TIP3    H239612   2.775   2.742   5.879 -0.6716  0.3095 -0.8877
 6041TIP3   OH239613   5.449   0.213  13.745  0.4052  0.1836 -0.3799
 6041TIP3    H139614   5.449   0.279  13.675  0.7677 -0.1721 -0.7290
 6041TIP3    H239615   5.398   0.141  13.709  0.4459  0.0700 -0.2086
 6042TIP3   OH239616   1.056   2.570  14.489  0.3390  0.0463 -0.4486
 6042TIP3    H139617   0.991   2.604  14.551  0.3374  0.6689 -0.7815
 6042TIP3    H239618   1.014   2.492  14.452  0.4924 -0.5478  0.5928
 6043TIP3   OH239619   0.710   0.669  11.139 -0.1938  0.3083  0.3425
 6043TIP3    H139620   0.710   0.762  11.158  1.6007  0.8181 -1.7300
 6043TIP3    H239621   0.665   0.661  11.055 -1.0333 -0.8268  0.8614
 6044TIP3   OH239622   4.211   5.896  14.343  0.0599 -0.2261 -0.0867
 6044TIP3    H139623   4.218   5.977  14.292  0.6808 -0.6277 -0.6456
 6044TIP3    H239624   4.127   5.904  14.389 -0.0122  0.6103 -0.3449
 6045TIP3   OH239625   5.905   2.162   5.340  0.2275 -0.2486  0.8691
 6045TIP3    H139626   5.843   2.222   5.300  1.2569  0.0058 -0.3905
 6045TIP3    H239627   5.969   2.218   5.383  1.2308 -0.4059 -0.3698
 6046TIP3   OH239628   3.229   0.861  14.316  0.0891 -0.1393 -0.1492
 6046TIP3    H139629   3.255   0.796  14.251  0.9560  0.0743 -0.0393
 6046TIP3    H239630   3.166   0.916  14.272  0.3465 -0.2566 -0.6727
 6047TIP3   OH239631   2.105   5.330   2.969  0.0430 -0.3502  0.3237
 6047TIP3    H139632   2.034   5.394   2.960 -0.7684 -1.4599 -2.1710
 6047TIP3    H239633   2.143   5.348   3.055 -2.0661  1.4921  0.9748
 6048TIP3   OH239634   1.694   4.147   0.101 -0.3235 -0.1170 -0.1603
 6048TIP3    H139635   1.642   4.161   0.180 -1.0872  1.0110 -0.8370
 6048TIP3    H239636   1.778   4.188   0.119 -0.4057 -0.0855  0.1515
 6049TIP3   OH239637   0.344   0.323   3.078 -0.2307 -0.2981 -0.6670
 6049TIP3    H139638   0.314   0.244   3.123 -0.6103  0.1129 -0.1827
 6049TIP3    H239639   0.289   0.328   3.000  0.1376 -0.7815 -0.9616
 6050TIP3   OH239640   5.786   5.549   3.168 -0.5572  0.0159  0.4130
 6050TIP3    H139641   5.789   5.586   3.079 -0.7714 -0.9673 -0.0157
 6050TIP3    H239642   5.767   5.456   3.154  1.2642 -0.5446  1.3832
 6051TIP3   OH239643   5.402   0.583  15.716 -0.3098 -0.0651 -0.3557
 6051TIP3    H139644   5.331   0.578  15.780 -1.1086 -0.6635 -1.2584
 6051TIP3    H239645   5.370   0.643  15.650 -0.4597 -1.1606 -1.3186
 6052TIP3   OH239646   6.150   0.818  11.731 -0.5034  0.1358  0.4604
 6052TIP3    H139647   6.073   0.865  11.762  1.0163  1.2591  2.8086
 6052TIP3    H239648   6.172   0.758  11.802  0.1098 -1.0484 -0.6910
 6053TIP3   OH239649   4.308   1.457   1.311  0.0550  0.4190 -0.0030
 6053TIP3    H139650   4.298   1.535   1.256 -1.8541 -0.3568 -0.8551
 6053TIP3    H239651   4.331   1.388   1.249  0.1308 -0.0084  0.5015
 6054TIP3   OH239652   2.731   1.490   3.391  0.7367  0.2817 -0.1465
 6054TIP3    H139653   2.803   1.497   3.328  1.1134  1.1639  0.3678
 6054TIP3    H239654   2.654   1.471   3.337  1.0554  1.0181 -0.8763
 6055TIP3   OH239655   5.381   6.610   3.560  0.0902 -0.1949  0.3850
 6055TIP3    H139656   5.463   6.595   3.608  0.9825  0.4607 -0.8600
 6055TIP3    H239657   5.321   6.647   3.625  0.5267 -1.3984  1.5024
 6056TIP3   OH239658   2.747   5.029  13.698 -0.0258 -0.7308 -0.1741
 6056TIP3    H139659   2.658   5.049  13.670  0.2242  0.9804  0.1416
 6056TIP3    H239660   2.737   4.967  13.771 -0.9649 -0.2328  0.1248
 6057TIP3   OH239661   2.543   1.653  12.166  0.3653  0.5059  0.2818
 6057TIP3    H139662   2.609   1.583  12.164 -0.1469  0.0281  0.0967
 6057TIP3    H239663   2.535   1.681  12.075 -0.7893 -0.4859  0.0490
 6058TIP3   OH239664   1.236   2.033  15.942 -0.0593  0.3121  0.8009
 6058TIP3    H139665   1.205   1.982  15.867  4.2286  2.3709 -2.8392
 6058TIP3    H239666   1.178   2.007  16.014 -2.8080 -3.9736 -2.4338
 6059TIP3   OH239667   3.126   3.008  14.669 -0.7139  0.0834  0.2948
 6059TIP3    H139668   3.142   3.102  14.675  0.4250 -0.0940  0.3009
 6059TIP3    H239669   3.054   2.992  14.730 -1.4122  1.0518 -0.2458
 6060TIP3   OH239670   2.767   5.267   2.604 -0.4111  0.0069  0.4785
 6060TIP3    H139671   2.700   5.277   2.672 -1.9669  0.8855 -1.1001
 6060TIP3    H239672   2.821   5.345   2.612  0.2470 -0.5217  1.5123
 6061TIP3   OH239673   1.225   1.254   4.880  0.4294 -0.0561  0.2629
 6061TIP3    H139674   1.256   1.312   4.949  0.7173  2.1573 -1.6011
 6061TIP3    H239675   1.145   1.215   4.914 -1.4156  3.6917  0.6255
 6062TIP3   OH239676   2.371   5.470   5.682  0.3913 -0.3092 -0.6278
 6062TIP3    H139677   2.322   5.402   5.637  0.9214  0.0983 -1.8665
 6062TIP3    H239678   2.441   5.423   5.728 -0.2862 -0.7494 -0.0316
 6063TIP3   OH239679   2.836   1.946  14.317 -0.3177 -0.1041 -0.6797
 6063TIP3    H139680   2.905   1.993  14.271  0.9170  0.3991  1.5702
 6063TIP3    H239681   2.880   1.869  14.354 -0.7241  0.6029  1.4077
 6064TIP3   OH239682   3.284   6.734  12.307  0.1390 -0.2913  0.1553
 6064TIP3    H139683   3.218   6.703  12.244 -1.3582  0.6248  1.1968
 6064TIP3    H239684   3.361   6.752  12.254  0.5193 -3.9063 -0.7867
 6065TIP3   OH239685   4.816   1.617   3.697  0.1265  0.4366  0.4184
 6065TIP3    H139686   4.721   1.617   3.682 -0.2861 -2.8513  1.8699
 6065TIP3    H239687   4.854   1.600   3.611 -0.8494 -0.8667  0.2046
 6066TIP3   OH239688   4.045   3.387  14.314 -0.1625  0.0652 -0.1142
 6066TIP3    H139689   3.979   3.345  14.259 -3.9383  2.1285  2.3503
 6066TIP3    H239690   4.062   3.471  14.272  1.4767 -0.6688 -1.0239
 6067TIP3   OH239691   1.234   4.041  11.158  0.0168 -0.1063  0.2154
 6067TIP3    H139692   1.162   4.023  11.097  1.1165 -1.1437 -0.8204
 6067TIP3    H239693   1.288   4.106  11.113  0.9790 -1.0738 -0.0447
 6068TIP3   OH239694   3.342   3.646   5.216 -0.2880 -0.4255 -0.9843
 6068TIP3    H139695   3.363   3.598   5.296 -0.5142 -1.1262 -1.3309
 6068TIP3    H239696   3.366   3.737   5.235  1.0676 -0.8251 -0.6369
 6069TIP3   OH239697   3.621   3.126  13.417 -0.2132  0.5344 -0.6101
 6069TIP3    H139698   3.594   3.193  13.480 -1.4035 -0.5077  0.0442
 6069TIP3    H239699   3.602   3.164  13.332  0.4596  1.5742 -0.3107
 6070TIP3   OH239700   0.058   2.233   5.027 -0.1626  0.3466  0.3107
 6070TIP3    H139701   0.100   2.287   4.959 -1.8872  1.3695 -0.0140
 6070TIP3    H239702   0.059   2.144   4.991  1.8611  0.2744  0.4275
 6071TIP3   OH239703   0.756   5.079   3.167 -0.4066 -0.7501  0.0312
 6071TIP3    H139704   0.757   5.000   3.221 -0.0472  0.8689  2.5481
 6071TIP3    H239705   0.677   5.126   3.196 -0.1158  0.2510 -0.7569
 6072TIP3   OH239706   2.921   1.439  16.040 -0.1889 -0.0475 -0.1559
 6072TIP3    H139707   2.916   1.365  16.100  1.3160  0.6019  0.8550
 6072TIP3    H239708   2.874   1.411  15.962  2.4962 -3.0735 -0.8578
 6073TIP3   OH239709   2.481   3.552   4.485 -0.3546  0.1137 -0.0346
 6073TIP3    H139710   2.397   3.515   4.513  0.0889  0.2077  1.5613
 6073TIP3    H239711   2.487   3.636   4.530  0.8103 -0.1265  0.3125
 6074TIP3   OH239712   0.476   4.339  16.943  0.1583  0.1890  1.0535
 6074TIP3    H139713   0.565   4.372  16.955  0.5557  0.7238 -2.3765
 6074TIP3    H239714   0.421   4.400  16.991  1.4437  1.4840  0.9506
 6075TIP3   OH239715   1.282   6.825   1.463  0.1343  0.0220 -0.0918
 6075TIP3    H139716   1.229   6.806   1.541  0.8059 -2.5493 -0.1557
 6075TIP3    H239717   1.339   6.897   1.490  0.4521 -0.8894  1.8661
 6076TIP3   OH239718   4.296   5.263  12.799 -0.5310  0.1264  0.1034
 6076TIP3    H139719   4.365   5.312  12.843  1.6464  0.2746 -3.1804
 6076TIP3    H239720   4.223   5.262  12.862  1.5073  2.1837  2.6965
 6077TIP3   OH239721   1.990   1.635  13.303  0.2665 -0.6683 -0.1056
 6077TIP3    H139722   1.920   1.610  13.364  0.8095 -1.0311  0.3792
 6077TIP3    H239723   1.966   1.593  13.220 -1.5513  1.4722 -0.7578
 6078TIP3   OH239724   2.715   3.746   5.963 -0.5154  0.8477 -0.4044
 6078TIP3    H139725   2.717   3.834   5.999  0.5813 -0.0544  1.9473
 6078TIP3    H239726   2.778   3.749   5.891  0.3653  1.7174  0.3736
 6079TIP3   OH239727   4.628   4.348   1.840 -0.8421  0.1090 -0.1269
 6079TIP3    H139728   4.688   4.368   1.912  1.4789 -1.5502 -1.4490
 6079TIP3    H239729   4.642   4.419   1.777  0.7125 -0.8202 -0.9179
 6080TIP3   OH239730   3.990   1.728   5.186  0.1198  0.1115 -0.5343
 6080TIP3    H139731   3.922   1.753   5.124 -1.5763  1.1641  1.6040
 6080TIP3    H239732   3.943   1.692   5.260  1.8355  1.1387  1.1638
 6081TIP3   OH239733   1.940   3.833  14.745  0.1597 -0.6073  0.5374
 6081TIP3    H139734   1.904   3.921  14.735  0.9630 -0.3606 -0.3415
 6081TIP3    H239735   1.962   3.806  14.656  0.3224 -1.5315  0.8489
 6082TIP3   OH239736   1.401   5.573  15.571 -0.4491  0.5306 -0.0746
 6082TIP3    H139737   1.465   5.623  15.622 -1.7764 -0.0388  2.3421
 6082TIP3    H239738   1.320   5.624  15.579 -0.8650  0.0277 -1.0051
 6083TIP3   OH239739   5.496   3.895   4.800  0.3231 -0.2699 -0.0652
 6083TIP3    H139740   5.467   3.959   4.865 -1.8418 -0.2434 -0.9663
 6083TIP3    H239741   5.585   3.874   4.825 -0.0792  0.5369  2.2747
 6084TIP3   OH239742   0.418   2.676   3.353  0.0749 -0.3525  0.3965
 6084TIP3    H139743   0.482   2.610   3.327  1.9796  1.0447  1.2962
 6084TIP3    H239744   0.432   2.749   3.292 -2.4774 -0.9280 -1.0453
 6085TIP3   OH239745   3.773   5.200   0.836  0.6694 -0.7630  0.2294
 6085TIP3    H139746   3.808   5.157   0.914  0.9782 -0.7909  0.0743
 6085TIP3    H239747   3.808   5.289   0.840 -1.0456 -0.0836  1.2758
 6086TIP3   OH239748   5.357   4.491  14.264  0.0856  0.2555  0.3893
 6086TIP3    H139749   5.383   4.482  14.173  0.1945  0.6304  0.3817
 6086TIP3    H239750   5.278   4.544  14.261  0.0740  0.2457  0.5135
 6087TIP3   OH239751   4.362   5.778  14.139  0.0044 -0.1170  0.4709
 6087TIP3    H139752   4.301   5.804  14.209 -0.3421 -2.7621  1.2673
 6087TIP3    H239753   4.306   5.765  14.062 -0.1702 -0.7457  0.7014
 6088TIP3   OH239754   3.139   2.876  12.271  0.6588 -0.4965  0.0617
 6088TIP3    H139755   3.189   2.915  12.199  0.6493 -0.4593  0.0754
 6088TIP3    H239756   3.202   2.870  12.342  1.0768 -1.8866 -0.3995
 6089TIP3   OH239757   6.090   4.396  14.861 -0.3352  0.2765 -0.0760
 6089TIP3    H139758   6.044   4.313  14.874 -1.3196  0.6693 -0.8910
 6089TIP3    H239759   6.041   4.459  14.914 -1.6368  0.9705 -1.9726
 6090TIP3   OH239760   6.276   0.488   0.207  0.4547  0.0750  0.0132
 6090TIP3    H139761   6.212   0.557   0.191 -0.1869 -0.7728 -1.2892
 6090TIP3    H239762   6.296   0.495   0.301 -1.6243  0.2954  0.4939
 6091TIP3   OH239763   6.709   4.797  12.702  0.2281  0.9114  0.2526
 6091TIP3    H139764   6.756   4.775  12.621 -0.1952 -0.8593  0.4408
 6091TIP3    H239765   6.621   4.763  12.688 -0.1414  1.4979  1.0829
 6092TIP3   OH239766   5.221   5.421  14.908 -0.4134 -0.0158 -0.0982
 6092TIP3    H139767   5.287   5.481  14.945 -0.1207 -0.1723 -0.3609
 6092TIP3    H239768   5.236   5.426  14.813 -0.9038  0.0880 -0.1700
 6093TIP3   OH239769   1.586   0.274  14.593  0.1330  0.3748 -0.1104
 6093TIP3    H139770   1.503   0.250  14.634 -0.4817 -1.1296 -2.0516
 6093TIP3    H239771   1.642   0.197  14.603  0.5112  0.5634 -0.6891
 6094TIP3   OH239772   2.849   4.374   5.847 -0.3003 -0.3178 -0.0769
 6094TIP3    H139773   2.875   4.392   5.757 -1.3096  0.4675 -0.2326
 6094TIP3    H239774   2.913   4.309   5.878  2.0560  1.7616 -0.2752
 6095TIP3   OH239775   6.518   5.467   5.311  0.0804 -0.7661  0.1727
 6095TIP3    H139776   6.588   5.405   5.294 -0.7026 -1.9882  1.3043
 6095TIP3    H239777   6.438   5.423   5.282 -0.6403 -0.8211  2.0864
 6096TIP3   OH239778   6.279   0.946  16.523 -0.0325  0.4130 -0.0753
 6096TIP3    H139779   6.325   0.997  16.590 -1.4450  0.3559  0.9672
 6096TIP3    H239780   6.329   0.864  16.518  0.7539  0.8659  0.0577
 6097TIP3   OH239781   1.341   1.074  12.441  0.0191 -0.7650  0.5217
 6097TIP3    H139782   1.260   1.111  12.477  0.5796  2.1809 -0.9738
 6097TIP3    H239783   1.335   1.088  12.347  2.3324 -0.3111  0.3789
 6098TIP3   OH239784   0.041   2.624   4.251 -0.8495  0.3372 -0.0035
 6098TIP3    H139785   0.076   2.664   4.330 -0.9365  0.2419  0.0844
 6098TIP3    H239786   0.012   2.537   4.279 -1.1045  0.3942 -0.0841
 6099TIP3   OH239787   0.963   2.170  16.868  0.4519 -0.2604  0.0463
 6099TIP3    H139788   1.020   2.095  16.850  0.3689  0.0212 -1.5841
 6099TIP3    H239789   0.878   2.144  16.833  0.2319  0.3022  0.1550
 6100TIP3   OH239790   5.807   3.470   1.991  0.0559  0.4014 -0.4124
 6100TIP3    H139791   5.782   3.384   2.025 -0.9667  0.0475 -1.9816
 6100TIP3    H239792   5.726   3.520   1.989  0.4436  1.0345 -0.5876
 6101TIP3   OH239793   3.071   6.741   3.417 -0.0135  0.3058 -1.1183
 6101TIP3    H139794   3.041   6.652   3.398  2.9539 -0.9113 -0.6785
 6101TIP3    H239795   3.102   6.738   3.507  2.9440  0.8068 -1.9822
 6102TIP3   OH239796   4.385   5.908  11.280 -0.0448 -0.2085 -0.2714
 6102TIP3    H139797   4.345   5.956  11.207  0.2475  0.5584  0.0628
 6102TIP3    H239798   4.405   5.822  11.243  2.5649  0.9856 -1.9656
 6103TIP3   OH239799   0.943   1.098   0.937 -0.3039  0.1184 -0.1631
 6103TIP3    H139800   0.951   1.044   1.015  0.9770  0.9646  0.3373
 6103TIP3    H239801   1.032   1.129   0.920 -0.8329  1.2872 -0.9771
 6104TIP3   OH239802   6.673   6.822   4.282  0.2228 -0.0813  0.1029
 6104TIP3    H139803   6.723   6.883   4.228  0.5039 -0.3123  0.0990
 6104TIP3    H239804   6.738   6.785   4.343 -0.3145  1.1094  1.4494
 6105TIP3   OH239805   4.163   1.828   1.008 -0.1498  0.9882 -0.8891
 6105TIP3    H139806   4.132   1.909   1.047  0.1885  0.4701  0.5093
 6105TIP3    H239807   4.206   1.855   0.927 -0.3545  2.1573 -0.6251
 6106TIP3   OH239808   5.566   0.021  12.793 -0.4484 -0.1706 -0.0436
 6106TIP3    H139809   5.491   0.068  12.756  0.2488  0.6834 -0.4182
 6106TIP3    H239810   5.528  -0.037  12.859 -1.4315  0.2702 -0.2019
 6107TIP3   OH239811   2.056   4.608   3.658  0.1632  0.4232  0.1488
 6107TIP3    H139812   2.009   4.626   3.577  2.1795  1.3813 -0.8727
 6107TIP3    H239813   1.988   4.609   3.725 -1.1927  2.6832 -1.1282
 6108TIP3   OH239814   3.483   5.035  13.247  0.3536 -0.7072  0.6096
 6108TIP3    H139815   3.533   4.993  13.177  0.7212  0.0770  0.3843
 6108TIP3    H239816   3.490   5.129  13.228 -1.5060 -0.5932  0.3767
 6109TIP3   OH239817   0.808   1.821  17.021  0.1947 -0.2201 -0.4327
 6109TIP3    H139818   0.830   1.729  17.035 -0.3507 -0.2166  0.5721
 6109TIP3    H239819   0.875   1.869  17.070 -0.8392 -0.1632  1.0046
 6110TIP3   OH239820   6.289   3.846  11.885 -0.7040 -0.3360  0.2362
 6110TIP3    H139821   6.217   3.910  11.891 -1.8174 -1.6198  1.1991
 6110TIP3    H239822   6.288   3.818  11.794  0.4024  1.6313 -0.4491
 6111TIP3   OH239823   4.384   5.687   6.118  0.1399  0.3911  0.2297
 6111TIP3    H139824   4.374   5.650   6.206 -0.6474 -0.4760 -0.1991
 6111TIP3    H239825   4.461   5.643   6.082  0.4162  0.6885  0.4528
 6112TIP3   OH239826   0.243   1.487  15.207 -0.4528 -0.2375  0.4009
 6112TIP3    H139827   0.156   1.523  15.225 -0.4999  0.0389 -0.3503
 6112TIP3    H239828   0.292   1.503  15.288 -1.0384 -0.2200  0.7622
 6113TIP3   OH239829   5.914   0.307   2.145  0.2550  0.3519  0.3796
 6113TIP3    H139830   5.897   0.214   2.161  1.8730  0.0957  0.8136
 6113TIP3    H239831   5.874   0.351   2.220  1.8519 -0.2628  1.6485
 6114TIP3   OH239832   3.263   2.265  16.918 -0.4308  0.2555  0.5989
 6114TIP3    H139833   3.192   2.204  16.897 -0.4544  0.2284  0.7562
 6114TIP3    H239834   3.218   2.348  16.933 -0.4347  0.2267  0.7484
 6115TIP3   OH239835   6.717   0.762   5.533 -0.0575 -0.4049 -0.3079
 6115TIP3    H139836   6.640   0.706   5.527 -1.3198  0.8917  2.3546
 6115TIP3    H239837   6.741   0.761   5.625  0.3416  2.7589 -0.2613
 6116TIP3   OH239838   4.966   6.628   2.706  0.0444 -0.1794 -0.3692
 6116TIP3    H139839   5.030   6.563   2.735 -0.8973 -1.1855 -0.4535
 6116TIP3    H239840   4.882   6.581   2.708 -0.6831  1.0914 -0.2947
 6117TIP3   OH239841   3.989   6.565   4.758 -0.0105 -0.4114  0.2262
 6117TIP3    H139842   3.980   6.518   4.840  0.3121 -3.0786 -1.1590
 6117TIP3    H239843   4.029   6.502   4.698  1.6022  2.0396 -1.4873
 6118TIP3   OH239844   5.085   5.050   2.617  0.1553  0.3758 -0.3264
 6118TIP3    H139845   5.053   5.141   2.610  0.7478  0.6220  0.1634
 6118TIP3    H239846   5.007   4.997   2.600 -0.7734  0.9579  1.7420
 6119TIP3   OH239847   0.247   6.372   3.973 -0.0661 -0.0807 -0.0085
 6119TIP3    H139848   0.250   6.415   3.888  1.0097  1.2283  0.6434
 6119TIP3    H239849   0.155   6.378   4.000 -0.3464 -0.1954 -0.9108
 6120TIP3   OH239850   2.571   6.457  14.188 -0.0717 -0.0615 -0.6360
 6120TIP3    H139851   2.558   6.530  14.128  1.5387 -0.9934 -2.2438
 6120TIP3    H239852   2.567   6.379  14.132  3.4005 -0.8715 -0.0019
 6121TIP3   OH239853   6.247   6.365  10.427 -0.4144 -0.0676  0.2271
 6121TIP3    H139854   6.316   6.302  10.443 -0.5170 -0.1979  0.1576
 6121TIP3    H239855   6.197   6.368  10.510  0.8075  1.4490  0.9618
 6122TIP3   OH239856   4.150   0.368  11.270  0.1806  0.0447  0.1797
 6122TIP3    H139857   4.064   0.410  11.278 -0.4516 -1.5193  2.9621
 6122TIP3    H239858   4.132   0.285  11.224  0.5992  0.5920 -1.0170
 6123TIP3   OH239859   4.935   5.917  15.806  0.3221 -0.0921  0.0940
 6123TIP3    H139860   5.025   5.907  15.775  0.3755 -1.6896  0.6520
 6123TIP3    H239861   4.943   5.953  15.894  0.6385 -2.8244  1.2824
 6124TIP3   OH239862   6.323   3.723  15.751 -0.1358 -0.2391 -0.3778
 6124TIP3    H139863   6.277   3.639  15.756  0.8779 -0.8154 -0.4348
 6124TIP3    H239864   6.276   3.772  15.683  0.2186 -1.3765 -1.4764
 6125TIP3   OH239865   5.084   0.968  12.272  0.3455  0.5142 -0.1941
 6125TIP3    H139866   5.106   1.058  12.296  1.1533  0.0288  0.9395
 6125TIP3    H239867   5.001   0.976  12.224  0.3714  1.8468 -0.0535
 6126TIP3   OH239868   1.805   4.607  11.873 -0.0867  0.0222  0.0885
 6126TIP3    H139869   1.823   4.522  11.913 -1.3681  0.5934  2.0521
 6126TIP3    H239870   1.891   4.644  11.854  0.5446 -0.9006  1.0475
 6127TIP3   OH239871   4.470   4.041   0.669 -0.0453  0.7328  0.3561
 6127TIP3    H139872   4.379   4.011   0.679  0.1809 -0.0811  0.0931
 6127TIP3    H239873   4.470   4.090   0.586 -0.0324 -0.1691 -0.1906
 6128TIP3   OH239874   6.004   5.577  14.749  0.0101 -0.2775 -0.4094
 6128TIP3    H139875   6.087   5.610  14.783 -0.8010 -0.1839  1.6232
 6128TIP3    H239876   6.016   5.482  14.743  0.3980 -0.2213 -0.5274
 6129TIP3   OH239877   2.803   5.221   5.218  0.0514  0.2866  0.8683
 6129TIP3    H139878   2.885   5.256   5.184  0.0593 -0.2936  0.2862
 6129TIP3    H239879   2.772   5.161   5.151 -0.0491 -0.7173  1.7822
 6130TIP3   OH239880   0.121   1.175   1.150 -0.0685 -0.7283  0.2087
 6130TIP3    H139881   0.144   1.100   1.203  0.8727  0.0015  0.8547
 6130TIP3    H239882   0.043   1.212   1.192 -1.6890 -2.3852 -1.1812
 6131TIP3   OH239883   0.058   6.696   2.644 -0.0862  0.1101  0.0300
 6131TIP3    H139884   0.014   6.717   2.727  0.9082 -2.3203  1.2982
 6131TIP3    H239885   0.075   6.602   2.650 -0.4305 -0.2679 -3.2098
 6132TIP3   OH239886   2.954   2.897  15.616  0.1346  0.5123  0.7462
 6132TIP3    H139887   2.927   2.807  15.634  2.4298 -0.5516 -0.6755
 6132TIP3    H239888   2.875   2.940  15.583 -0.1416 -2.2572 -2.8335
 6133TIP3   OH239889   6.378   1.330  16.733 -0.5181  0.0965  0.5286
 6133TIP3    H139890   6.393   1.397  16.799 -0.4550  0.4416  0.1643
 6133TIP3    H239891   6.292   1.294  16.755 -0.5518  0.2962  0.7239
 6134TIP3   OH239892   3.929   1.287  14.823 -0.3401  0.3907  0.2506
 6134TIP3    H139893   3.984   1.216  14.856 -0.4860 -0.3577 -1.0358
 6134TIP3    H239894   3.990   1.353  14.791 -0.1574 -0.4502 -1.1991
 6135TIP3   OH239895   6.734   0.207   4.585 -0.1227  0.0277 -0.0313
 6135TIP3    H139896   6.639   0.218   4.576 -0.4284 -1.7639  0.5443
 6135TIP3    H239897   6.767   0.211   4.495 -0.3203  3.3945 -0.0865
 6136TIP3   OH239898   6.617   2.167   0.173  0.0907  0.3104 -0.5464
 6136TIP3    H139899   6.668   2.233   0.221  2.6314 -0.4077 -2.0520
 6136TIP3    H239900   6.673   2.142   0.100 -1.7770 -1.8330 -1.3736
 6137TIP3   OH239901   4.643   4.204   4.478  0.1384  0.7578  0.1281
 6137TIP3    H139902   4.573   4.260   4.510 -0.7551  0.1172 -0.6558
 6137TIP3    H239903   4.681   4.252   4.404  0.3936  0.9969  0.4064
 6138TIP3   OH239904   2.358   4.356  11.607 -0.1525  0.5134 -0.4264
 6138TIP3    H139905   2.433   4.398  11.565 -0.3957  0.7938 -0.5853
 6138TIP3    H239906   2.332   4.415  11.677  1.4657 -0.8591  1.4535
 6139TIP3   OH239907   4.186   4.479   4.447 -0.2089  0.7005  0.0488
 6139TIP3    H139908   4.181   4.547   4.379  0.0578  0.9526  0.2805
 6139TIP3    H239909   4.144   4.403   4.408 -2.1825  1.5247  0.4085
 6140TIP3   OH239910   0.757   5.464  13.313 -0.0798  0.2634 -0.7267
 6140TIP3    H139911   0.802   5.437  13.393 -1.5517 -1.6470 -0.4765
 6140TIP3    H239912   0.791   5.406  13.245 -0.4739  0.3653 -1.0148
 6141TIP3   OH239913   3.519   2.818   5.076  0.3521  0.6767 -0.0034
 6141TIP3    H139914   3.517   2.866   5.159  2.8581  0.3322  0.3337
 6141TIP3    H239915   3.438   2.766   5.076  0.3678  0.5658  2.2978
 6142TIP3   OH239916   6.636   5.285  15.670 -0.4437 -0.4492  0.1717
 6142TIP3    H139917   6.706   5.221  15.666 -0.6957 -0.6887 -0.5419
 6142TIP3    H239918   6.562   5.239  15.708  0.0727  0.0862  1.8955
 6143TIP3   OH239919   5.303   5.706  14.498 -0.3285  0.3963 -0.4185
 6143TIP3    H139920   5.329   5.622  14.459  0.0669  0.5082 -0.3954
 6143TIP3    H239921   5.210   5.713  14.477 -0.1616  0.3781 -1.2081
 6144TIP3   OH239922   6.773   3.139   3.762  0.0091 -0.7968  0.3946
 6144TIP3    H139923   6.754   3.153   3.669 -0.0962 -0.2116  0.4996
 6144TIP3    H239924   6.866   3.116   3.764 -0.2869 -2.1578  0.0266
 6145TIP3   OH239925   4.270   0.845  16.961 -0.0788 -0.0347  0.2516
 6145TIP3    H139926   4.351   0.805  16.993  1.4354  2.8516  0.3743
 6145TIP3    H239927   4.201   0.808  17.017  1.3615 -1.3943  1.2011
 6146TIP3   OH239928   4.126   2.987   5.102 -0.2129  0.9970  0.1274
 6146TIP3    H139929   4.059   2.919   5.108  1.0297 -0.1790  1.3695
 6146TIP3    H239930   4.131   3.024   5.190  1.3202  0.4776  0.2929
 6147TIP3   OH239931   2.400   6.158   4.149  0.2399 -0.4414  0.7353
 6147TIP3    H139932   2.326   6.147   4.209  0.3762 -1.3136  0.7541
 6147TIP3    H239933   2.442   6.239   4.177 -1.4213  0.7635 -0.0506
 6148TIP3   OH239934   2.836   6.175  12.395 -0.1522 -0.0927 -0.5963
 6148TIP3    H139935   2.809   6.182  12.304  0.1027 -0.1300 -0.6768
 6148TIP3    H239936   2.891   6.097  12.398 -0.8377 -0.5829 -0.2419
 6149TIP3   OH239937   1.044   2.900  13.652 -0.6329  0.0444  0.2800
 6149TIP3    H139938   1.054   2.847  13.573 -0.9536 -0.6515  0.7032
 6149TIP3    H239939   1.075   2.844  13.723 -1.4492  0.2337  0.8009
 6150TIP3   OH239940   0.865   0.917  10.923  0.2630  0.6625 -0.4112
 6150TIP3    H139941   0.788   0.971  10.944  0.2442  0.7690 -0.7506
 6150TIP3    H239942   0.845   0.879  10.838 -0.7404 -1.7313  0.8057
 6151TIP3   OH239943   4.105   3.401  15.617  0.1158 -0.5367  0.7853
 6151TIP3    H139944   4.043   3.330  15.598 -0.2381 -0.2068  0.7056
 6151TIP3    H239945   4.069   3.445  15.694 -0.4380  0.4421 -0.0039
 6152TIP3   OH239946   3.717   6.076  14.835 -0.3861 -0.6794  0.1007
 6152TIP3    H139947   3.686   6.099  14.747  1.4847  0.2627 -0.3712
 6152TIP3    H239948   3.719   6.159  14.883  4.0090  0.0424 -0.8356
 6153TIP3   OH239949   1.085   6.552  15.907  0.0214  0.1902  0.5438
 6153TIP3    H139950   1.026   6.564  15.982 -1.8639 -1.1739 -0.6263
 6153TIP3    H239951   1.119   6.463  15.918  2.5434  1.1775  1.5667
 6154TIP3   OH239952   4.745   4.699  15.909  0.3040 -0.0260  0.1419
 6154TIP3    H139953   4.750   4.615  15.955 -0.1860  0.5907  1.3504
 6154TIP3    H239954   4.652   4.715  15.897  0.1813  1.6644  2.5113
 6155TIP3   OH239955   0.286   1.018   2.420  0.0355  0.2243  0.2583
 6155TIP3    H139956   0.343   1.089   2.449 -1.8088  3.0563 -2.3991
 6155TIP3    H239957   0.240   0.990   2.499  2.2101  0.5576  1.7366
 6156TIP3   OH239958   3.794   0.416   0.303 -0.0512  0.3767  0.3388
 6156TIP3    H139959   3.738   0.493   0.290  0.9815  1.0087 -0.5056
 6156TIP3    H239960   3.881   0.452   0.321 -0.1577 -0.5569  3.2780
 6157TIP3   OH239961   4.925   3.963  16.142 -0.0825 -0.6214  0.3481
 6157TIP3    H139962   5.016   3.962  16.112  0.8479  3.7203  2.1814
 6157TIP3    H239963   4.930   3.941  16.235 -1.2385 -2.1542  0.0867
 6158TIP3   OH239964   4.921   0.832  10.694  0.0013  0.4845 -0.3011
 6158TIP3    H139965   4.900   0.741  10.671  0.7934 -0.1170  1.2168
 6158TIP3    H239966   4.845   0.863  10.742  0.2731  0.1473  0.3661
 6159TIP3   OH239967   1.861   0.889  13.323  0.1932  0.3616  0.2082
 6159TIP3    H139968   1.885   0.796  13.326  1.0955  0.5820 -0.0959
 6159TIP3    H239969   1.941   0.935  13.299 -0.4849  1.1311 -0.7117
 6160TIP3   OH239970   5.812   1.316   5.687 -0.1316  0.0351 -0.1296
 6160TIP3    H139971   5.788   1.394   5.737  1.2599  1.4587 -1.5605
 6160TIP3    H239972   5.880   1.346   5.627  0.4710 -2.3068 -0.7220
 6161TIP3   OH239973   2.177   3.883   5.679 -0.2253  0.1093 -0.2633
 6161TIP3    H139974   2.162   3.911   5.769 -0.4024  0.0374 -0.2705
 6161TIP3    H239975   2.110   3.817   5.663  0.5166 -0.7149 -0.0701
 6162TIP3   OH239976   2.986   1.044   2.695 -0.0915 -0.2899  0.3038
 6162TIP3    H139977   2.892   1.024   2.702 -0.5262  0.8090 -1.6676
 6162TIP3    H239978   3.005   1.039   2.601  1.8310 -0.4306  0.6646
 6163TIP3   OH239979   6.070   3.522   0.140  0.7066  0.3960 -0.4296
 6163TIP3    H139980   6.060   3.449   0.080 -1.7304 -0.0223  0.3724
 6163TIP3    H239981   5.996   3.580   0.120 -0.1316  0.2867  2.0493
 6164TIP3   OH239982   5.968   2.955  14.547  0.1357  0.0853 -0.3217
 6164TIP3    H139983   5.879   2.930  14.571 -0.2157  1.7165  0.1908
 6164TIP3    H239984   5.967   3.051  14.545  2.4712  0.2802  2.1590
 6165TIP3   OH239985   1.798   2.135  14.147 -0.6227  0.7378 -0.4515
 6165TIP3    H139986   1.859   2.095  14.209  0.2820  0.6133 -1.3996
 6165TIP3    H239987   1.793   2.227  14.175  1.1470  1.1129 -1.1893
 6166TIP3   OH239988   0.890   3.842   0.426  0.0527  0.8176  0.5332
 6166TIP3    H139989   0.852   3.772   0.480 -0.5614  1.0653  0.4303
 6166TIP3    H239990   0.820   3.865   0.364  0.5091  1.0166  0.0891
 6167TIP3   OH239991   2.870   0.903  14.067 -0.2332 -0.7648  0.2983
 6167TIP3    H139992   2.902   0.966  14.132  0.6119 -0.1288 -0.7058
 6167TIP3    H239993   2.781   0.933  14.046  0.5424  0.7902 -0.9662
 6168TIP3   OH239994   2.668   2.785   0.775 -0.4061  0.5565 -0.2776
 6168TIP3    H139995   2.578   2.763   0.751 -0.1585 -1.7555  0.6511
 6168TIP3    H239996   2.659   2.851   0.844 -1.3909  0.3836 -0.2241
 6169TIP3   OH239997   6.583   6.676  14.821  0.1290  0.5566  0.6416
 6169TIP3    H139998   6.571   6.764  14.785  0.7901  0.0062 -1.0404
 6169TIP3    H239999   6.502   6.629  14.797  0.2373  0.4095  0.5594
 6170TIP3   OH240000   0.844   2.479   1.751  0.1194 -0.6900  0.1907
 6170TIP3    H140001   0.803   2.400   1.785 -0.7785 -0.5472 -0.5096
 6170TIP3    H240002   0.828   2.476   1.657 -0.0714  0.3923  0.1733
 6171TIP3   OH240003   4.117   6.552   3.762  0.3653  0.6565  1.0271
 6171TIP3    H140004   4.199   6.601   3.766  0.1176  1.1721  0.2197
 6171TIP3    H240005   4.142   6.467   3.726  0.0681  2.2312 -3.5625
 6172TIP3   OH240006   0.104   5.791   2.027 -0.3344  0.2080 -0.0010
 6172TIP3    H140007   0.112   5.818   2.119  1.4293  0.6559 -0.2399
 6172TIP3    H240008   0.144   5.704   2.024  0.4617  0.5797 -0.4876
 6173TIP3   OH240009   1.052   2.227   3.328 -0.0630  0.3197  0.0170
 6173TIP3    H140010   1.119   2.173   3.369 -1.0452 -0.4049  0.7040
 6173TIP3    H240011   0.983   2.234   3.394 -0.6849  1.0266 -0.6881
 6174TIP3   OH240012   1.010   1.077   4.946 -0.4715  0.4983  0.1689
 6174TIP3    H140013   0.971   1.059   5.032 -0.4759  0.0090  0.0656
 6174TIP3    H240014   0.934   1.082   4.887 -0.3284 -1.7916 -0.2779
 6175TIP3   OH240015   1.923   3.380   5.646  0.4170 -0.6097 -0.0135
 6175TIP3    H140016   1.888   3.292   5.663 -0.2178 -0.0889  1.5198
 6175TIP3    H240017   1.980   3.398   5.720  0.3594  0.3728 -0.1970
 6176TIP3   OH240018   4.849   5.714  11.696  0.1125 -0.1035  0.3741
 6176TIP3    H140019   4.796   5.669  11.762 -2.1304  0.3965 -0.9939
 6176TIP3    H240020   4.813   5.802  11.692  1.6826  0.5598  0.0193
 6177TIP3   OH240021   2.872   1.139  15.435 -0.1768 -0.2157  0.7643
 6177TIP3    H140022   2.901   1.051  15.455 -0.8466 -0.1750  1.9667
 6177TIP3    H240023   2.824   1.168  15.512 -0.3930  1.0211  0.2045
 6178TIP3   OH240024   1.135   2.687   4.154  0.3062 -0.3225 -0.0176
 6178TIP3    H140025   1.090   2.649   4.078  0.7817 -1.9231  0.4655
 6178TIP3    H240026   1.186   2.759   4.117  0.4135 -0.9773 -1.2156
 6179TIP3   OH240027   0.253   5.152   4.726  0.3901  0.5818  0.3178
 6179TIP3    H140028   0.275   5.138   4.634  1.0469  0.2032  0.5241
 6179TIP3    H240029   0.205   5.234   4.727  0.4487  0.6277 -0.3557
 6180TIP3   OH240030   4.743   2.925   0.102 -0.0694 -0.5949 -0.9505
 6180TIP3    H140031   4.829   2.885   0.116 -0.3563 -0.6908  0.6891
 6180TIP3    H240032   4.759   3.019   0.116 -0.4664 -0.7483  0.6309
 6181TIP3   OH240033   0.840   2.691   4.628 -0.0385 -1.0333 -0.0611
 6181TIP3    H140034   0.872   2.749   4.696 -2.0014  0.1342 -0.0544
 6181TIP3    H240035   0.919   2.661   4.582  1.1433  0.0171  1.2238
 6182TIP3   OH240036   2.870   3.790   5.719  0.0401 -0.4338  0.0065
 6182TIP3    H140037   2.919   3.745   5.650 -0.1962 -0.3688 -0.2066
 6182TIP3    H240038   2.934   3.849   5.759 -0.0380  0.1770 -0.7417
 6183TIP3   OH240039   3.315   5.435  12.771 -0.7068 -0.4096 -0.5246
 6183TIP3    H140040   3.225   5.431  12.804 -0.0344 -2.6245  1.2450
 6183TIP3    H240041   3.328   5.352  12.725  0.5404 -0.2607 -0.4773
 6184TIP3   OH240042   6.727   5.838  13.786  0.1828 -0.6509  0.1939
 6184TIP3    H140043   6.787   5.887  13.842  0.5943 -0.7191 -0.1746
 6184TIP3    H240044   6.785   5.785  13.730 -0.0504  1.2443 -2.0123
 6185TIP3   OH240045   0.977   1.230   1.831 -0.4553 -0.0051 -0.2894
 6185TIP3    H140046   0.990   1.181   1.750  3.1855  2.0170 -1.1616
 6185TIP3    H240047   0.959   1.320   1.801 -0.2748  0.5297  1.1385
 6186TIP3   OH240048   1.706   0.127  15.449  0.0880  0.0892  0.0983
 6186TIP3    H140049   1.711   0.132  15.545  0.5830  0.9913  0.0363
 6186TIP3    H240050   1.795   0.105  15.422  0.3623  1.5249 -0.2356
 6187TIP3   OH240051   0.856   5.978  14.765  0.7508 -0.1289 -0.0609
 6187TIP3    H140052   0.846   5.899  14.818  1.3136  2.0485  3.6863
 6187TIP3    H240053   0.946   6.006  14.781  0.6966  1.0810 -1.6364
 6188TIP3   OH240054   1.496   3.512   4.740  0.3317 -0.1877 -0.2689
 6188TIP3    H140055   1.460   3.559   4.815  1.7525  2.9940 -1.3876
 6188TIP3    H240056   1.455   3.555   4.664 -0.0539 -2.4079 -1.3869
 6189TIP3   OH240057   5.994   1.569  14.571  0.3575  0.1532  0.1241
 6189TIP3    H140058   5.978   1.663  14.576  0.1581  0.2216 -1.3717
 6189TIP3    H240059   6.054   1.559  14.498 -0.2194 -0.9523 -0.2194
 6190TIP3   OH240060   4.814   3.652  11.793  0.2492  0.2809 -0.4571
 6190TIP3    H140061   4.724   3.658  11.824 -0.5191  1.3945 -2.6749
 6190TIP3    H240062   4.841   3.562  11.814 -1.2712  0.0230  0.5055
 6191TIP3   OH240063   2.782   2.188  13.641  0.4774 -0.0405 -0.1865
 6191TIP3    H140064   2.739   2.146  13.566 -2.1978 -0.7665  1.6165
 6191TIP3    H240065   2.793   2.279  13.614 -0.9730 -0.1525 -1.2603
 6192TIP3   OH240066   2.194   3.863   3.141 -0.4192  0.1824 -0.5527
 6192TIP3    H140067   2.230   3.914   3.069 -0.1524  1.7578  0.6528
 6192TIP3    H240068   2.252   3.882   3.216  0.5481 -2.9797 -0.3397
 6193TIP3   OH240069   1.531   2.124  14.022 -0.1147  0.0423 -0.3885
 6193TIP3    H140070   1.595   2.143  13.953 -0.1737  1.8865 -0.0107
 6193TIP3    H240071   1.570   2.163  14.101 -0.6175 -0.9344  0.3603
 6194TIP3   OH240072   4.197   6.740   4.694 -0.0326  0.0811 -0.3886
 6194TIP3    H140073   4.132   6.670   4.690  0.2867 -0.3430  1.1137
 6194TIP3    H240074   4.160   6.803   4.756  1.4833 -0.7573  1.4620
 6195TIP3   OH240075   6.733   0.927   6.084  0.3353 -0.2413 -0.6221
 6195TIP3    H140076   6.670   0.973   6.140  1.5699 -0.3932  0.9515
 6195TIP3    H240077   6.694   0.840   6.071 -0.4209  0.1178 -0.8437
 6196TIP3   OH240078   2.257   2.264   4.715  0.5418  0.3336 -0.2501
 6196TIP3    H140079   2.341   2.230   4.686  1.2357  0.0958  1.8560
 6196TIP3    H240080   2.276   2.352   4.746  0.5339 -0.4641  2.2416
 6197TIP3   OH240081   1.762   5.550   5.736  0.1954  0.1954  0.5542
 6197TIP3    H140082   1.711   5.532   5.657 -0.4371  1.6520  0.6099
 6197TIP3    H240083   1.767   5.465   5.781 -2.2161 -0.0143  0.5528
 6198TIP3   OH240084   5.917   6.414   5.513  0.0962 -0.3517  0.4480
 6198TIP3    H140085   5.934   6.320   5.511  0.5111 -0.3601  2.6001
 6198TIP3    H240086   6.003   6.455   5.513  0.0798 -0.1405  3.2578
 6199TIP3   OH240087   6.314   0.993   6.389 -0.1405  0.0410  0.0810
 6199TIP3    H140088   6.232   1.041   6.402 -0.2063 -0.2055  0.6151
 6199TIP3    H240089   6.373   1.029   6.455  0.5743  1.0557 -1.0554
 6200TIP3   OH240090   1.170   4.810  16.297 -0.1601 -0.1911  0.3036
 6200TIP3    H140091   1.142   4.772  16.380  0.8494 -2.2699 -0.2362
 6200TIP3    H240092   1.172   4.736  16.236  2.1503  0.6411 -0.7611
 6201TIP3   OH240093   6.616   3.833   2.659 -0.1765  0.3985  0.2226
 6201TIP3    H140094   6.663   3.917   2.664  0.6664 -0.0665  0.3467
 6201TIP3    H240095   6.676   3.770   2.699  0.0127 -0.6013 -1.5514
 6202TIP3   OH240096   4.155   0.070   0.619 -0.2900  1.0859  0.1485
 6202TIP3    H140097   4.206   0.145   0.590 -0.5449  1.7984  1.5116
 6202TIP3    H240098   4.210   0.026   0.684  0.0831 -0.2424 -1.0007
 6203TIP3   OH240099   3.183   6.419   0.143  0.2778  0.4046  0.4552
 6203TIP3    H140100   3.138   6.415   0.059  0.2566 -0.4773  0.5033
 6203TIP3    H240101   3.112   6.420   0.208  0.3015 -1.1172  0.5351
 6204TIP3   OH240102   2.374   1.459  10.947 -0.1818 -0.1108 -0.2696
 6204TIP3    H140103   2.400   1.369  10.929 -0.9482 -0.2037 -0.9895
 6204TIP3    H240104   2.454   1.510  10.936  0.1766 -0.6567 -0.2247
 6205TIP3   OH240105   2.199   5.284  10.223  0.0229  0.4555  0.1524
 6205TIP3    H140106   2.288   5.316  10.208  0.5469 -0.5589  0.9898
 6205TIP3    H240107   2.165   5.339  10.294  0.7213 -0.4407  1.2062
 6206TIP3   OH240108   2.516   1.271  12.488 -0.3268 -0.0690  0.0734
 6206TIP3    H140109   2.553   1.224  12.563 -1.1361  1.5559  1.5574
 6206TIP3    H240110   2.580   1.339  12.468 -0.2993 -0.2510 -0.5047
 6207TIP3   OH240111   5.990   5.787   0.412  0.2923  0.3389  0.3615
 6207TIP3    H140112   6.076   5.782   0.371  0.6494  1.3951  0.9248
 6207TIP3    H240113   5.938   5.841   0.353 -0.6136 -1.8825 -0.9583
 6208TIP3   OH240114   5.462   1.158   5.342  0.1157 -0.1027  0.0084
 6208TIP3    H140115   5.540   1.107   5.321  0.0761 -0.8572  1.5765
 6208TIP3    H240116   5.485   1.207   5.421 -0.1380  1.7243 -0.9825
 6209TIP3   OH240117   5.631   6.466  12.843 -0.2177 -0.5839 -0.2264
 6209TIP3    H140118   5.695   6.428  12.903  0.8469  0.3972 -0.6779
 6209TIP3    H240119   5.680   6.476  12.760 -1.1795 -0.4945 -0.7960
 6210TIP3   OH240120   1.879   1.885   2.512 -0.8336  0.0110 -0.2426
 6210TIP3    H140121   1.856   1.903   2.603  0.1853  1.3679 -0.2235
 6210TIP3    H240122   1.951   1.822   2.518 -1.6330 -0.9046 -0.1622
 6211TIP3   OH240123   0.535   2.431  11.206  0.0845  0.1982  0.1048
 6211TIP3    H140124   0.537   2.345  11.247  1.3181  0.0983 -0.1427
 6211TIP3    H240125   0.479   2.419  11.129  1.3307 -0.7642 -0.6990
 6212TIP3   OH240126   4.963   6.115  16.127 -0.0646  0.4844  0.2122
 6212TIP3    H140127   5.000   6.027  16.126  0.1899  0.5740 -1.7182
 6212TIP3    H240128   5.033   6.170  16.161  0.2376  0.1277  0.1729
 6213TIP3   OH240129   3.131   1.561   5.191 -0.0924  0.3313 -0.0349
 6213TIP3    H140130   3.044   1.567   5.230  0.8518  2.7124  1.9717
 6213TIP3    H240131   3.170   1.483   5.231 -0.9259 -0.1486 -0.1414
 6214TIP3   OH240132   3.484   0.311   0.809  0.0596  0.3517 -0.1998
 6214TIP3    H140133   3.501   0.305   0.715  1.1523 -2.0211  0.0962
 6214TIP3    H240134   3.532   0.390   0.836 -1.3228  1.8204 -1.7870
 6215TIP3   OH240135   1.232   5.326   0.847  0.6368 -0.2415  0.5426
 6215TIP3    H140136   1.251   5.308   0.755  0.5258 -2.0505  0.8374
 6215TIP3    H240137   1.318   5.326   0.889  0.5124 -2.5738  0.9155
 6216TIP3   OH240138   0.490   6.176  14.885 -0.5790  0.3046  0.0516
 6216TIP3    H140139   0.555   6.197  14.952  0.2180 -0.5216 -0.4400
 6216TIP3    H240140   0.410   6.158  14.935 -0.0774 -0.0241  0.7684
 6217TIP3   OH240141   4.946   0.371   2.216  1.0396  0.4367  0.2146
 6217TIP3    H140142   4.926   0.396   2.307 -0.6095  1.1632 -0.3226
 6217TIP3    H240143   4.883   0.419   2.163 -0.2862 -2.5213 -1.1167
 6218TIP3   OH240144   3.394   6.586   4.184 -0.8656 -0.0726  1.0675
 6218TIP3    H140145   3.412   6.664   4.236  0.7100 -0.7544  1.6110
 6218TIP3    H240146   3.460   6.523   4.213  1.1303 -0.0218 -2.8163
 6219TIP3   OH240147   2.322   4.254  15.082 -0.2506 -0.2891 -0.2418
 6219TIP3    H140148   2.326   4.159  15.088 -0.6512 -0.3882 -1.2416
 6219TIP3    H240149   2.229   4.275  15.087 -0.0489  0.3910  3.6745
 6220TIP3   OH240150   0.533   6.265   6.214  0.5602 -0.0709  0.1290
 6220TIP3    H140151   0.470   6.201   6.181  0.6468  0.5417 -1.3066
 6220TIP3    H240152   0.482   6.344   6.229  0.6431 -0.1520  0.8917
 6221TIP3   OH240153   0.098   2.879   1.137 -0.2240  0.4916 -0.2270
 6221TIP3    H140154   0.062   2.857   1.223 -1.9101  3.5995  0.0213
 6221TIP3    H240155   0.182   2.920   1.157  0.3898 -0.7281 -0.2615
 6222TIP3   OH240156   3.131   5.102  12.343 -0.2191 -0.3036 -0.2437
 6222TIP3    H140157   3.141   5.193  12.316 -1.4400 -0.2734 -0.6606
 6222TIP3    H240158   3.148   5.103  12.437  0.8500  0.1613 -0.4322
 6223TIP3   OH240159   5.089   6.173   0.835 -0.1513 -0.3998 -0.5981
 6223TIP3    H140160   5.153   6.235   0.802  1.4329 -0.9001  1.3450
 6223TIP3    H240161   5.036   6.224   0.897  1.6993 -1.0834  1.6497
 6224TIP3   OH240162   3.148   5.279   4.481  0.1434  0.0228  0.3737
 6224TIP3    H140163   3.137   5.233   4.398 -0.9194  0.6414  0.1550
 6224TIP3    H240164   3.098   5.360   4.470  0.4969  0.3907  1.3996
 6225TIP3   OH240165   0.528   1.487  12.344  0.1334 -0.0867  0.5896
 6225TIP3    H140166   0.433   1.482  12.334  0.2660  1.5174 -2.4492
 6225TIP3    H240167   0.542   1.563  12.401 -0.3789  0.4032  0.0694
 6226TIP3   OH240168   5.856   0.346  15.280  0.5932 -0.2192  0.7119
 6226TIP3    H140169   5.944   0.350  15.242  0.3665  0.5871  0.2256
 6226TIP3    H240170   5.867   0.371  15.371  0.9676 -0.8160  0.8257
 6227TIP3   OH240171   2.524   2.582   2.285  0.8136  0.1647  0.2684
 6227TIP3    H140172   2.586   2.636   2.334  0.9849  0.4710 -0.2700
 6227TIP3    H240173   2.513   2.504   2.338  0.7140  0.6446  0.9672
 6228TIP3   OH240174   1.334   5.473  13.500 -0.0670 -0.0024  0.2226
 6228TIP3    H140175   1.377   5.521  13.570 -0.1471 -1.3860  1.2609
 6228TIP3    H240176   1.249   5.447  13.536 -0.8957  0.8195 -1.0373
 6229TIP3   OH240177   6.185   2.565   5.853  0.4618  0.0862  0.6187
 6229TIP3    H140178   6.178   2.470   5.841 -0.9863  0.1908  0.4624
 6229TIP3    H240179   6.183   2.600   5.764  1.6321  0.2469  0.6432
 6230TIP3   OH240180   3.519   1.073   0.075  0.5307  0.1524  0.0786
 6230TIP3    H140181   3.437   1.100   0.118  0.5244 -0.3137  0.3669
 6230TIP3    H240182   3.555   1.154   0.040  1.5124  0.9004  2.6010
 6231TIP3   OH240183   4.088   1.602  12.502 -0.6049  0.6677 -0.1598
 6231TIP3    H140184   4.044   1.596  12.587 -0.6364 -2.3290 -0.2706
 6231TIP3    H240185   4.021   1.575  12.438 -0.2984  1.9190 -1.0459
 6232TIP3   OH240186   5.611   0.667   5.381  0.0833 -0.0583 -0.1129
 6232TIP3    H140187   5.620   0.578   5.416  1.9595  0.7518  1.7014
 6232TIP3    H240188   5.694   0.684   5.336 -0.4130  0.6555 -0.7916
 6233TIP3   OH240189   3.975   3.645  16.375 -0.0386 -0.2878 -0.3936
 6233TIP3    H140190   4.032   3.683  16.308  1.1373 -0.6438  0.3678
 6233TIP3    H240191   4.010   3.557  16.388  0.9986  0.3898  2.0086
 6234TIP3   OH240192   2.855   5.505   5.394  0.4117  0.1760  0.1408
 6234TIP3    H140193   2.893   5.531   5.310  1.8168  2.1113  1.3001
 6234TIP3    H240194   2.923   5.451   5.435 -0.9207 -2.1712 -0.5832
 6235TIP3   OH240195   6.441   5.448   4.248 -0.1886  0.0723 -0.2984
 6235TIP3    H140196   6.494   5.369   4.249 -1.5499 -0.8850 -0.0548
 6235TIP3    H240197   6.478   5.502   4.179  0.7242 -0.8102 -0.5162
 6236TIP3   OH240198   3.472   3.998  13.936 -0.3020 -0.6056  0.4632
 6236TIP3    H140199   3.442   3.934  13.871  0.3707  0.4921 -0.9918
 6236TIP3    H240200   3.396   4.010  13.994 -0.6408 -2.2306  0.4257
 6237TIP3   OH240201   4.257   6.238   5.571  0.0081 -0.1543  0.4467
 6237TIP3    H140202   4.230   6.194   5.490 -1.2269  0.5181  0.4746
 6237TIP3    H240203   4.318   6.177   5.612  2.1902  0.2795 -1.8905
 6238TIP3   OH240204   1.698   4.893  11.282  0.2089 -0.3001  0.3113
 6238TIP3    H140205   1.651   4.878  11.200  0.7649 -1.4680  0.1944
 6238TIP3    H240206   1.774   4.835  11.277  2.2236  2.1619  0.0680
 6239TIP3   OH240207   2.172   6.358   5.200 -0.2103  0.0649  0.0426
 6239TIP3    H140208   2.158   6.310   5.281 -1.7103  0.0853 -0.1723
 6239TIP3    H240209   2.208   6.294   5.139 -1.6972 -0.6981 -0.0843
 6240TIP3   OH240210   0.586   0.687  16.091 -0.0880 -0.0452 -0.1369
 6240TIP3    H140211   0.574   0.757  16.027 -2.0668 -0.0581  0.1742
 6240TIP3    H240212   0.576   0.606  16.041  1.5911 -0.1465 -0.3776
 6241TIP3   OH240213   3.068   3.662   6.378  0.3074 -0.4123 -0.2561
 6241TIP3    H140214   3.149   3.709   6.398 -1.6804  3.2530 -0.0505
 6241TIP3    H240215   3.051   3.611   6.457  2.2722 -1.1500 -0.2510
 6242TIP3   OH240216   1.255   4.172   1.450 -0.2588  0.7995 -0.0672
 6242TIP3    H140217   1.222   4.170   1.539 -1.9215  0.6997 -0.6572
 6242TIP3    H240218   1.181   4.145   1.396  1.2290 -1.0570 -1.3354
 6243TIP3   OH240219   4.421   1.686   4.356  0.5968  0.3865 -0.1707
 6243TIP3    H140220   4.386   1.597   4.364  3.9137 -1.1276 -0.6252
 6243TIP3    H240221   4.415   1.723   4.444 -0.0083 -0.6508  0.2375
 6244TIP3   OH240222   2.415   2.859   5.422  0.3959 -0.4427  0.3450
 6244TIP3    H140223   2.361   2.920   5.371  1.7274  0.3541 -0.1557
 6244TIP3    H240224   2.374   2.858   5.509  1.4039  2.6880  0.9759
 6245TIP3   OH240225   0.049   1.130   5.062  0.8013  1.3014 -0.1233
 6245TIP3    H140226  -0.017   1.197   5.050  0.9543  1.7122  1.2190
 6245TIP3    H240227   0.133   1.176   5.054  0.9953  0.7163 -2.2474
 6246TIP3   OH240228   6.609   5.550   5.028  0.3061  0.1702 -0.2951
 6246TIP3    H140229   6.631   5.471   4.979  1.7087  1.0622 -1.1653
 6246TIP3    H240230   6.655   5.539   5.111  1.3080  0.4836 -0.7897
 6247TIP3   OH240231   2.352   4.762  12.295  0.5122  0.4162  0.2518
 6247TIP3    H140232   2.257   4.764  12.304  0.3251 -0.7271 -1.0813
 6247TIP3    H240233   2.381   4.695  12.357  0.3521  0.1912  0.0871
 6248TIP3   OH240234   1.034   0.270   1.235  0.5035  1.1482 -0.0699
 6248TIP3    H140235   0.984   0.267   1.153  0.7808  1.3400 -0.2485
 6248TIP3    H240236   1.059   0.179   1.250  0.9035  1.1825 -0.4869
 6249TIP3   OH240237   6.389   1.903  17.136 -0.8011 -0.0259  0.2531
 6249TIP3    H140238   6.445   1.840  17.182 -1.1610 -1.1543 -0.7984
 6249TIP3    H240239   6.393   1.982  17.190  2.8972  0.4614 -0.4488
 6250TIP3   OH240240   6.385   6.738  16.512  0.2758  0.3049 -0.1710
 6250TIP3    H140241   6.441   6.813  16.489  1.5004 -0.4388  0.3069
 6250TIP3    H240242   6.423   6.665  16.464 -1.1887  0.0306 -1.0050
 6251TIP3   OH240243   3.369   6.040  13.638 -0.2158  0.3131  0.2392
 6251TIP3    H140244   3.412   5.962  13.602 -0.9615 -0.3240  0.6819
 6251TIP3    H240245   3.340   6.013  13.726  0.2134  1.3497  0.7087
 6252TIP3   OH240246   6.795   1.896  15.983 -0.0223  0.2023  0.2637
 6252TIP3    H140247   6.751   1.832  15.928 -0.9741  0.3180  0.8607
 6252TIP3    H240248   6.754   1.886  16.069  2.9086 -1.5241  1.6177
 6253TIP3   OH240249   5.622   4.843   4.414  0.3586 -0.5119  0.1594
 6253TIP3    H140250   5.585   4.804   4.335  0.9772  0.2501 -0.5186
 6253TIP3    H240251   5.568   4.920   4.430  0.5700 -0.3703  0.1842
 6254TIP3   OH240252   6.754   1.463  13.540  0.7454 -0.0023 -0.3517
 6254TIP3    H140253   6.817   1.398  13.509  0.8972  0.5776 -1.3144
 6254TIP3    H240254   6.743   1.443  13.633  2.1225 -0.3019 -0.2211
 6255TIP3   OH240255   5.162   2.041   0.010  0.4110 -0.2729  0.1202
 6255TIP3    H140256   5.109   2.039  -0.069  0.8762  0.4506 -0.2255
 6255TIP3    H240257   5.234   2.101  -0.011  1.2560 -1.0802  0.6393
 6256TIP3   OH240258   3.930   4.125  11.996 -0.0057  0.2383  0.3284
 6256TIP3    H140259   3.967   4.104  11.910 -0.1541 -0.3990  0.4104
 6256TIP3    H240260   3.981   4.072  12.057  0.8375  1.5141  0.7713
 6257TIP3   OH240261   3.810   1.459   3.868  0.6296  0.2176 -0.2037
 6257TIP3    H140262   3.716   1.442   3.871  0.5405  0.8908  1.6450
 6257TIP3    H240263   3.851   1.379   3.900  0.5683  0.6588  1.0179
 6258TIP3   OH240264   5.138   1.586   4.143 -0.2438 -0.3119 -0.7464
 6258TIP3    H140265   5.210   1.578   4.080 -1.5243  1.5803 -2.5899
 6258TIP3    H240266   5.062   1.607   4.089 -1.6441  0.3158  1.3603
 6259TIP3   OH240267   1.648   6.800   1.876  0.1450 -0.0015 -0.1857
 6259TIP3    H140268   1.577   6.832   1.820 -0.3690 -0.5294  0.1463
 6259TIP3    H240269   1.605   6.778   1.958  0.7407 -0.0961  0.1047
 6260TIP3   OH240270   4.807   5.257   0.160  0.6385  0.5236 -0.2301
 6260TIP3    H140271   4.865   5.273   0.086 -0.1783 -0.1940 -1.0403
 6260TIP3    H240272   4.840   5.315   0.229  2.9148 -0.5464 -0.3432
 6261TIP3   OH240273   1.427   5.310  12.289 -0.1111 -0.6429  0.0076
 6261TIP3    H140274   1.484   5.262  12.228 -0.1258 -0.7109  0.0468
 6261TIP3    H240275   1.432   5.401  12.260  0.4556 -0.5645  0.3473
 6262TIP3   OH240276   4.680   0.304  13.129  0.0062 -0.1608  0.3244
 6262TIP3    H140277   4.689   0.251  13.050 -0.5747 -0.3165  0.3536
 6262TIP3    H240278   4.603   0.359  13.113 -0.3227 -0.4355  0.9170
 6263TIP3   OH240279   0.974   1.131   1.568 -0.1464  0.0468  0.3533
 6263TIP3    H140280   1.019   1.047   1.573 -0.9980 -0.3815  1.1961
 6263TIP3    H240281   0.924   1.127   1.487  1.4360  0.5960 -0.6781
 6264TIP3   OH240282   3.007   2.809   5.075 -0.0944  0.3164  0.0572
 6264TIP3    H140283   2.927   2.855   5.101  0.7285  1.0274  1.4449
 6264TIP3    H240284   3.049   2.786   5.158 -0.1988 -2.5345 -0.5778
 6265TIP3   OH240285   0.268   1.437   1.209 -0.4177 -0.4539 -0.3396
 6265TIP3    H140286   0.201   1.505   1.211  0.3611  0.3630 -0.8667
 6265TIP3    H240287   0.227   1.363   1.167 -0.9383  0.0896 -0.8027
 6266TIP3   OH240288   5.318   0.363  16.703  0.0588  0.4580  0.0956
 6266TIP3    H140289   5.377   0.431  16.737  0.3012 -0.1950  1.0449
 6266TIP3    H240290   5.315   0.298  16.773 -0.8131 -0.1207 -0.4633
 6267TIP3   OH240291   5.111   3.810   6.241  0.0403 -0.1751  1.1239
 6267TIP3    H140292   5.016   3.811   6.247 -0.0144 -2.2730  1.3513
 6267TIP3    H240293   5.130   3.771   6.156  0.7228  1.0867  0.6704
 6268TIP3   OH240294   2.357   3.096  11.222  0.1633 -0.6632  0.3561
 6268TIP3    H140295   2.451   3.098  11.240  0.1997 -0.0296  0.1549
 6268TIP3    H240296   2.351   3.100  11.126 -0.0666  1.7724  0.3977
 6269TIP3   OH240297   2.852   0.924  14.447 -0.3708 -0.5509 -0.0541
 6269TIP3    H140298   2.928   0.881  14.487 -0.0959 -0.2157 -0.2164
 6269TIP3    H240299   2.777   0.882  14.490 -0.0754  0.4885  1.5685
 6270TIP3   OH240300   1.823   4.655  15.162 -0.2423 -0.5421 -0.3563
 6270TIP3    H140301   1.894   4.599  15.130  0.1802  0.3580 -1.0199
 6270TIP3    H240302   1.859   4.743  15.160 -0.9477 -0.2155  0.5631
 6271TIP3   OH240303   2.375   1.385   5.120  0.0033 -0.6627  0.1935
 6271TIP3    H140304   2.367   1.365   5.027 -1.9563  1.9911 -0.3243
 6271TIP3    H240305   2.299   1.343   5.160 -1.0787  0.9863 -0.0304
 6272TIP3   OH240306   4.710   4.913  11.534  0.0127 -0.3582 -0.2539
 6272TIP3    H140307   4.701   4.818  11.540  0.5576 -0.3814  0.3178
 6272TIP3    H240308   4.791   4.933  11.581 -0.6412  0.5009  0.5408
 6273TIP3   OH240309   4.676   3.733   0.838 -0.6598 -0.1196  0.0926
 6273TIP3    H140310   4.699   3.655   0.890 -0.9475 -0.3840 -0.1739
 6273TIP3    H240311   4.752   3.790   0.846 -1.0088  0.1816  1.4530
 6274TIP3   OH240312   1.557   1.382   0.080 -0.1802 -0.6010 -0.1556
 6274TIP3    H140313   1.506   1.409   0.004 -0.5063  1.3114  0.6841
 6274TIP3    H240314   1.583   1.464   0.122  0.8596 -1.5857  1.2323
 6275TIP3   OH240315   5.691   4.257  11.992  0.4314 -0.2207 -0.1009
 6275TIP3    H140316   5.626   4.324  11.971  0.2083 -0.3198  0.2729
 6275TIP3    H240317   5.659   4.178  11.948 -0.0383 -0.4289  0.6113
 6276TIP3   OH240318   5.731   5.142  15.729 -0.1821  0.8465 -0.4575
 6276TIP3    H140319   5.812   5.191  15.718  0.5481 -0.0811  0.5949
 6276TIP3    H240320   5.671   5.181  15.666  1.1532  1.3906 -1.4441
 6277TIP3   OH240321   5.839   5.248   5.663  0.0503  0.0663  0.2395
 6277TIP3    H140322   5.805   5.284   5.581  1.1309 -0.9457 -0.6943
 6277TIP3    H240323   5.892   5.173   5.636 -0.5543 -1.0393  1.9651
 6278TIP3   OH240324   3.214   4.241  11.365  0.2470  0.9257  0.0100
 6278TIP3    H140325   3.121   4.264  11.361 -0.4656 -1.4155  1.2419
 6278TIP3    H240326   3.218   4.151  11.332  2.1064  1.0392 -0.1558
 6279TIP3   OH240327   4.520   2.704  12.577 -0.0218 -0.3161  0.3282
 6279TIP3    H140328   4.532   2.734  12.667 -0.4016 -1.2181  0.6964
 6279TIP3    H240329   4.553   2.776  12.523  1.6118 -0.3427  1.2029
 6280TIP3   OH240330   3.092   2.236  11.624  0.3469 -0.2556 -0.4066
 6280TIP3    H140331   3.088   2.331  11.638  1.8197  0.1915 -2.5234
 6280TIP3    H240332   3.016   2.218  11.568 -0.7940 -0.6146  1.2167
 6281TIP3   OH240333   2.376   3.614  15.351 -0.0274 -0.1170 -0.4323
 6281TIP3    H140334   2.436   3.632  15.424  0.1988 -2.6132  0.0996
 6281TIP3    H240335   2.302   3.569  15.392  0.9803 -3.3458 -1.8890
 6282TIP3   OH240336   3.052   4.686  11.596  0.2493 -0.3856 -1.2604
 6282TIP3    H140337   2.971   4.735  11.581  0.8887  0.5364 -1.8585
 6282TIP3    H240338   3.029   4.618  11.659 -0.6981  0.6300 -0.4930
 6283TIP3   OH240339   4.130   2.822  16.726 -0.0029  0.0190 -0.4713
 6283TIP3    H140340   4.093   2.763  16.660 -1.4881  0.3238  0.0684
 6283TIP3    H240341   4.078   2.807  16.804  0.2274  1.3543 -0.0375
 6284TIP3   OH240342   4.832   3.614  13.013 -0.1542 -0.1568 -0.0885
 6284TIP3    H140343   4.861   3.643  12.927 -0.3393 -0.8063 -0.3741
 6284TIP3    H240344   4.900   3.644  13.073 -0.1749  0.5684 -0.4168
 6285TIP3   OH240345   5.336   6.794   3.143  0.6844 -0.2915  0.7104
 6285TIP3    H140346   5.300   6.742   3.215  1.7872 -0.1971  1.3542
 6285TIP3    H240347   5.408   6.843   3.182  0.6717  0.5301 -0.2432
 6286TIP3   OH240348   4.546   5.256  14.712 -0.2470 -0.1162  0.7261
 6286TIP3    H140349   4.581   5.177  14.671 -1.4375  0.1221 -0.8808
 6286TIP3    H240350   4.612   5.323  14.696  0.3024 -0.5409  1.1832
 6287TIP3   OH240351   3.679   3.113   5.512  0.5789 -0.0190  0.4561
 6287TIP3    H140352   3.692   3.185   5.450 -1.1058 -0.7111 -0.7837
 6287TIP3    H240353   3.587   3.122   5.539  0.7398 -0.9094  1.3115
 6288TIP3   OH240354   1.894   6.452  12.287 -0.4510  0.0705 -0.1062
 6288TIP3    H140355   1.957   6.484  12.222  0.6238 -1.5817  0.0882
 6288TIP3    H240356   1.874   6.362  12.260 -0.2262 -0.5475  1.6689
 6289TIP3   OH240357   3.752   1.081   1.265 -0.0943 -0.0416 -0.5600
 6289TIP3    H140358   3.725   1.047   1.350 -1.4307 -1.3507 -1.4648
 6289TIP3    H240359   3.737   1.176   1.271  0.7410  0.0376  0.9482
 6290TIP3   OH240360   3.200   2.679  16.136 -0.3615  0.1803 -0.0980
 6290TIP3    H140361   3.184   2.760  16.183 -1.4747  0.3304 -0.6995
 6290TIP3    H240362   3.227   2.706  16.049 -0.6891 -0.0984 -0.2882
 6291TIP3   OH240363   2.296   5.400  12.356 -0.1790 -0.0400 -0.1410
 6291TIP3    H140364   2.358   5.327  12.353 -0.6870 -0.5746  1.5072
 6291TIP3    H240365   2.261   5.398  12.445 -0.9133  1.6367 -0.3636
 6292TIP3   OH240366   0.044   1.573   1.298  0.2758  0.1104 -0.4960
 6292TIP3    H140367   0.026   1.667   1.294  0.0556  0.0747 -0.3844
 6292TIP3    H240368  -0.043   1.532   1.292  0.5481 -0.2078 -3.7186
 6293TIP3   OH240369   2.627   5.734  14.756  0.0319 -0.0837  0.1218
 6293TIP3    H140370   2.535   5.751  14.733  0.2955 -1.7282 -2.5566
 6293TIP3    H240371   2.622   5.692  14.842 -1.4763  2.0508  1.1589
 6294TIP3   OH240372   4.731   3.777   1.251  0.4972  0.4726 -0.1950
 6294TIP3    H140373   4.730   3.850   1.313 -0.4230  0.5973 -0.3453
 6294TIP3    H240374   4.736   3.818   1.165 -1.1132  0.4213 -0.3390
 6295TIP3   OH240375   6.327   6.462  13.388 -0.4019  0.1490 -0.3413
 6295TIP3    H140376   6.327   6.511  13.470 -1.0277 -1.3871  0.6000
 6295TIP3    H240377   6.370   6.379  13.409  0.5338  0.2037 -1.8809
 6296TIP3   OH240378   5.179   1.345   0.453  0.1025 -0.1601  0.3383
 6296TIP3    H140379   5.233   1.291   0.395 -0.9363  0.1432 -0.9504
 6296TIP3    H240380   5.194   1.435   0.423  0.3557  0.1177  1.2441
 6297TIP3   OH240381   4.612   4.245  12.238 -0.1244 -0.0955 -0.7899
 6297TIP3    H140382   4.564   4.293  12.171 -1.2228  0.6304  0.4578
 6297TIP3    H240383   4.668   4.311  12.279  1.1226 -0.6973 -1.4722
 6298TIP3   OH240384   4.675   3.277   4.218  0.2650  0.5916 -0.4562
 6298TIP3    H140385   4.661   3.228   4.299 -2.7091  3.5456  1.0134
 6298TIP3    H240386   4.699   3.365   4.247  0.8877  1.2944 -2.8775
 6299TIP3   OH240387   4.273   0.768  16.680 -0.0697 -1.1176 -0.0171
 6299TIP3    H140388   4.255   0.782  16.773  1.3423 -1.2173  0.2907
 6299TIP3    H240389   4.290   0.675  16.673  0.9403 -0.9349 -0.1547
 6300TIP3   OH240390   5.236   0.730  15.917  0.0011  0.6116 -0.3518
 6300TIP3    H140391   5.158   0.741  15.863 -0.4940 -0.5638  0.0778
 6300TIP3    H240392   5.215   0.776  15.998 -0.2797  0.2691 -0.2235
 6301TIP3   OH240393   5.580   6.616   6.187 -0.0341  0.6598 -0.3078
 6301TIP3    H140394   5.530   6.627   6.268  1.0673  1.5090  0.2883
 6301TIP3    H240395   5.669   6.644   6.210  0.8687 -1.3106 -1.1741
 6302TIP3   OH240396   5.276   0.126  10.369  0.6691  0.1571  0.3875
 6302TIP3    H140397   5.327   0.202  10.398  0.5837  0.5220 -0.4071
 6302TIP3    H240398   5.191   0.161  10.344  0.9386 -0.0472 -0.8786
 6303TIP3   OH240399   4.075   1.169   1.497  0.3004  0.6983 -0.4065
 6303TIP3    H140400   4.166   1.150   1.519  0.6132  1.8520 -0.6134
 6303TIP3    H240401   4.067   1.264   1.507 -1.0654  0.5435  0.2626
 6304TIP3   OH240402   4.593   4.198  13.307 -0.0633  0.0759  0.1267
 6304TIP3    H140403   4.587   4.105  13.327 -0.3906 -0.3358 -1.6723
 6304TIP3    H240404   4.583   4.203  13.211  2.3261  1.7387 -0.1216
 6305TIP3   OH240405   3.717   2.091  14.015 -0.3503 -0.0345  0.4009
 6305TIP3    H140406   3.670   2.137  14.084  0.8169  2.7780 -0.5513
 6305TIP3    H240407   3.669   2.111  13.935 -0.1797 -1.0584  0.0209
 6306TIP3   OH240408   6.524   2.826   4.715  0.0079 -0.6094  0.2530
 6306TIP3    H140409   6.512   2.803   4.808  0.5762 -1.0657  0.2190
 6306TIP3    H240410   6.441   2.804   4.674 -0.2013 -0.5372  0.6315
 6307TIP3   OH240411   3.196   5.455   1.433  0.2996 -0.2069  0.2630
 6307TIP3    H140412   3.217   5.362   1.440  2.8855  0.3452  1.0248
 6307TIP3    H240413   3.223   5.479   1.344  2.0616  0.2899  0.8940
 6308TIP3   OH240414   2.933   5.201  10.780 -0.1690  0.0552 -0.7766
 6308TIP3    H140415   3.004   5.255  10.816  2.1978 -2.3741 -1.5166
 6308TIP3    H240416   2.911   5.243  10.697  1.1014  0.3199 -0.9992
 6309TIP3   OH240417   2.933   4.315  12.953  0.1654 -0.2349 -0.3344
 6309TIP3    H140418   2.855   4.324  12.898  0.8594  2.1236 -1.0412
 6309TIP3    H240419   2.989   4.388  12.928  0.3213  1.3923  3.8696
 6310TIP3   OH240420   5.320   2.721  14.442  0.0962  0.0651  0.8849
 6310TIP3    H140421   5.271   2.801  14.421  0.5421 -0.2524 -1.5832
 6310TIP3    H240422   5.329   2.724  14.537 -0.3332  2.6876  0.9258
 6311TIP3   OH240423   3.588   5.951   6.133  0.8164 -0.1482  0.6724
 6311TIP3    H140424   3.508   5.909   6.165 -0.6476  1.7955 -0.2238
 6311TIP3    H240425   3.563   6.042   6.118  3.4950  0.7967  1.3166
 6312TIP3   OH240426   4.698   2.379   2.634 -0.6102  0.4193 -0.1175
 6312TIP3    H140427   4.675   2.290   2.662  0.9173  0.7359  2.4776
 6312TIP3    H240428   4.784   2.370   2.594 -0.1135  0.7835  0.8296
 6313TIP3   OH240429   3.927   5.481  16.903 -0.0672  0.0209  0.1791
 6313TIP3    H140430   3.846   5.434  16.919 -0.2911  0.2372 -0.2747
 6313TIP3    H240431   3.995   5.413  16.900 -0.0267 -0.0353  1.8349
 6314TIP3   OH240432   2.512   3.051  13.294 -0.4506  0.5977 -0.1278
 6314TIP3    H140433   2.541   3.129  13.341 -0.3613  1.2120 -1.1572
 6314TIP3    H240434   2.425   3.073  13.262 -1.3511 -0.5658  1.4116
 6315TIP3   OH240435   1.915   4.410  14.038 -0.4201  0.3573 -0.4529
 6315TIP3    H140436   1.967   4.330  14.033  0.2930  0.7868 -0.1209
 6315TIP3    H240437   1.826   4.382  14.018 -0.3440 -0.6860  0.5126
 6316TIP3   OH240438   4.657   4.591  12.770  0.7781  0.0198  0.4322
 6316TIP3    H140439   4.675   4.685  12.764 -1.2927  0.4468  0.0580
 6316TIP3    H240440   4.687   4.566  12.857  0.2009  1.3310  1.0298
 6317TIP3   OH240441   2.982   4.961  10.921 -0.5232 -0.4819  0.1895
 6317TIP3    H140442   2.950   5.038  10.874 -1.8961 -0.6421  0.8323
 6317TIP3    H240443   3.075   4.957  10.899 -0.8502  0.2100 -1.4383
 6318TIP3   OH240444   6.003   6.386   2.580  0.6155  0.0816  0.3530
 6318TIP3    H140445   5.919   6.429   2.567  0.8735  0.4581 -0.1161
 6318TIP3    H240446   6.001   6.356   2.671  0.3246  0.8576  0.6128
 6319TIP3   OH240447   5.235   4.896   5.771 -0.4168  0.1959  0.0668
 6319TIP3    H140448   5.258   4.809   5.804  2.9596  0.3870 -1.3898
 6319TIP3    H240449   5.267   4.956   5.838 -0.5827  0.3781 -0.0178
 6320TIP3   OH240450   6.555   0.536  12.666 -0.1062 -0.0682 -0.4059
 6320TIP3    H140451   6.597   0.455  12.695  1.6364  1.1959  0.7963
 6320TIP3    H240452   6.628   0.595  12.647 -1.3327  1.3816 -0.7700
 6321TIP3   OH240453   3.575   4.594  13.304  0.1473  0.3613  0.0480
 6321TIP3    H140454   3.573   4.571  13.211 -2.5396 -1.8619  0.5052
 6321TIP3    H240455   3.491   4.637  13.320 -0.6882 -1.7189  1.8560
 6322TIP3   OH240456   0.511   5.335  13.662 -0.0121 -0.4216  0.3861
 6322TIP3    H140457   0.502   5.280  13.740  0.9601 -1.1660 -0.0061
 6322TIP3    H240458   0.456   5.412  13.680  0.2429 -0.5520  1.8296
 6323TIP3   OH240459   1.360   3.521  11.907  0.7734  0.2253 -0.2258
 6323TIP3    H140460   1.317   3.470  11.839  2.2183  0.7454 -1.5979
 6323TIP3    H240461   1.306   3.599  11.917 -0.9235 -1.0668  1.2093
 6324TIP3   OH240462   2.168   6.666  12.784 -0.5121  0.2605  0.2237
 6324TIP3    H140463   2.106   6.665  12.711  0.6515 -0.4807 -0.7879
 6324TIP3    H240464   2.170   6.576  12.817 -0.1987  0.3431  0.4468
 6325TIP3   OH240465   2.797   5.202  16.251  0.7292  0.1411 -0.4694
 6325TIP3    H140466   2.771   5.115  16.281 -2.7067  1.3628  0.5977
 6325TIP3    H240467   2.814   5.190  16.157 -0.3492 -1.5599 -0.4994
 6326TIP3   OH240468   5.567   2.429  16.146 -0.0158 -0.3975 -0.0941
 6326TIP3    H140469   5.479   2.428  16.184 -0.1307  0.5815 -0.2992
 6326TIP3    H240470   5.620   2.378  16.207 -0.4340  0.2182  0.8099
 6327TIP3   OH240471   6.591   6.010   6.170 -0.0392  0.2091  0.1619
 6327TIP3    H140472   6.645   5.958   6.230  2.1519  2.4832  0.3518
 6327TIP3    H240473   6.546   6.073   6.226 -0.2976  0.4255 -0.2795
 6328TIP3   OH240474   0.854   4.952   2.218  0.3933  0.0520 -0.1193
 6328TIP3    H140475   0.893   4.919   2.298 -0.7130  2.1871  1.4077
 6328TIP3    H240476   0.781   4.893   2.200 -0.4560  0.5444  1.5082
 6329TIP3   OH240477   4.231   6.495   2.619  0.4128 -0.4229 -0.7967
 6329TIP3    H140478   4.238   6.573   2.674  0.9825 -1.2211  0.2965
 6329TIP3    H240479   4.263   6.423   2.674  2.2164 -1.0790 -2.5683
 6330TIP3   OH240480   3.054   6.352   0.396  0.5891 -0.5903  0.3611
 6330TIP3    H140481   2.962   6.325   0.397  0.6434 -0.9553 -1.4135
 6330TIP3    H240482   3.070   6.387   0.484 -0.8451 -1.8180  1.1570
 6331TIP3   OH240483   0.802   5.592  15.886 -0.5145  0.0993 -0.1395
 6331TIP3    H140484   0.830   5.677  15.852 -2.0078  0.9539  0.6789
 6331TIP3    H240485   0.877   5.561  15.937 -0.2616  1.3328  0.2724
 6332TIP3   OH240486   5.000   1.150   2.099 -0.1077 -0.3059  0.2022
 6332TIP3    H140487   4.942   1.095   2.046 -0.5244 -0.3152  0.6543
 6332TIP3    H240488   5.011   1.230   2.048 -0.3216 -0.4080 -0.0044
 6333TIP3   OH240489   5.992   4.746   5.925  0.7508 -0.5509  0.5948
 6333TIP3    H140490   5.920   4.689   5.951  1.4711 -1.0287  1.5820
 6333TIP3    H240491   6.048   4.752   6.002  1.4373  0.3453  0.0524
 6334TIP3   OH240492   1.538   2.473   0.942 -0.0737 -0.0894  0.2932
 6334TIP3    H140493   1.455   2.518   0.926 -0.8314 -0.8827  1.7749
 6334TIP3    H240494   1.564   2.439   0.856 -1.3629  0.0259 -0.1636
 6335TIP3   OH240495   2.589   5.605   4.343 -0.2915  0.0849 -0.0669
 6335TIP3    H140496   2.640   5.616   4.262 -1.1649 -1.0524 -0.8005
 6335TIP3    H240497   2.529   5.680   4.343  0.4525  0.7046  0.1290
 6336TIP3   OH240498   1.174   5.201  16.695  0.7138 -0.0051 -0.0553
 6336TIP3    H140499   1.169   5.262  16.622 -1.1138 -0.5975 -0.4911
 6336TIP3    H240500   1.145   5.251  16.771 -0.5217 -0.1961 -0.3643
 6337TIP3   OH240501   2.592   3.417   5.181 -0.2702 -0.2083 -0.0512
 6337TIP3    H140502   2.572   3.501   5.221  1.0830  0.4862 -0.7615
 6337TIP3    H240503   2.672   3.433   5.131  0.1830 -2.0011  0.0495
 6338TIP3   OH240504   1.597   4.516   5.562 -0.2511 -0.3156 -0.3609
 6338TIP3    H140505   1.627   4.457   5.631  1.9733 -1.1350 -1.9213
 6338TIP3    H240506   1.546   4.583   5.609  0.8746 -0.9981  2.0126
 6339TIP3   OH240507   4.466   3.349  12.920 -0.1994  0.2664 -0.2205
 6339TIP3    H140508   4.463   3.278  12.984 -1.4875  0.4724 -0.0334
 6339TIP3    H240509   4.540   3.328  12.863  0.8599 -0.0184  1.2192
 6340TIP3   OH240510   1.166   4.417   4.820  0.7720  0.1780  0.2547
 6340TIP3    H140511   1.199   4.359   4.753 -0.8556 -1.5601  0.8747
 6340TIP3    H240512   1.113   4.482   4.773  1.4332  0.3106 -0.3100
 6341TIP3   OH240513   6.177   5.166   1.008 -0.0822 -0.0402  0.2610
 6341TIP3    H140514   6.141   5.118   0.934 -1.0028 -1.1319  1.3774
 6341TIP3    H240515   6.134   5.128   1.085  0.9266  0.9767  1.3726
 6342TIP3   OH240516   1.620   1.841   5.824  0.2552  0.0063  0.1057
 6342TIP3    H140517   1.651   1.890   5.748  1.3298 -1.2689 -0.3283
 6342TIP3    H240518   1.581   1.907   5.881  1.6632  1.3609 -0.4321
 6343TIP3   OH240519   2.069   3.564  14.802  0.1382  0.6262  0.5093
 6343TIP3    H140520   2.101   3.523  14.721  0.3073 -0.2982  1.0296
 6343TIP3    H240521   2.059   3.656  14.780 -0.7494  0.2431 -0.8704
 6344TIP3   OH240522   5.799   5.212   1.475  0.9942 -0.2791  0.6892
 6344TIP3    H140523   5.878   5.265   1.480  2.2234 -1.8837 -0.4619
 6344TIP3    H240524   5.831   5.122   1.463 -0.9278 -0.7609 -1.9438
 6345TIP3   OH240525   2.487   3.215  12.852 -0.4837  0.2781 -0.1312
 6345TIP3    H140526   2.524   3.273  12.919  0.7844  0.5254 -0.9927
 6345TIP3    H240527   2.399   3.248  12.838 -0.1325  1.3720  0.1235
 6346TIP3   OH240528   2.846   1.593   5.703 -0.6537 -0.1060 -0.9435
 6346TIP3    H140529   2.777   1.609   5.638 -1.5331  0.9086  0.1988
 6346TIP3    H240530   2.800   1.593   5.787  0.8570  1.7337 -0.0559
 6347TIP3   OH240531   2.748   2.358   5.398 -0.0954 -0.6513  0.2906
 6347TIP3    H140532   2.653   2.361   5.412 -0.0421  0.3836  0.5270
 6347TIP3    H240533   2.769   2.265   5.396 -1.2654 -0.9210 -0.7672
 6348TIP3   OH240534   1.701   0.333   2.343  0.0281  0.0705  0.4835
 6348TIP3    H140535   1.734   0.269   2.406 -0.6200  0.9104  1.7290
 6348TIP3    H240536   1.726   0.418   2.380  0.4340  0.5765 -0.8808
 6349TIP3   OH240537   4.060   3.382   5.080 -0.2857 -0.1593  0.5783
 6349TIP3    H140538   4.114   3.455   5.112  0.8251 -0.4426 -0.5583
 6349TIP3    H240539   4.056   3.321   5.154 -0.4450  0.6135  1.2260
 6350TIP3   OH240540   3.084   1.919  13.829  0.1754  0.6263  0.2850
 6350TIP3    H140541   3.097   2.003  13.873 -0.6228  0.2124  1.3523
 6350TIP3    H240542   3.133   1.856  13.882 -3.3362 -0.4374  2.5972
 6351TIP3   OH240543   2.124   0.603   1.865 -0.5661  0.0645  0.4684
 6351TIP3    H140544   2.059   0.673   1.868 -0.5690  0.0688  0.3206
 6351TIP3    H240545   2.073   0.524   1.848 -1.0264 -0.5668  4.0395
 6352TIP3   OH240546   2.523   1.743   5.226  0.0494 -0.1746  0.1398
 6352TIP3    H140547   2.494   1.796   5.301  1.1433 -1.2209  1.3568
 6352TIP3    H240548   2.454   1.753   5.161 -1.1282  0.4562  1.4399
 6353TIP3   OH240549   2.105   5.779   2.281 -0.1954 -0.3987 -0.1095
 6353TIP3    H140550   2.104   5.872   2.303 -0.7485 -0.1231 -1.2111
 6353TIP3    H240551   2.121   5.735   2.364  2.9883  0.7883  0.0811
 6354TIP3   OH240552   6.343   2.878  11.562  0.1275 -0.2583 -0.2442
 6354TIP3    H140553   6.373   2.959  11.523  0.8540 -0.5163 -0.2255
 6354TIP3    H240554   6.253   2.867  11.529 -0.1831  0.8299  0.1954
 6355TIP3   OH240555   1.118   5.731  14.515 -0.2493  0.2535  0.7415
 6355TIP3    H140556   1.122   5.820  14.480 -0.4772  0.0928  0.2987
 6355TIP3    H240557   1.160   5.737  14.601  2.3254  0.2144 -0.4183
 6356TIP3   OH240558   3.262   4.231   5.706 -0.2349  0.1747 -0.2984
 6356TIP3    H140559   3.167   4.230   5.703 -0.2249  0.5132 -1.8578
 6356TIP3    H240560   3.286   4.315   5.667  0.6995 -0.6428 -1.5863
 6357TIP3   OH240561   1.236   3.772   2.999  0.4074  0.0633 -0.0640
 6357TIP3    H140562   1.328   3.750   2.986  0.3415  0.3122 -1.0266
 6357TIP3    H240563   1.225   3.775   3.094  1.6633  1.1912  0.0696
 6358TIP3   OH240564   6.736   5.928   0.938 -0.1413  0.0873  0.1013
 6358TIP3    H140565   6.741   5.836   0.963  0.7650 -0.0183 -0.4499
 6358TIP3    H240566   6.767   5.931   0.848 -0.5589  0.8835 -0.0290
 6359TIP3   OH240567   4.034   4.974  13.028 -0.2379 -0.1870 -0.7267
 6359TIP3    H140568   4.100   4.914  13.062 -1.4443 -0.7112  0.7876
 6359TIP3    H240569   3.977   4.993  13.102 -0.2288  2.4312 -1.2960
 6360TIP3   OH240570   1.008   0.025   0.035 -0.0845  0.2697  0.0993
 6360TIP3    H140571   1.005  -0.071   0.031 -2.6410  0.3341 -0.9011
 6360TIP3    H240572   1.071   0.043   0.106  0.3266 -2.1190  0.4443
 6361TIP3   OH240573   0.451   2.367   1.913  0.2739 -0.4703 -0.5513
 6361TIP3    H140574   0.524   2.311   1.889 -0.3457 -0.4920 -2.5784
 6361TIP3    H240575   0.409   2.322   1.987  1.0205 -1.5759 -0.7874
 6362TIP3   OH240576   4.240   0.551   4.442  0.0502 -0.0803  0.0599
 6362TIP3    H140577   4.328   0.578   4.468  0.0085 -1.2122  1.5183
 6362TIP3    H240578   4.200   0.630   4.407  1.1191  0.8421  0.8514
 6363TIP3   OH240579   4.771   0.202  15.236 -0.1474  0.9552 -0.1948
 6363TIP3    H140580   4.805   0.113  15.235 -0.7612  0.7078  0.1309
 6363TIP3    H240581   4.676   0.191  15.242 -0.1996  1.6398  0.3156
 6364TIP3   OH240582   0.964   4.473  12.074 -0.2595 -0.1964  0.3705
 6364TIP3    H140583   0.995   4.390  12.109  1.5289  0.1570 -0.2347
 6364TIP3    H240584   0.957   4.531  12.150 -1.1601 -0.7766  0.7443
 6365TIP3   OH240585   5.923   4.983   0.548 -0.2667 -0.7620  0.4423
 6365TIP3    H140586   6.015   4.980   0.520  0.7226  1.0528  3.1114
 6365TIP3    H240587   5.881   5.040   0.484  1.8359  3.0436  2.1248
 6366TIP3   OH240588   5.344   2.500   6.108 -0.4452  0.0795  0.8677
 6366TIP3    H140589   5.418   2.449   6.144  0.9714  2.5025  1.6592
 6366TIP3    H240590   5.280   2.501   6.179  0.4823  1.1654  1.7539
 6367TIP3   OH240591   1.367   2.748  17.006 -0.4875  0.1701  0.0693
 6367TIP3    H140592   1.388   2.723  17.096  0.0929  0.2357 -0.0425
 6367TIP3    H240593   1.395   2.840  17.000  0.1343 -0.0376 -0.3778
 6368TIP3   OH240594   3.173   4.659   3.616 -0.5554  0.3098 -0.7170
 6368TIP3    H140595   3.118   4.737   3.625 -0.1033  0.4803  0.7707
 6368TIP3    H240596   3.254   4.690   3.576 -0.4590  0.5714 -0.3204
 6369TIP3   OH240597   1.739   5.717   1.095  0.2091  0.0509  0.4283
 6369TIP3    H140598   1.685   5.785   1.054  0.5928  0.6362  0.8565
 6369TIP3    H240599   1.803   5.694   1.028 -1.5413 -1.8611 -0.6951
 6370TIP3   OH240600   5.588   1.632   1.069 -0.3115  0.0074 -0.0505
 6370TIP3    H140601   5.653   1.567   1.097 -2.7992 -2.7985 -0.3371
 6370TIP3    H240602   5.596   1.635   0.974 -0.7092 -0.5056 -0.1051
 6371TIP3   OH240603   3.947   0.403   1.931  0.0138 -0.9061  0.6777
 6371TIP3    H140604   3.865   0.451   1.939  0.2216 -0.7718  2.4410
 6371TIP3    H240605   4.006   0.465   1.887  0.2575  0.4975  2.8527
 6372TIP3   OH240606   1.077   2.583   2.141 -0.0159 -0.6032 -0.5886
 6372TIP3    H140607   0.997   2.543   2.176  0.2402 -1.7490 -1.2629
 6372TIP3    H240608   1.144   2.561   2.206 -0.4746  1.5996  0.7296
 6373TIP3   OH240609   0.947   3.612  15.070 -0.0797 -0.1058 -0.5394
 6373TIP3    H140610   0.859   3.639  15.097 -0.5933 -1.4824 -0.7831
 6373TIP3    H240611   0.971   3.542  15.131  0.7341  0.0521 -0.6590
 6374TIP3   OH240612   5.984   4.620  11.172 -0.3251  0.1078  0.1994
 6374TIP3    H140613   5.913   4.628  11.108 -0.3970 -1.7586 -0.0101
 6374TIP3    H240614   6.046   4.559  11.132  0.9463  0.9799  0.7906
 6375TIP3   OH240615   0.791   6.591   0.264 -0.3987  0.1554  0.1242
 6375TIP3    H140616   0.788   6.539   0.344 -0.3753 -0.9518 -0.5705
 6375TIP3    H240617   0.709   6.640   0.264 -0.6480 -0.2498  0.5558
 6376TIP3   OH240618   2.137   4.334  12.158 -0.2216 -0.1978  0.4651
 6376TIP3    H140619   2.205   4.401  12.170  1.4709 -1.5383 -0.9322
 6376TIP3    H240620   2.185   4.251  12.165 -0.3832 -1.3043 -5.8206
 6377TIP3   OH240621   5.481   4.669  16.829  0.0432 -0.3358  0.2372
 6377TIP3    H140622   5.573   4.691  16.848  0.3345 -2.4828  1.6525
 6377TIP3    H240623   5.487   4.596  16.767 -0.6626 -1.0012  0.9316
 6378TIP3   OH240624   4.758   5.552   1.919 -0.3372  0.0505 -0.6984
 6378TIP3    H140625   4.727   5.614   1.853 -0.6738  0.1724 -0.4263
 6378TIP3    H240626   4.841   5.589   1.950 -1.2434  1.1434  0.5206
 6379TIP3   OH240627   3.160   2.013   5.535  0.1401  0.6488 -0.3373
 6379TIP3    H140628   3.191   2.096   5.569  0.4501  0.0818  0.7875
 6379TIP3    H240629   3.239   1.964   5.513 -0.0309  0.4508 -0.5268
 6380TIP3   OH240630   6.640   2.339   1.671 -0.0674  0.1370  0.3967
 6380TIP3    H140631   6.663   2.431   1.671 -1.8672  0.6250  0.2155
 6380TIP3    H240632   6.568   2.332   1.733 -0.5177 -0.9916 -0.2215
 6381TIP3   OH240633   3.011   1.598  15.038 -0.0960  0.6947  0.2420
 6381TIP3    H140634   3.054   1.648  15.107 -2.0214  1.5829  0.8631
 6381TIP3    H240635   3.006   1.509  15.073  1.0675  0.5847  0.1928
 6382TIP3   OH240636   4.991   2.561  11.817  0.0200  0.1236 -0.3179
 6382TIP3    H140637   5.009   2.628  11.883 -2.3842  1.6729 -1.1025
 6382TIP3    H240638   5.030   2.595  11.737  1.6586 -1.0516 -0.0569
 6383TIP3   OH240639   4.118   5.469  11.495  0.2997  0.0185  0.0330
 6383TIP3    H140640   4.064   5.396  11.526  0.8194 -0.9193 -1.2172
 6383TIP3    H240641   4.080   5.493  11.410 -0.2534  1.6418  0.6947
 6384TIP3   OH240642   4.870   1.191  11.124  0.1298  0.1444 -0.2405
 6384TIP3    H140643   4.884   1.097  11.131 -0.1883  0.1092 -0.0519
 6384TIP3    H240644   4.945   1.223  11.074  0.0465 -0.2625 -0.6348
 6385TIP3   OH240645   3.623   4.458  11.830  0.4991 -0.0612 -0.1431
 6385TIP3    H140646   3.717   4.452  11.849  0.1323 -0.0813  1.8658
 6385TIP3    H240647   3.603   4.551  11.836  0.8596  0.3779 -3.4864
 6386TIP3   OH240648   3.202   4.580  16.871 -0.1242  0.4841 -0.3870
 6386TIP3    H140649   3.120   4.625  16.849  0.6233  1.5464 -1.0742
 6386TIP3    H240650   3.229   4.619  16.955 -1.1310 -1.0331  0.6988
 6387TIP3   OH240651   1.612   3.243   5.930  0.1116  0.1845  0.3731
 6387TIP3    H140652   1.621   3.191   6.010  1.1060  2.2592  1.7123
 6387TIP3    H240653   1.616   3.334   5.960 -0.8346  1.0634 -1.9167
 6388TIP3   OH240654   5.178   6.072  11.970  0.1313 -0.6812 -0.1384
 6388TIP3    H140655   5.175   6.031  11.883  2.2636 -1.6691  0.1869
 6388TIP3    H240656   5.268   6.103  11.979 -0.1977 -0.0932  1.5108
 6389TIP3   OH240657   0.285   1.862   4.068  0.1928 -0.6098 -0.2186
 6389TIP3    H140658   0.279   1.905   4.154 -1.5305  0.5017 -0.8308
 6389TIP3    H240659   0.215   1.797   4.069 -1.5061  1.0812 -1.5935
 6390TIP3   OH240660   1.785   1.504  16.186 -0.0401 -0.0977 -0.5519
 6390TIP3    H140661   1.710   1.445  16.185 -0.6951  0.7169 -0.2313
 6390TIP3    H240662   1.856   1.454  16.144 -0.3239 -1.4360  0.5280
 6391TIP3   OH240663   4.115   5.191   0.752 -0.7422 -0.3336  0.6089
 6391TIP3    H140664   4.085   5.161   0.666  1.1301 -2.1834  0.5191
 6391TIP3    H240665   4.208   5.207   0.740 -0.2435 -1.5316  2.4764
 6392TIP3   OH240666   5.879   4.634   0.763 -0.2213 -0.3184  0.1419
 6392TIP3    H140667   5.870   4.700   0.832 -0.8509  0.8969 -1.0663
 6392TIP3    H240668   5.867   4.682   0.681 -0.2634 -1.8622 -0.8042
 6393TIP3   OH240669   1.355   3.012  16.951  0.2038 -0.0499 -0.5169
 6393TIP3    H140670   1.266   2.999  16.917  0.2662  0.1886 -0.7761
 6393TIP3    H240671   1.410   3.013  16.872  0.2063  1.8852 -0.5377
 6394TIP3   OH240672   6.569   6.484  17.072 -0.3757  0.2310 -0.1167
 6394TIP3    H140673   6.584   6.429  17.149  0.4085 -0.0017 -0.4202
 6394TIP3    H240674   6.656   6.492  17.032 -0.3867  1.9979  0.1269
 6395TIP3   OH240675   5.989   6.072   5.165  0.3172 -0.1876  0.1981
 6395TIP3    H140676   5.912   6.048   5.217  0.3607 -0.0242  0.3363
 6395TIP3    H240677   5.966   6.046   5.076  0.9641 -2.1632  0.5692
 6396TIP3   OH240678   4.828   3.623  16.301  0.0726 -0.2168 -0.5402
 6396TIP3    H140679   4.767   3.689  16.335 -0.7096 -0.8809 -0.6199
 6396TIP3    H240680   4.914   3.664  16.308 -0.1548  0.0248  1.3998
 6397TIP3   OH240681   5.730   1.668  15.307 -0.0469  0.2569 -0.0675
 6397TIP3    H140682   5.718   1.763  15.312 -0.7851  0.1966 -0.4734
 6397TIP3    H240683   5.663   1.632  15.364 -1.1680 -0.0673 -1.5253
 6398TIP3   OH240684   0.671   3.144  16.836 -0.2270 -0.0576  0.6396
 6398TIP3    H140685   0.636   3.072  16.888  0.1636 -0.7184 -0.0032
 6398TIP3    H240686   0.600   3.168  16.777 -0.0775 -0.4604  0.2973
 6399TIP3   OH240687   2.140   6.597   2.504  0.8657  0.5530 -0.1323
 6399TIP3    H140688   2.227   6.600   2.546  0.5179  0.2908  0.6189
 6399TIP3    H240689   2.154   6.546   2.424  1.9017  2.4374 -1.2302
 6400TIP3   OH240690   4.743   3.736   5.027 -0.6705 -0.1328  0.4430
 6400TIP3    H140691   4.665   3.760   5.077 -1.4944 -0.6121 -0.5873
 6400TIP3    H240692   4.804   3.702   5.093 -2.1636 -1.8289  1.0059
 6401TIP3   OH240693   4.450   2.547  15.440  0.3645 -0.5619 -0.3013
 6401TIP3    H140694   4.394   2.491  15.493  2.0732 -2.2891 -0.1981
 6401TIP3    H240695   4.455   2.503  15.355 -0.5378  0.9862 -1.2020
 6402TIP3   OH240696   1.373   4.242  14.196 -0.1972  0.1703 -0.0003
 6402TIP3    H140697   1.362   4.254  14.101  0.9363  3.9710  0.1837
 6402TIP3    H240698   1.455   4.193  14.204 -1.0348 -1.4682 -0.9265
 6403TIP3   OH240699   3.907   2.037   3.487  0.5410 -0.7559 -0.0389
 6403TIP3    H140700   3.907   2.061   3.580  1.8651  0.8694 -0.4164
 6403TIP3    H240701   3.871   2.114   3.442  3.7130  0.2149 -1.1729
 6404TIP3   OH240702   3.175   3.312  15.547 -0.2191  0.3572 -0.2040
 6404TIP3    H140703   3.198   3.222  15.570  0.6341  1.0102  1.7362
 6404TIP3    H240704   3.079   3.313  15.546 -0.2359 -0.5399 -0.0880
 6405TIP3   OH240705   3.961   1.524   0.593  0.4225  0.0598 -0.4610
 6405TIP3    H140706   3.953   1.595   0.529  0.4441 -0.7443 -1.3738
 6405TIP3    H240707   3.895   1.460   0.567 -0.7071  0.4260  1.3038
 6406TIP3   OH240708   2.660   1.868  13.606  0.2428  0.2262  0.6400
 6406TIP3    H140709   2.644   1.934  13.539 -0.9746 -0.5603  0.1148
 6406TIP3    H240710   2.671   1.918  13.687  1.7372  1.1887 -0.1049
 6407TIP3   OH240711   4.587   1.753  15.741 -0.6242  0.0594 -0.3359
 6407TIP3    H140712   4.590   1.766  15.836 -0.5665 -0.1024 -0.3146
 6407TIP3    H240713   4.677   1.732  15.717 -0.7840 -0.7088 -0.3034
 6408TIP3   OH240714   4.891   4.060  13.150 -0.2399 -0.3179 -0.1446
 6408TIP3    H140715   4.905   4.152  13.172  0.3572 -0.4586  0.0805
 6408TIP3    H240716   4.973   4.016  13.174 -0.1792 -0.7563 -1.1068
 6409TIP3   OH240717   3.401   5.911  16.561 -0.2132  0.1394 -0.4455
 6409TIP3    H140718   3.462   5.942  16.494 -0.0213  0.0948 -0.2929
 6409TIP3    H240719   3.315   5.917  16.520  0.0764 -1.8894 -1.4706
 6410TIP3   OH240720   6.492   6.145   3.188  0.6095  0.4739  0.4338
 6410TIP3    H140721   6.419   6.121   3.131 -0.1867 -0.3758  1.7623
 6410TIP3    H240722   6.450   6.182   3.265  1.6447  1.0188  0.7495
 6411TIP3   OH240723   6.658   1.136  13.748  0.1981 -0.0380  0.4282
 6411TIP3    H140724   6.594   1.146  13.818  0.4028 -1.6133  0.8916
 6411TIP3    H240725   6.606   1.138  13.668 -0.4951 -1.3994  0.8043
 6412TIP3   OH240726   6.832   2.604   2.271 -0.4142 -0.2951 -0.1821
 6412TIP3    H140727   6.785   2.561   2.200 -0.7126 -0.7797  0.3038
 6412TIP3    H240728   6.924   2.583   2.254 -0.3433  0.7503 -1.1960
 6413TIP3   OH240729   2.176   1.915   4.960 -0.4510 -0.1360 -0.2861
 6413TIP3    H140730   2.232   1.991   4.979 -1.8660  0.5077  1.7777
 6413TIP3    H240731   2.149   1.927   4.869  1.2061  0.5477 -0.7256
 6414TIP3   OH240732   4.597   3.187  13.670 -0.4658  0.0841  0.0573
 6414TIP3    H140733   4.522   3.164  13.615  0.3403 -3.2975  0.1585
 6414TIP3    H240734   4.558   3.230  13.746 -2.0521  0.4891 -0.9236
 6415TIP3   OH240735   3.480   2.945   2.594  0.3213  0.5968  0.3201
 6415TIP3    H140736   3.421   3.017   2.570  0.3247  0.6136  0.3626
 6415TIP3    H240737   3.458   2.875   2.533  0.2966  0.6233  0.2985
 6416TIP3   OH240738   2.544   1.820  13.101 -0.1954  0.6192  0.7160
 6416TIP3    H140739   2.595   1.748  13.139  0.3931  0.1948 -0.7968
 6416TIP3    H240740   2.540   1.799  13.008 -0.9831  1.9783  0.4255
 6417TIP3   OH240741   0.055   5.707  13.208 -0.2044  0.4600 -0.0523
 6417TIP3    H140742   0.038   5.726  13.116 -1.1914 -0.3630 -0.0554
 6417TIP3    H240743   0.142   5.745  13.225  0.3712 -0.1473 -1.5402
 6418TIP3   OH240744   0.898   5.272   4.231 -0.2600  0.1368 -0.3162
 6418TIP3    H140745   0.895   5.340   4.164 -0.6627  1.1985  0.7442
 6418TIP3    H240746   0.943   5.199   4.189  1.6927  1.6248 -0.9796
 6419TIP3   OH240747   5.520   3.287  15.032 -0.0314  0.5375 -0.0771
 6419TIP3    H140748   5.588   3.343  15.069 -0.3719  0.5468  0.5383
 6419TIP3    H240749   5.438   3.321  15.069 -0.3779  0.5458 -0.8354
 6420TIP3   OH240750   1.118   2.861   4.435 -0.1356 -0.1536  0.5894
 6420TIP3    H140751   1.061   2.911   4.376  0.5034  2.3936  1.9719
 6420TIP3    H240752   1.101   2.898   4.522  0.7467 -2.1001  1.6645
 6421TIP3   OH240753   3.151   3.667  16.192  0.5841 -0.1600 -0.7951
 6421TIP3    H140754   3.226   3.726  16.200  0.2089  0.1080  5.3088
 6421TIP3    H240755   3.183   3.584  16.227 -1.4213 -0.6077  0.1119
 6422TIP3   OH240756   3.692   0.187  16.564  0.5934 -0.4999 -0.4764
 6422TIP3    H140757   3.642   0.109  16.540  2.8320 -1.7311 -1.5348
 6422TIP3    H240758   3.638   0.261  16.535 -1.8643 -1.5702  1.1200
 6423TIP3   OH240759   0.808   3.427  14.381  0.2129 -0.2472  0.2075
 6423TIP3    H140760   0.835   3.507  14.428 -0.5066  0.8551 -1.1844
 6423TIP3    H240761   0.872   3.418  14.311 -1.0938  0.5619 -1.1521
 6424TIP3   OH240762   3.768   5.606   3.303  0.2277 -0.1174  0.3410
 6424TIP3    H140763   3.727   5.653   3.376 -0.3468 -0.7705  0.4396
 6424TIP3    H240764   3.838   5.665   3.274  0.4887  0.1437  1.4313
 6425TIP3   OH240765   3.699   0.047  11.910  0.4824 -0.0563 -0.3378
 6425TIP3    H140766   3.669   0.110  11.844 -1.4378 -1.1146 -0.5213
 6425TIP3    H240767   3.650  -0.033  11.892 -0.8973 -0.1119  2.9769
 6426TIP3   OH240768   2.323   4.114   3.711 -0.4143 -0.0821  0.8239
 6426TIP3    H140769   2.378   4.112   3.790  3.8215 -0.3887 -1.7896
 6426TIP3    H240770   2.297   4.206   3.702  2.1518  0.7289  0.8017
 6427TIP3   OH240771   3.659   2.268   1.375 -0.0395  0.3366  0.0280
 6427TIP3    H140772   3.566   2.250   1.388 -0.3070  0.8055 -1.1043
 6427TIP3    H240773   3.666   2.364   1.377  0.8911  0.3017  2.9573
 6428TIP3   OH240774   1.753   4.022  15.407 -0.4824  0.3037 -0.1405
 6428TIP3    H140775   1.791   4.087  15.347 -0.5994  1.3396  0.8814
 6428TIP3    H240776   1.659   4.041  15.407 -0.4982  0.2343  0.2799
 6429TIP3   OH240777   4.601   4.253   3.901 -0.0139 -0.5305  0.0299
 6429TIP3    H140778   4.650   4.304   3.965  0.1173 -1.9671  1.1175
 6429TIP3    H240779   4.662   4.242   3.828  1.5441 -2.6323  1.5259
 6430TIP3   OH240780   1.566   5.904  11.110 -0.1224  0.0609  0.2253
 6430TIP3    H140781   1.522   5.989  11.109 -1.0931 -0.4365  0.1192
 6430TIP3    H240782   1.508   5.846  11.061  0.3908 -0.7354  0.5452
 6431TIP3   OH240783   6.702   4.107  15.025 -0.1390  0.3959 -0.3309
 6431TIP3    H140784   6.619   4.127  14.981 -0.4578 -1.9910 -0.9419
 6431TIP3    H240785   6.701   4.160  15.104 -1.8426  1.0764 -0.7691
 6432TIP3   OH240786   4.355   3.224  15.574 -0.1016 -0.0342  0.1124
 6432TIP3    H140787   4.295   3.261  15.638  1.2513  1.1624  0.7395
 6432TIP3    H240788   4.393   3.147  15.617  1.3360  1.1621  1.1112
 6433TIP3   OH240789   5.039   2.620   5.554  0.3364  0.2461  0.6818
 6433TIP3    H140790   5.043   2.694   5.614  1.9813  1.7207 -1.0769
 6433TIP3    H240791   4.946   2.608   5.535 -0.1736  0.0129  3.0973
 6434TIP3   OH240792   0.672   1.161   5.927  0.3046  0.5533 -0.2609
 6434TIP3    H140793   0.676   1.160   6.023  4.4560 -0.7954 -0.2775
 6434TIP3    H240794   0.645   1.072   5.904  0.3943  0.5482 -0.3455
 6435TIP3   OH240795   1.838   2.050   0.812 -0.0009 -0.0334  0.8096
 6435TIP3    H140796   1.800   1.977   0.862 -3.6249  1.2793  0.2582
 6435TIP3    H240797   1.896   2.008   0.749 -2.6440 -2.6313 -0.0973
 6436TIP3   OH240798   6.271   4.143  14.028 -0.0751  0.2508 -0.1046
 6436TIP3    H140799   6.354   4.097  14.016 -0.0307 -0.0737  1.2913
 6436TIP3    H240800   6.295   4.229  14.061 -0.3146 -0.3839  1.8305
 6437TIP3   OH240801   4.633   6.832  11.912  0.3582  0.6117 -0.1882
 6437TIP3    H140802   4.678   6.802  11.833  0.7308 -1.4140  0.7330
 6437TIP3    H240803   4.554   6.779  11.916  1.3973 -0.9212  1.8951
 6438TIP3   OH240804   5.558   5.125   1.262 -0.6433  0.3351  0.1876
 6438TIP3    H140805   5.519   5.194   1.314 -0.0640  0.6180  0.2552
 6438TIP3    H240806   5.584   5.058   1.325 -0.8035  0.2480  0.1635
 6439TIP3   OH240807   6.210   2.836  15.029  0.7445  0.1015 -0.4205
 6439TIP3    H140808   6.161   2.918  15.038 -1.0855 -1.0191  0.2967
 6439TIP3    H240809   6.212   2.819  14.935  0.0928  0.3646 -0.4848
 6440TIP3   OH240810   6.357   2.968  14.325 -0.1422 -0.2927  0.1307
 6440TIP3    H140811   6.429   2.997  14.381 -0.1915 -0.3214  0.2105
 6440TIP3    H240812   6.279   2.977  14.381 -0.2981  0.4035 -0.1787
 6441TIP3   OH240813   1.146   3.888  16.802 -0.0567 -0.0645  0.5659
 6441TIP3    H140814   1.144   3.945  16.725 -1.1729  1.0335  1.3679
 6441TIP3    H240815   1.130   3.947  16.876  2.9374 -0.7385  1.9033
 6442TIP3   OH240816   3.273   5.246  14.340 -0.3449 -0.0078 -0.1103
 6442TIP3    H140817   3.256   5.339  14.327 -0.0681  0.2239  1.0959
 6442TIP3    H240818   3.363   5.242  14.370 -0.4839 -0.6312  0.2313
 6443TIP3   OH240819   6.222   5.884   3.294 -0.4631 -0.0220  0.4233
 6443TIP3    H140820   6.167   5.807   3.279 -0.7219  0.1215  0.6343
 6443TIP3    H240821   6.309   5.857   3.265 -0.5197 -0.4470  0.6362
 6444TIP3   OH240822   1.439   4.962  17.068  0.3430  0.3486  0.1176
 6444TIP3    H140823   1.487   4.898  17.120 -0.4981  0.0416  0.5284
 6444TIP3    H240824   1.376   5.000  17.128 -1.6744 -1.0790 -0.9975
 6445TIP3   OH240825   3.888   2.181   5.347  0.5626  0.3543 -0.3792
 6445TIP3    H140826   3.926   2.237   5.280 -0.5918  2.3656  0.5687
 6445TIP3    H240827   3.963   2.147   5.396  1.2797  2.9381  0.4446
 6446TIP3   OH240828   1.349   4.745   0.822  0.1248  0.2124  0.3874
 6446TIP3    H140829   1.366   4.652   0.839  0.4829  0.1000 -0.4905
 6446TIP3    H240830   1.310   4.746   0.735 -1.2450  0.7725  0.9835
 6447TIP3   OH240831   5.985   2.350  13.478  0.4589 -0.1495 -0.3112
 6447TIP3    H140832   6.063   2.296  13.468  0.9032 -0.2418  2.7431
 6447TIP3    H240833   5.917   2.288  13.506 -0.0464  0.3368 -0.4492
 6448TIP3   OH240834   0.234   2.173   3.643  0.4891 -0.0884 -0.0311
 6448TIP3    H140835   0.243   2.244   3.580 -0.5726  0.5790  0.5542
 6448TIP3    H240836   0.220   2.095   3.589  2.1119  0.0328 -0.6934
 6449TIP3   OH240837   0.528   6.708  12.109 -0.1751 -0.6084 -0.2883
 6449TIP3    H140838   0.443   6.724  12.151 -1.7527 -0.5461 -3.2629
 6449TIP3    H240839   0.528   6.614  12.091 -0.4839 -0.3138 -1.9402
 6450TIP3   OH240840   3.382   4.478   5.548 -0.5327  0.4038 -0.2227
 6450TIP3    H140841   3.354   4.523   5.468 -1.1642  0.4372  0.0104
 6450TIP3    H240842   3.476   4.495   5.554 -0.6526  1.1716 -0.4699
 6451TIP3   OH240843   2.262   5.153   4.627  0.3230 -0.1323  0.8157
 6451TIP3    H140844   2.306   5.209   4.563  0.6366 -0.9803  0.2685
 6451TIP3    H240845   2.197   5.105   4.575  0.6232 -0.8746  1.1219
 6452TIP3   OH240846   0.802   0.019  16.697 -0.3324 -0.1383  0.8673
 6452TIP3    H140847   0.892   0.052  16.698 -0.7292  1.0263  0.3377
 6452TIP3    H240848   0.807  -0.061  16.644  0.0496  1.0598 -1.0138
 6453TIP3   OH240849   3.016   0.636  13.114  0.9544 -0.1167 -0.1548
 6453TIP3    H140850   2.933   0.599  13.144  0.9861 -1.0990 -1.2365
 6453TIP3    H240851   2.995   0.676  13.030  1.3974  0.4141 -0.0190
 6454TIP3   OH240852   3.515   6.183   4.234  1.0422 -0.4344 -0.6542
 6454TIP3    H140853   3.437   6.150   4.188  0.2343  0.5188 -0.0146
 6454TIP3    H240854   3.568   6.105   4.250 -0.3906 -1.3099  0.0222
 6455TIP3   OH240855   1.081   0.217   5.869 -0.9510  0.2593 -0.0149
 6455TIP3    H140856   1.061   0.240   5.778 -2.6308  3.4876  0.9895
 6455TIP3    H240857   1.016   0.151   5.892 -0.5848 -0.5072 -1.0923
 6456TIP3   OH240858   1.837   5.747   4.770 -0.0151 -0.0878  0.4423
 6456TIP3    H140859   1.890   5.810   4.817  0.7429 -0.0401 -0.4584
 6456TIP3    H240860   1.864   5.756   4.678 -1.4313 -0.1954 -0.0110
 6457TIP3   OH240861   2.344   4.093  13.621  0.2321 -0.2406  0.8022
 6457TIP3    H140862   2.274   4.028  13.627  1.1518 -1.6024 -1.5472
 6457TIP3    H240863   2.298   4.177  13.611 -1.1809 -1.1702 -1.3942
 6458TIP3   OH240864   6.112   6.505  15.045  0.0005 -0.1401  0.2939
 6458TIP3    H140865   6.112   6.421  14.998 -3.0064  0.8865 -1.8128
 6458TIP3    H240866   6.020   6.524  15.061  0.5443  2.9380  0.3818
 6459TIP3   OH240867   4.232   0.242   0.047  0.5818 -0.0664 -0.0462
 6459TIP3    H140868   4.259   0.246   0.139  2.3945 -2.7189 -0.3503
 6459TIP3    H240869   4.154   0.187   0.047  1.2111 -0.9811 -0.1627
 6460TIP3   OH240870   0.495   4.612   3.249 -0.0804 -0.4307  0.3010
 6460TIP3    H140871   0.496   4.522   3.282  0.1619 -0.4538  0.2269
 6460TIP3    H240872   0.587   4.634   3.235 -0.2208 -0.8926 -1.6126
 6461TIP3   OH240873   4.618   2.114   4.246 -0.5343 -0.7254  0.1691
 6461TIP3    H140874   4.712   2.129   4.250 -0.5545  0.1113 -1.6043
 6461TIP3    H240875   4.609   2.026   4.209 -0.4272 -0.0714 -1.4689
 6462TIP3   OH240876   2.013   3.326   4.223  0.3725  0.1371 -0.0888
 6462TIP3    H140877   1.955   3.300   4.295 -0.1806  0.3886 -0.4318
 6462TIP3    H240878   2.101   3.313   4.257  0.1176  0.0004  0.5404
 6463TIP3   OH240879   3.357   1.281   2.058  0.0537  0.3792 -0.3302
 6463TIP3    H140880   3.296   1.339   2.012  0.2605  0.4984 -0.4565
 6463TIP3    H240881   3.439   1.331   2.062  0.6327 -0.4040 -1.6169
 6464TIP3   OH240882   5.844   6.158  15.396 -0.2408 -0.6601  0.0264
 6464TIP3    H140883   5.795   6.232  15.362  1.2543  0.1496 -0.4353
 6464TIP3    H240884   5.852   6.098  15.321 -2.0132 -1.6540  0.5651
 6465TIP3   OH240885   6.020   3.881   3.189  0.3381  0.0933  0.1571
 6465TIP3    H140886   6.047   3.886   3.281 -1.1321 -0.3453  0.6369
 6465TIP3    H240887   6.052   3.795   3.160 -0.0082 -0.1681  0.5376
 6466TIP3   OH240888   1.265   2.737   1.970  0.0041 -0.3416 -0.1693
 6466TIP3    H140889   1.280   2.648   1.939  1.5058 -0.1018 -0.1738
 6466TIP3    H240890   1.175   2.736   2.003 -1.0948 -1.0318 -2.9521
 6467TIP3   OH240891   1.753   5.424   2.259  0.1859  0.2335 -0.5638
 6467TIP3    H140892   1.759   5.406   2.352  0.0992  2.4957 -0.0655
 6467TIP3    H240893   1.840   5.454   2.234 -0.2413  1.3738 -0.7626
 6468TIP3   OH240894   3.410   2.970   3.443 -0.3054  0.2074  0.2313
 6468TIP3    H140895   3.398   2.880   3.473 -2.2604  0.6848  1.0667
 6468TIP3    H240896   3.365   2.974   3.359 -0.3519  0.4355  0.2662
 6469TIP3   OH240897   3.192   1.511   3.652  0.1005 -0.1439 -0.3007
 6469TIP3    H140898   3.257   1.557   3.706 -2.1359  1.9445  0.8010
 6469TIP3    H240899   3.163   1.439   3.708 -0.5800  0.6588  0.4052
 6470TIP3   OH240900   3.826   1.084   3.673  0.6061  0.1726 -0.5669
 6470TIP3    H140901   3.752   1.058   3.618  1.2601 -0.3400 -1.2337
 6470TIP3    H240902   3.862   1.162   3.629  1.0616 -0.1720 -0.8174
 6471TIP3   OH240903   2.885   5.395   4.215  0.6392 -0.1964 -0.0451
 6471TIP3    H140904   2.923   5.345   4.143 -0.1923 -0.2903 -0.4229
 6471TIP3    H240905   2.862   5.329   4.281  1.0729 -0.1432  0.1661
 6472TIP3   OH240906   5.459   1.342   3.609 -0.5850 -0.5607 -0.1595
 6472TIP3    H140907   5.497   1.425   3.639  0.4332 -0.3156 -1.9444
 6472TIP3    H240908   5.374   1.366   3.572  0.4754  0.0697 -2.3617
 6473TIP3   OH240909   3.226   4.156   4.383 -0.0673  0.2432  0.1749
 6473TIP3    H140910   3.260   4.236   4.343  2.0124 -0.5102  0.3241
 6473TIP3    H240911   3.234   4.171   4.477  0.8726 -0.3434  0.1957
 6474TIP3   OH240912   0.857   4.638  11.466 -0.0554  0.6870  0.7388
 6474TIP3    H140913   0.942   4.664  11.501  1.3435  0.2482 -2.0530
 6474TIP3    H240914   0.876   4.561  11.412 -2.3542  0.1473  0.6110
 6475TIP3   OH240915   0.505   2.474   0.963 -0.0766  0.2374  0.0167
 6475TIP3    H140916   0.411   2.463   0.976 -0.1138 -2.0455 -1.5641
 6475TIP3    H240917   0.528   2.406   0.900  2.4021  1.6253 -0.7031
 6476TIP3   OH240918   1.583   2.882  11.458 -0.0138  0.2382 -0.3399
 6476TIP3    H140919   1.621   2.917  11.377  0.4238  1.2655  0.2938
 6476TIP3    H240920   1.514   2.945  11.481  1.7307  1.5741  1.5896
 6477TIP3   OH240921   2.198   5.653  15.053  0.5299  0.4353  0.0711
 6477TIP3    H140922   2.261   5.641  15.124 -0.1247  0.7877  0.7269
 6477TIP3    H240923   2.113   5.631  15.093  0.2426 -0.0673 -0.8017
 6478TIP3   OH240924   1.091   6.586   2.076 -0.4118  0.6531 -0.4114
 6478TIP3    H140925   1.143   6.608   2.153 -1.4980 -0.1998  0.6056
 6478TIP3    H240926   1.011   6.549   2.112 -1.5434  1.5282 -1.9440
 6479TIP3   OH240927   1.278   6.815  16.320 -0.3459  0.6872  0.0621
 6479TIP3    H140928   1.305   6.753  16.388 -2.6852 -0.3349  0.1343
 6479TIP3    H240929   1.321   6.897  16.344  0.1141 -0.0457  1.8917
 6480TIP3   OH240930   1.294   6.115   2.108  0.3528  0.3590  0.2705
 6480TIP3    H140931   1.351   6.042   2.130 -0.0476  0.0212  0.1879
 6480TIP3    H240932   1.354   6.187   2.090  0.7817 -0.1798 -0.4982
 6481TIP3   OH240933   5.834   4.634   3.931 -0.7289  0.2715  0.1707
 6481TIP3    H140934   5.903   4.694   3.960 -0.1441  0.0835 -0.7835
 6481TIP3    H240935   5.848   4.555   3.984 -2.5044  1.4756  2.5922
 6482TIP3   OH240936   3.133   4.521  14.509 -0.0394 -0.4636 -0.1445
 6482TIP3    H140937   3.205   4.554  14.563 -0.6075  1.5759 -0.5265
 6482TIP3    H240938   3.094   4.451  14.560  1.1243 -0.4007  0.8588
 6483TIP3   OH240939   6.018   4.329  14.551 -0.7114 -0.0965 -0.3612
 6483TIP3    H140940   6.035   4.421  14.532 -0.5121  0.0958  0.6753
 6483TIP3    H240941   5.927   4.327  14.581 -0.1025  0.1236  1.6517
 6484TIP3   OH240942   4.096   0.235   1.388 -0.1349 -0.4149  0.0489
 6484TIP3    H140943   4.027   0.189   1.435 -0.4990  0.0750 -0.0006
 6484TIP3    H240944   4.090   0.203   1.298  1.5634 -2.5301  0.6015
 6485TIP3   OH240945   3.307   0.876   5.504  0.4208  0.0920  0.5467
 6485TIP3    H140946   3.258   0.872   5.586  1.8419  0.5343  1.4587
 6485TIP3    H240947   3.372   0.945   5.518  0.6072  0.2816 -1.0155
 6486TIP3   OH240948   2.887   4.410   5.026  0.3910  0.1477 -0.5147
 6486TIP3    H140949   2.837   4.330   5.007  0.8931 -0.3394  0.1384
 6486TIP3    H240950   2.978   4.380   5.030  0.7299  0.9858 -1.5222
 6487TIP3   OH240951   5.303   1.280  13.471  0.3786 -0.1183  0.1774
 6487TIP3    H140952   5.353   1.326  13.403 -1.6161  0.6683 -0.8282
 6487TIP3    H240953   5.262   1.349  13.522 -1.1292 -0.7299 -0.1662
 6488TIP3   OH240954   4.292   4.683   4.663  0.5406 -0.1749  0.1893
 6488TIP3    H140955   4.261   4.629   4.590 -0.2756 -0.1469  0.4983
 6488TIP3    H240956   4.225   4.751   4.672  0.5923 -0.2276  1.0166
 6489TIP3   OH240957   0.646   5.043   5.360  0.1268  0.0677  0.0232
 6489TIP3    H140958   0.608   5.014   5.277 -1.0187  1.6976 -0.0635
 6489TIP3    H240959   0.580   5.020   5.425  0.4652 -0.0664  0.3175
 6490TIP3   OH240960   2.904   5.051   1.441 -0.4725 -0.8605  0.4738
 6490TIP3    H140961   2.895   4.966   1.397 -1.1644 -0.4860 -0.1317
 6490TIP3    H240962   2.844   5.109   1.394 -1.4674 -0.5159  2.0904
 6491TIP3   OH240963   0.442   5.759  11.321 -0.2553  0.2821  0.5911
 6491TIP3    H140964   0.373   5.778  11.384 -1.0793  0.6156 -0.3931
 6491TIP3    H240965   0.406   5.786  11.237  1.0273  0.3389  0.0378
 6492TIP3   OH240966   0.699   0.913  11.271 -0.4603 -0.1457 -0.5381
 6492TIP3    H140967   0.774   0.964  11.239 -0.3046  1.3140  1.8998
 6492TIP3    H240968   0.644   0.977  11.317 -0.8752 -1.9318  1.6293
 6493TIP3   OH240969   1.853   0.343  14.980  0.6199  0.1071 -0.0732
 6493TIP3    H140970   1.889   0.432  14.985  2.2740 -0.5703  0.6536
 6493TIP3    H240971   1.893   0.297  15.054 -1.1775 -0.9212  0.3027
 6494TIP3   OH240972   3.666   6.317  15.357  0.2257  0.3331 -0.5708
 6494TIP3    H140973   3.580   6.278  15.341 -0.8099  2.8137 -1.6009
 6494TIP3    H240974   3.728   6.259  15.312 -0.7434 -1.8787  0.7578
 6495TIP3   OH240975   0.198   6.195  14.249  0.2685  0.3215 -0.5928
 6495TIP3    H140976   0.288   6.207  14.220  0.3528 -0.3640 -0.6358
 6495TIP3    H240977   0.196   6.230  14.339  0.1219  2.0084 -1.2161
 6496TIP3   OH240978   0.257   4.446  16.281 -0.4607  0.0527 -0.0831
 6496TIP3    H140979   0.344   4.475  16.307  0.4345 -0.4510 -2.2443
 6496TIP3    H240980   0.243   4.365  16.329  0.0323  0.4165  0.6926
 6497TIP3   OH240981   3.520   5.090  12.459  0.3373 -0.3667  0.3403
 6497TIP3    H140982   3.452   5.128  12.515 -0.1080  0.6231 -0.8287
 6497TIP3    H240983   3.586   5.159  12.452  1.1559 -1.0665  0.8945
 6498TIP3   OH240984   3.855   3.986  14.199 -0.1541  0.4685 -0.1949
 6498TIP3    H140985   3.822   3.985  14.109 -0.0840  2.3701 -0.2958
 6498TIP3    H240986   3.947   4.012  14.190  0.8830 -2.6142  0.2415
 6499TIP3   OH240987   3.280   1.260  12.716 -0.0636  0.1881  0.1838
 6499TIP3    H140988   3.188   1.283  12.708 -0.0130  0.0338 -1.2347
 6499TIP3    H240989   3.326   1.328  12.667  0.1992 -1.9999 -2.9080
 6500TIP3   OH240990   1.299   6.595   4.309  0.2341 -0.2126 -0.4458
 6500TIP3    H140991   1.242   6.668   4.288  1.0981  0.8019  0.6115
 6500TIP3    H240992   1.321   6.556   4.224  1.5785  2.1587 -1.2754
 6501TIP3   OH240993   3.700   3.820  11.257  0.2332 -0.4713  0.4075
 6501TIP3    H140994   3.701   3.860  11.170  1.7520 -0.5367  0.3591
 6501TIP3    H240995   3.781   3.852  11.298 -0.6046 -0.1883  1.9200
 6502TIP3   OH240996   6.496   3.683   3.760  1.2168 -0.2306 -0.1142
 6502TIP3    H140997   6.482   3.776   3.777 -0.0909 -0.3333 -0.5498
 6502TIP3    H240998   6.433   3.638   3.817  1.7039 -0.8422 -0.0473
 6503TIP3   OH240999   1.443   4.243   5.291  0.5498 -0.4143 -0.0934
 6503TIP3    H141000   1.431   4.217   5.200 -1.7911 -1.9685  0.5703
 6503TIP3    H241001   1.533   4.216   5.312  0.6967 -1.1682 -1.5923
 6504TIP3   OH241002   1.562   5.184  15.346  0.1013 -0.0620 -0.1507
 6504TIP3    H141003   1.468   5.167  15.357  0.1853 -1.4332 -1.2169
 6504TIP3    H241004   1.577   5.174  15.252  1.5805 -1.4444  0.1830
 6505TIP3   OH241005   6.290   5.513  15.248 -0.5253  0.3447 -0.0372
 6505TIP3    H141006   6.359   5.544  15.189  0.0616  0.8132  0.8731
 6505TIP3    H241007   6.236   5.590  15.265  1.3668  1.1868  2.8262
 6506TIP3   OH241008   2.490   2.336  15.332  0.3854  0.7961 -0.0867
 6506TIP3    H141009   2.400   2.334  15.299  0.3314 -0.7158  0.1015
 6506TIP3    H241010   2.482   2.313  15.424  1.0261  0.0862 -0.2057
 6507TIP3   OH241011   2.843   5.994   1.067  0.3528  0.2541 -0.3677
 6507TIP3    H141012   2.886   5.910   1.081 -1.4093 -0.9300 -1.5275
 6507TIP3    H241013   2.829   5.998   0.972 -1.5195  0.8150 -0.1081
 6508TIP3   OH241014   5.337   4.086   2.210 -0.0452 -0.0605  0.4119
 6508TIP3    H141015   5.340   3.991   2.207  0.9959 -0.1313  2.4356
 6508TIP3    H241016   5.314   4.107   2.300  1.4019  1.5995  0.4501
 6509TIP3   OH241017   6.804   1.690   5.934  0.9654 -0.4162 -0.4009
 6509TIP3    H141018   6.755   1.622   5.888  0.4781  0.1982 -0.8030
 6509TIP3    H241019   6.745   1.721   6.003  0.8968  0.1110 -0.6896
 6510TIP3   OH241020   6.241   4.845   0.003  0.0596  0.0425 -0.2481
 6510TIP3    H141021   6.242   4.922   0.060  1.0647  0.8194 -1.2704
 6510TIP3    H241022   6.181   4.868  -0.068 -1.2456 -0.9502  0.4806
 6511TIP3   OH241023   6.153   6.674   0.028  0.4891  0.1928 -0.5393
 6511TIP3    H141024   6.233   6.716   0.059  0.9262 -0.5978 -0.5555
 6511TIP3    H241025   6.166   6.664  -0.066  1.3381 -1.8604 -0.2632
 6512TIP3   OH241026   5.002   3.345   4.258  0.6199  0.5352  0.2238
 6512TIP3    H141027   4.958   3.426   4.234 -0.9756 -0.6032 -0.9444
 6512TIP3    H241028   5.013   3.298   4.175  1.1260 -0.6181  0.9156
 6513TIP3   OH241029   0.879   4.414   0.469  0.1863 -0.5339  0.0211
 6513TIP3    H141030   0.906   4.325   0.448 -0.1301 -0.2183 -1.9105
 6513TIP3    H241031   0.788   4.406   0.497  0.1657 -0.8191 -0.1303
 6514TIP3   OH241032   5.488   0.325   4.591  0.0086 -0.1169 -0.2462
 6514TIP3    H141033   5.498   0.410   4.634 -0.6381 -0.7312  1.1956
 6514TIP3    H241034   5.461   0.347   4.502  0.6256  1.1999 -0.1398
 6515TIP3   OH241035   0.724   1.000   1.780  0.3765  0.2894 -0.9695
 6515TIP3    H141036   0.741   1.077   1.834  0.5561 -0.1243 -0.4192
 6515TIP3    H241037   0.749   0.926   1.836 -2.1238 -0.3149 -0.5319
 6516TIP3   OH241038   6.401   4.645  12.262 -0.8024  0.4597 -0.2140
 6516TIP3    H141039   6.478   4.604  12.301  0.2450  1.3798 -1.2290
 6516TIP3    H241040   6.334   4.577  12.263  1.1956 -1.8083 -2.9065
 6517TIP3   OH241041   5.745   0.405  13.845  0.4199  0.2901 -0.4639
 6517TIP3    H141042   5.773   0.483  13.893  1.2412 -1.0934  1.4086
 6517TIP3    H241043   5.660   0.429  13.807  0.0046  1.6545  1.2247
 6518TIP3   OH241044   0.332   6.440   0.170 -0.3368  0.0325 -0.1098
 6518TIP3    H141045   0.399   6.472   0.230 -1.3858  2.1084  0.0371
 6518TIP3    H241046   0.251   6.440   0.221 -0.7724 -0.7882 -0.7676
 6519TIP3   OH241047   0.088   1.982   0.370 -0.4671 -0.3218  0.4048
 6519TIP3    H141048   0.095   2.016   0.281  0.1866 -0.3528  0.4386
 6519TIP3    H241049  -0.003   1.998   0.395 -0.6042 -0.1380 -0.1967
 6520TIP3   OH241050   3.071   5.596  10.967  0.5966 -0.1540 -0.0921
 6520TIP3    H141051   3.079   5.503  10.988  1.9476  0.3200  1.7387
 6520TIP3    H241052   3.057   5.638  11.051 -1.2748  1.2169 -1.0370
 6521TIP3   OH241053   5.836   3.548  13.284  0.0971  0.0637  0.0668
 6521TIP3    H141054   5.877   3.519  13.366 -0.4999  1.5904  0.9498
 6521TIP3    H241055   5.863   3.483  13.219 -0.0320 -1.6320  1.6299
 6522TIP3   OH241056   4.584   6.439  12.994 -0.1708  0.4273  0.5330
 6522TIP3    H141057   4.678   6.422  12.988  0.1090  0.9704  2.5133
 6522TIP3    H241058   4.577   6.514  13.053 -1.8490  0.2573  0.6010
 6523TIP3   OH241059   6.589   4.545  17.044 -0.4734 -0.2439 -0.3002
 6523TIP3    H141060   6.505   4.586  17.066 -0.2522  0.9254 -1.5096
 6523TIP3    H241061   6.654   4.596  17.092 -0.4248 -1.2922  0.8222
 6524TIP3   OH241062   1.536   2.835  13.796  0.3385 -0.0382 -0.3219
 6524TIP3    H141063   1.527   2.863  13.705 -0.7370 -0.5834 -0.4063
 6524TIP3    H241064   1.496   2.748  13.798  0.6855 -0.1887  0.5942
 6525TIP3   OH241065   0.698   4.723   5.429 -0.1069  0.1935 -0.1429
 6525TIP3    H141066   0.734   4.741   5.343  0.3401 -0.6527 -0.1428
 6525TIP3    H241067   0.766   4.752   5.490  0.7858 -1.6937 -0.1479
 6526TIP3   OH241068   1.649   6.820   5.097  0.0037  0.3205  0.1640
 6526TIP3    H141069   1.716   6.856   5.156  1.2878  0.2724 -1.1957
 6526TIP3    H241070   1.697   6.799   5.017 -1.5819 -0.1596 -0.7002
 6527TIP3   OH241071   5.715   5.510  13.191  0.0660 -0.3472  0.1711
 6527TIP3    H141072   5.691   5.532  13.281 -0.7045 -1.1256  0.1652
 6527TIP3    H241073   5.809   5.494  13.195 -0.0450 -0.8558  0.9420
 6528TIP3   OH241074   4.414   6.500   5.242  0.3500 -0.0378 -0.0099
 6528TIP3    H141075   4.380   6.573   5.294 -0.4964  0.5057 -1.2661
 6528TIP3    H241076   4.373   6.511   5.156  0.1072 -2.0809 -0.1999
 6529TIP3   OH241077   2.305   1.111  16.094 -0.9703  0.0892 -0.2368
 6529TIP3    H141078   2.233   1.088  16.035  0.4823  0.0425 -2.0480
 6529TIP3    H241079   2.341   1.191  16.058 -0.3333  0.3305  0.8877
 6530TIP3   OH241080   1.604   2.715   4.608  0.0123 -0.8244  0.0578
 6530TIP3    H141081   1.602   2.791   4.666 -0.6030 -0.4951 -0.3871
 6530TIP3    H241082   1.535   2.731   4.544  0.6805 -1.1633 -0.7831
 6531TIP3   OH241083   4.831   5.107   1.604  0.0432  0.1382  0.2547
 6531TIP3    H141084   4.823   5.020   1.565  0.3867  0.2518 -0.0711
 6531TIP3    H241085   4.752   5.116   1.658  1.0556 -1.2421  2.0437
 6532TIP3   OH241086   5.466   0.660   2.318 -0.5232 -0.4659  0.1829
 6532TIP3    H141087   5.390   0.637   2.371 -0.0456  0.7745  1.4495
 6532TIP3    H241088   5.504   0.736   2.362  1.3316 -0.9303 -0.5359
 6533TIP3   OH241089   6.655   0.350  17.001 -0.4514  0.3272 -0.4244
 6533TIP3    H141090   6.616   0.371  16.916 -1.8567 -0.5840 -0.0447
 6533TIP3    H241091   6.726   0.289  16.980 -1.3696 -0.6194 -0.9208
 6534TIP3   OH241092   4.912   3.107   2.362  0.3811  0.6346 -0.0148
 6534TIP3    H141093   4.845   3.098   2.294 -0.2266 -1.3266  0.7577
 6534TIP3    H241094   4.870   3.072   2.441  1.6733  1.1815  0.9401
 6535TIP3   OH241095   4.599   6.514  11.809  0.2221 -0.4579 -0.0602
 6535TIP3    H141096   4.579   6.487  11.898 -2.4667  0.2687 -0.3617
 6535TIP3    H241097   4.605   6.432  11.760 -1.5537 -0.8158  0.2363
 6536TIP3   OH241098   5.176   4.218   1.678  0.5019 -0.6271  0.4442
 6536TIP3    H141099   5.095   4.188   1.718 -0.2842  1.2129  0.3469
 6536TIP3    H241100   5.245   4.170   1.723 -0.6415 -2.9452 -0.1047
 6537TIP3   OH241101   1.052   2.786   5.101  0.3280  0.2465 -0.5682
 6537TIP3    H141102   0.979   2.839   5.069  0.3500 -1.3733 -3.6586
 6537TIP3    H241103   1.118   2.793   5.032  1.9905 -0.5556  0.8668
 6538TIP3   OH241104   6.251   2.592   3.696 -0.0268 -0.0110  0.2215
 6538TIP3    H141105   6.292   2.641   3.625 -0.3177  0.3581  0.3062
 6538TIP3    H241106   6.324   2.566   3.752  0.2644 -0.7149 -0.4545
 6539TIP3   OH241107   0.964   1.538   6.179 -0.5018 -0.1424 -0.1598
 6539TIP3    H141108   0.921   1.597   6.242  0.0945  0.1102  0.0126
 6539TIP3    H241109   0.932   1.569   6.093  1.0975  1.5577 -0.2088
 6540TIP3   OH241110   0.175   4.101  14.489  0.2458  0.2978  0.5742
 6540TIP3    H141111   0.094   4.138  14.524 -0.0106  0.2868 -0.0024
 6540TIP3    H241112   0.180   4.013  14.527  0.0683  0.3561  0.7312
 6541TIP3   OH241113   1.313   0.097   5.644 -0.2270 -0.0767 -0.2117
 6541TIP3    H141114   1.358   0.176   5.676  0.7580 -1.3611  1.7666
 6541TIP3    H241115   1.221   0.112   5.667  0.1582 -0.0656  1.5101
 6542TIP3   OH241116   6.656   6.028  14.509  0.2506  0.1923  1.1436
 6542TIP3    H141117   6.719   5.995  14.445 -0.2374 -0.6657  1.0825
 6542TIP3    H241118   6.605   5.951  14.533 -2.9838  1.3521 -1.2602
 6543TIP3   OH241119   5.771   0.142  15.133 -0.5382 -0.4719 -0.1264
 6543TIP3    H141120   5.804   0.217  15.181 -0.6675 -0.2149 -0.4348
 6543TIP3    H241121   5.835   0.072  15.150 -0.6480 -0.4212  0.5097
 6544TIP3   OH241122   6.074   3.086   2.529 -0.5112  0.6259  0.5260
 6544TIP3    H141123   6.036   3.065   2.614  0.6711  0.6042  1.0636
 6544TIP3    H241124   6.014   3.047   2.466 -1.4527  0.7200  1.3367
 6545TIP3   OH241125   4.173   1.925  13.947 -0.3432 -0.0311  0.1684
 6545TIP3    H141126   4.246   1.966  13.994 -0.7770  1.2137 -0.2143
 6545TIP3    H241127   4.200   1.928  13.855 -0.9957  0.7243 -0.0090
 6546TIP3   OH241128   1.410   2.959  16.678  0.2700 -0.3044 -0.2848
 6546TIP3    H141129   1.373   3.041  16.645  1.9123 -0.1031 -1.7928
 6546TIP3    H241130   1.371   2.891  16.622 -1.7038 -0.7058  1.4754
 6547TIP3   OH241131   0.312   5.100   1.538 -0.1517 -0.1346 -0.8111
 6547TIP3    H141132   0.249   5.161   1.575  1.2016  0.3649  0.8054
 6547TIP3    H241133   0.392   5.151   1.527 -0.0319 -0.6741 -3.0761
 6548TIP3   OH241134   3.534   4.298   4.697  0.4386 -0.3120 -0.2371
 6548TIP3    H141135   3.550   4.279   4.604  1.1212 -0.5008 -0.0784
 6548TIP3    H241136   3.615   4.274   4.741  0.3932  0.5104  0.3115
 6549TIP3   OH241137   3.704   1.951  12.385 -0.0231  0.0563 -0.4123
 6549TIP3    H141138   3.742   1.890  12.323  0.3478  1.1643 -1.3171
 6549TIP3    H241139   3.610   1.932  12.383 -0.1502  0.6616 -2.0268
 6550TIP3   OH241140   4.406   0.113  17.031  0.1066 -0.3335 -1.1041
 6550TIP3    H141141   4.478   0.159  16.989  0.3884  0.5575  0.2883
 6550TIP3    H241142   4.360   0.180  17.082 -0.2352 -1.3495 -0.0301
 6551TIP3   OH241143   6.469   1.404   3.292 -0.7886 -0.0367 -0.1775
 6551TIP3    H141144   6.480   1.350   3.370  0.0441  1.1683  0.5778
 6551TIP3    H241145   6.559   1.417   3.260 -1.0037  0.6611 -0.5075
 6552TIP3   OH241146   6.810   6.647   0.773  0.2991 -0.1513  0.0534
 6552TIP3    H141147   6.743   6.678   0.711 -0.5500  0.0881  1.0664
 6552TIP3    H241148   6.825   6.722   0.831  2.7057  0.4115 -1.1425
 6553TIP3   OH241149   0.916   6.152   6.338 -0.4052 -0.8927 -0.9790
 6553TIP3    H141150   0.978   6.225   6.334 -1.5256  0.4314  2.4047
 6553TIP3    H241151   0.968   6.078   6.369 -0.0954 -0.3215 -0.0907
 6554TIP3   OH241152   1.815   3.623   1.814  0.0155 -0.6121 -0.9740
 6554TIP3    H141153   1.751   3.675   1.864  1.4458 -0.6725  1.0075
 6554TIP3    H241154   1.764   3.549   1.780 -1.2163 -0.0121 -0.5099
 6555TIP3   OH241155   3.990   6.512   0.024  0.6384 -0.3610 -0.0563
 6555TIP3    H141156   3.903   6.474   0.035  1.1919 -1.2614  1.4391
 6555TIP3    H241157   4.048   6.456   0.075  2.1843 -0.0216 -1.3462
 6556TIP3   OH241158   4.469   6.250  13.738 -0.2783 -0.0539  0.1802
 6556TIP3    H141159   4.402   6.264  13.671 -0.9893 -0.5360  0.7772
 6556TIP3    H241160   4.481   6.155  13.740 -0.0194 -0.0142  0.5021
 6557TIP3   OH241161   1.730   2.784   0.352  0.2019 -0.0459 -0.0918
 6557TIP3    H141162   1.711   2.851   0.417  1.8803 -0.5615  1.0041
 6557TIP3    H241163   1.723   2.829   0.268 -0.2801  1.0810  0.5402
 6558TIP3   OH241164   2.255   6.446  10.884 -0.1547  0.3175 -0.1869
 6558TIP3    H141165   2.233   6.461  10.792  2.2623  1.0065 -0.7366
 6558TIP3    H241166   2.280   6.354  10.888 -0.7116  0.1668 -0.1018
 6559TIP3   OH241167   3.250   6.712  11.426  0.3254  0.6571 -0.2269
 6559TIP3    H141168   3.256   6.671  11.339 -0.1345 -0.9586  0.4714
 6559TIP3    H241169   3.157   6.728  11.438  0.2243 -0.3935  0.5102
 6560TIP3   OH241170   3.407   3.576  12.645 -0.0568  0.2866 -0.3114
 6560TIP3    H141171   3.397   3.670  12.630  0.2759  0.3452 -0.1728
 6560TIP3    H241172   3.342   3.555  12.712 -1.6682 -0.0089 -1.9155
 6561TIP3   OH241173   6.335   3.008   3.772  0.3628  0.7551  0.1739
 6561TIP3    H141174   6.357   2.979   3.683  1.5920 -0.0132  0.7030
 6561TIP3    H241175   6.281   3.086   3.759  0.3408  0.5294 -1.2447
 6562TIP3   OH241176   1.334   1.112   5.186 -0.3486 -0.5171  0.2868
 6562TIP3    H141177   1.308   1.043   5.125  0.6278 -0.8934  0.2781
 6562TIP3    H241178   1.330   1.070   5.272 -0.0292 -0.5073  0.3081
 6563TIP3   OH241179   2.318   6.211  14.022 -0.2939 -0.1688 -0.0805
 6563TIP3    H141180   2.252   6.190  13.957 -0.9618  1.0541  0.1755
 6563TIP3    H241181   2.341   6.302  14.004  2.4792 -0.9423 -1.1545
 6564TIP3   OH241182   5.067   0.473  11.196 -0.3417 -0.1323 -0.0285
 6564TIP3    H141183   5.135   0.405  11.198 -1.1488 -0.9935 -0.7781
 6564TIP3    H241184   5.073   0.511  11.109 -0.0958  0.5634  0.2862
 6565TIP3   OH241185   0.853   4.736   5.666 -0.1098  0.1996  0.1826
 6565TIP3    H141186   0.933   4.685   5.680 -1.1892 -1.9718 -1.1718
 6565TIP3    H241187   0.876   4.796   5.594  0.0953 -1.0030 -0.7879
 6566TIP3   OH241188   5.509   5.510   2.353  0.0499 -0.5318 -0.1243
 6566TIP3    H141189   5.416   5.527   2.337  0.5445  1.5862 -1.1338
 6566TIP3    H241190   5.529   5.558   2.434  0.9215  1.9739 -1.6890
 6567TIP3   OH241191   5.691   4.659   1.331 -0.2661 -0.2780 -0.2409
 6567TIP3    H141192   5.650   4.741   1.359 -1.2249 -0.9518  0.3843
 6567TIP3    H241193   5.631   4.590   1.361 -0.1829 -1.1549 -1.9160
 6568TIP3   OH241194   3.641   4.394  12.992  0.0738 -0.1478 -0.2450
 6568TIP3    H141195   3.713   4.454  13.014 -0.8714  1.8661 -2.2539
 6568TIP3    H241196   3.676   4.340  12.921  0.3465 -0.8252  0.3893
 6569TIP3   OH241197   0.285   2.022   1.289 -0.6225 -0.6011  0.1777
 6569TIP3    H141198   0.207   2.051   1.242  0.4634  1.7389 -0.3084
 6569TIP3    H241199   0.294   2.085   1.361  1.5081 -0.0279 -0.5265
 6570TIP3   OH241200   2.183   3.389   1.479  0.3905 -0.8378  0.1254
 6570TIP3    H141201   2.105   3.390   1.535  1.1259  0.0267  1.1812
 6570TIP3    H241202   2.252   3.428   1.534  1.2015 -0.2013 -1.2973
 6571TIP3   OH241203   3.429   3.943   1.489 -0.0284  0.7155 -0.6910
 6571TIP3    H141204   3.453   3.863   1.442 -1.0165 -1.0173  1.5617
 6571TIP3    H241205   3.334   3.941   1.494 -0.0049  1.4158  0.4100
 6572TIP3   OH241206   2.580   6.048   1.923  0.2954  1.0688  0.5526
 6572TIP3    H141207   2.673   6.026   1.925 -0.1268 -0.8759  2.2937
 6572TIP3    H241208   2.546   6.003   1.846  0.5021  0.2739  0.9105
 6573TIP3   OH241209   6.425   1.984   1.928 -0.0808 -0.4858 -0.3295
 6573TIP3    H141210   6.347   1.947   1.886 -0.8680  1.7296 -0.9447
 6573TIP3    H241211   6.496   1.969   1.866 -0.9662  1.5470 -1.9200
 6574TIP3   OH241212   1.279   4.837  11.222 -0.7128  1.0031 -0.0586
 6574TIP3    H141213   1.289   4.897  11.148 -0.4066  0.4816 -0.4504
 6574TIP3    H241214   1.307   4.888  11.298  0.0766  1.1915 -0.4605
 6575TIP3   OH241215   5.341   4.281   0.928 -0.5706  0.2651 -0.3372
 6575TIP3    H141216   5.292   4.358   0.899 -0.3437  0.7291  0.4546
 6575TIP3    H241217   5.381   4.309   1.010  0.4784 -0.3230 -0.6360
 6576TIP3   OH241218   2.217   3.038  13.768 -0.0636 -0.3034 -0.1424
 6576TIP3    H141219   2.302   3.008  13.737  0.5391 -0.7804  1.8183
 6576TIP3    H241220   2.160   3.033  13.692  1.3587 -1.1638 -1.1957
 6577TIP3   OH241221   0.001   4.744   2.010 -0.2407 -0.1563  0.3059
 6577TIP3    H141222  -0.046   4.710   1.934  0.4422 -1.5850  0.4792
 6577TIP3    H241223  -0.012   4.839   2.006 -1.5443 -0.3467 -0.6833
 6578TIP3   OH241224   1.952   3.828   0.479  0.2287 -0.4808  0.1776
 6578TIP3    H141225   2.040   3.831   0.516  0.3338 -2.2319  0.1322
 6578TIP3    H241226   1.950   3.749   0.425 -1.1964 -0.1695 -0.2833
 6579TIP3   OH241227   6.380   2.559   5.554 -0.0278  0.4649 -0.4720
 6579TIP3    H141228   6.291   2.524   5.547  0.6476 -1.3004 -0.7579
 6579TIP3    H241229   6.435   2.490   5.519  1.5643  1.1028  0.6781
 6580TIP3   OH241230   2.122   2.307  16.565 -0.6217  0.0378  0.3609
 6580TIP3    H141231   2.122   2.351  16.650 -0.0860  0.3183  0.2141
 6580TIP3    H241232   2.210   2.272  16.555 -1.3906 -2.2645  1.0794
 6581TIP3   OH241233   3.730   3.801  14.420 -0.1143 -0.1547 -0.1977
 6581TIP3    H141234   3.729   3.706  14.409 -0.0301  0.0391 -2.2332
 6581TIP3    H241235   3.789   3.833  14.351 -0.3556  1.3991  0.2665
 6582TIP3   OH241236   1.917   5.907   6.045  0.3840  0.0999 -0.1280
 6582TIP3    H141237   1.859   5.840   6.009 -0.8092  1.0414 -0.0264
 6582TIP3    H241238   1.896   5.909   6.139  1.1375 -0.0756  0.0521
 6583TIP3   OH241239   0.867   2.702   2.432  0.5607 -0.4626 -0.4150
 6583TIP3    H141240   0.907   2.696   2.519 -1.1803 -0.8719  0.4084
 6583TIP3    H241241   0.828   2.790   2.430  3.0903  0.7589 -2.0050
 6584TIP3   OH241242   0.486   1.249  12.148  0.6916  0.3242  0.1744
 6584TIP3    H141243   0.529   1.190  12.086  0.0162 -0.5941  0.5526
 6584TIP3    H241244   0.489   1.335  12.105 -0.1040 -0.3516 -1.3424
 6585TIP3   OH241245   0.138   1.303   4.457  0.0828  0.1807 -0.1212
 6585TIP3    H141246   0.191   1.223   4.460 -0.2174 -0.0401 -0.5122
 6585TIP3    H241247   0.198   1.373   4.483  1.1492  0.2212 -2.3821
 6586TIP3   OH241248   3.778   5.825  14.742 -0.6674 -0.7768 -0.2002
 6586TIP3    H141249   3.844   5.782  14.797 -0.2168 -2.1036 -1.6958
 6586TIP3    H241250   3.749   5.901  14.793  2.4640  0.2310  0.2804
 6587TIP3   OH241251   2.348   0.457   0.221  0.1406  0.5046 -0.0609
 6587TIP3    H141252   2.435   0.463   0.181 -0.1019 -0.5240 -0.7752
 6587TIP3    H241253   2.293   0.511   0.165 -0.1247 -0.6474 -0.9423
 6588TIP3   OH241254   5.668   6.353   1.691  0.0630  0.2392  0.5930
 6588TIP3    H141255   5.695   6.397   1.610  1.4764  0.1159  0.9751
 6588TIP3    H241256   5.576   6.377   1.702  0.4043  1.9127  0.0263
 6589TIP3   OH241257   3.107   1.611   1.204 -0.7207  0.3377  0.4370
 6589TIP3    H141258   3.088   1.569   1.120 -0.0491 -1.4558  1.1303
 6589TIP3    H241259   3.026   1.657   1.226 -0.9490  0.7539 -1.1141
 6590TIP3   OH241260   5.541   3.150  13.102  0.2303  0.5324 -0.6849
 6590TIP3    H141261   5.557   3.207  13.026  0.6714  1.4490  0.0720
 6590TIP3    H241262   5.588   3.069  13.081  1.5597  1.2912 -0.7866
 6591TIP3   OH241263   1.751   1.053  12.353 -0.5504  0.6910 -0.4286
 6591TIP3    H141264   1.803   1.004  12.289 -0.0781 -1.3067  1.3765
 6591TIP3    H241265   1.667   1.068  12.309 -0.2240 -0.5269 -1.5481
 6592TIP3   OH241266   1.162   0.754  16.250 -0.2027  0.2146  0.6632
 6592TIP3    H141267   1.229   0.802  16.201 -0.3241 -1.6881 -1.5279
 6592TIP3    H241268   1.210   0.685  16.296 -0.3993  0.4153  1.1837
 6593TIP3   OH241269   6.437   6.777   5.263  0.1376  0.0660  0.2210
 6593TIP3    H141270   6.511   6.735   5.308 -0.1733  0.1413  0.8090
 6593TIP3    H241271   6.404   6.840   5.327  0.1744  0.7248 -0.4006
 6594TIP3   OH241272   4.052   1.987  15.939 -0.0986  0.4444 -0.0063
 6594TIP3    H141273   4.120   2.036  15.894  1.8592 -1.8363  0.2338
 6594TIP3    H241274   4.064   2.008  16.032  0.8513 -0.5470  0.1129
 6595TIP3   OH241275   3.953   5.177   0.151 -0.4320  0.3621  0.1759
 6595TIP3    H141276   3.993   5.214   0.230  0.7772  0.4491 -0.4585
 6595TIP3    H241277   3.859   5.180   0.169 -0.2293  1.2377  1.2442
 6596TIP3   OH241278   2.182   1.905   5.486 -0.2434  0.2803  0.2493
 6596TIP3    H141279   2.092   1.890   5.455  0.0419  0.2304 -0.5929
 6596TIP3    H241280   2.187   1.857   5.568 -0.6658 -0.6628 -0.2498
 6597TIP3   OH241281   4.260   0.883   4.979  0.6794 -0.3489  0.1538
 6597TIP3    H141282   4.203   0.817   4.940  0.7961 -0.1024 -0.4361
 6597TIP3    H241283   4.242   0.963   4.930  0.7358 -0.0015  0.6873
 6598TIP3   OH241284   1.238   2.726   3.203  0.5197  0.2792 -0.1016
 6598TIP3    H141285   1.311   2.703   3.261  0.4611  1.0175  0.2695
 6598TIP3    H241286   1.166   2.669   3.231  0.1159  1.4827  1.3812
 6599TIP3   OH241287   1.944   3.658  15.038 -0.1784 -0.1270  0.0581
 6599TIP3    H141288   2.017   3.705  14.997  0.0686 -1.0942 -0.6447
 6599TIP3    H241289   1.919   3.592  14.974 -1.7779  0.2691  0.2425
 6600TIP3   OH241290   0.487   2.666  16.029 -0.2378 -0.3238  0.0279
 6600TIP3    H141291   0.495   2.641  15.937  2.8170  0.2439  0.0373
 6600TIP3    H241292   0.568   2.635  16.069 -0.3894  1.5856  1.9859
 6601TIP3   OH241293   4.652   0.475  16.315  0.0965  0.3314 -0.6376
 6601TIP3    H141294   4.606   0.503  16.394 -1.7673  2.9797 -2.4761
 6601TIP3    H241295   4.742   0.505  16.328  0.1797 -0.4987  0.9879
 6602TIP3   OH241296   5.094   4.047   4.245 -0.2408 -0.2327  0.5417
 6602TIP3    H141297   5.037   4.002   4.182 -0.2485 -2.0760  1.8009
 6602TIP3    H241298   5.183   4.023   4.218 -0.1503  0.6377  0.0418
 6603TIP3   OH241299   6.231   1.032  10.806  0.1903 -0.5625 -0.7668
 6603TIP3    H141300   6.268   0.960  10.858 -0.8746 -0.8477 -0.3901
 6603TIP3    H241301   6.259   1.014  10.716 -0.5291 -1.7455 -0.7575
 6604TIP3   OH241302   2.617   0.765  11.023 -0.2572 -0.3514  0.4906
 6604TIP3    H141303   2.568   0.727  11.097 -3.5440  3.4246  0.6174
 6604TIP3    H241304   2.554   0.766  10.951  0.7456  1.5780 -0.4480
 6605TIP3   OH241305   5.051   0.318   2.587  0.2307 -0.4799 -0.6589
 6605TIP3    H141306   4.979   0.370   2.551 -0.3436  0.4855  1.6471
 6605TIP3    H241307   5.009   0.238   2.617  0.1563 -0.0941  0.3078
 6606TIP3   OH241308   5.321   4.600   2.142  0.8553  0.0589  0.2925
 6606TIP3    H141309   5.252   4.635   2.198  1.4679  2.7645 -0.4877
 6606TIP3    H241310   5.402   4.641   2.173  1.8531 -1.5198 -0.0521
 6607TIP3   OH241311   1.630   3.739  14.177 -0.4741  0.1823  0.0456
 6607TIP3    H141312   1.556   3.709  14.230 -0.3196  2.2522  1.5990
 6607TIP3    H241313   1.707   3.702  14.220 -0.5128 -2.2388 -1.7584
 6608TIP3   OH241314   5.617   5.078   5.136 -0.6278  0.1531 -0.3313
 6608TIP3    H141315   5.681   5.148   5.123  0.9013 -1.3199 -1.1414
 6608TIP3    H241316   5.670   5.000   5.153 -2.1614 -1.3195 -1.9493
 6609TIP3   OH241317   6.286   6.421  15.763  0.5520  0.2375  0.2550
 6609TIP3    H141318   6.277   6.352  15.697  3.0035 -0.4857  0.5772
 6609TIP3    H241319   6.250   6.383  15.843  0.5777 -0.1303  0.0940
 6610TIP3   OH241320   0.717   5.973   5.899  0.3794 -0.4269 -0.7429
 6610TIP3    H141321   0.645   6.035   5.913  1.9183  0.8548  2.4421
 6610TIP3    H241322   0.712   5.913   5.974 -0.0758 -3.3180 -2.8987
 6611TIP3   OH241323   3.733   1.616   2.249 -0.3551  0.2065 -0.1688
 6611TIP3    H141324   3.699   1.540   2.201  0.1780 -1.5632  2.0517
 6611TIP3    H241325   3.655   1.661   2.281 -0.6756  0.5900 -1.4207
 6612TIP3   OH241326   4.798   2.507  13.768 -0.0709 -0.5242  0.2675
 6612TIP3    H141327   4.891   2.509  13.748 -0.4019  0.3917 -1.3568
 6612TIP3    H241328   4.761   2.447  13.702 -0.5548 -1.4193  1.3272
 6613TIP3   OH241329   6.669   4.885   3.891  0.3632  0.2690 -0.5432
 6613TIP3    H141330   6.644   4.940   3.965 -1.0632  2.0561 -2.2409
 6613TIP3    H241331   6.736   4.936   3.844  1.2767 -0.8454 -0.5011
 6614TIP3   OH241332   3.814   1.585  12.443  0.7246 -0.2474  0.8985
 6614TIP3    H141333   3.723   1.587  12.416  1.1392 -1.9745 -0.8050
 6614TIP3    H241334   3.816   1.524  12.518  0.4098  0.2658  1.3310
 6615TIP3   OH241335   4.995   3.706   1.836 -0.2254  0.5286  0.4353
 6615TIP3    H141336   5.087   3.683   1.825  0.2386  1.6781  1.6406
 6615TIP3    H241337   4.964   3.724   1.747  0.4772 -0.6505 -0.0738
 6616TIP3   OH241338   1.666   1.518   2.703 -0.0071  0.2400 -0.3686
 6616TIP3    H141339   1.572   1.511   2.684 -0.3082  2.7661 -0.1309
 6616TIP3    H241340   1.703   1.560   2.626  0.7782  0.1296 -0.0578
 6617TIP3   OH241341   4.167   6.760  11.503  0.1573 -0.0616 -0.4968
 6617TIP3    H141342   4.212   6.786  11.422  0.0364  0.5994 -0.3573
 6617TIP3    H241343   4.083   6.725  11.473 -0.3459  1.1943 -0.6011
 6618TIP3   OH241344   4.695   3.009   6.170  0.8516 -0.1814  0.4952
 6618TIP3    H141345   4.745   2.965   6.101 -1.5893 -1.2255 -0.7348
 6618TIP3    H241346   4.678   2.940   6.235 -1.7039 -0.8024 -0.7137
 6619TIP3   OH241347   6.821   4.784   6.040 -0.7825 -0.2046  0.1209
 6619TIP3    H141348   6.813   4.712   6.102 -1.5587  1.1821  1.7228
 6619TIP3    H241349   6.730   4.809   6.020 -0.5310  0.0466 -0.7813
 6620TIP3   OH241350   4.442   6.620  11.545  0.0785 -0.2989  0.1377
 6620TIP3    H141351   4.465   6.655  11.631 -2.0639 -0.2515  0.7579
 6620TIP3    H241352   4.347   6.608  11.549  0.0075 -0.8744 -2.0227
 6621TIP3   OH241353   0.428   4.610   1.085 -0.1526  0.2130 -0.1802
 6621TIP3    H141354   0.421   4.698   1.121  0.0302  0.3996 -0.5961
 6621TIP3    H241355   0.346   4.596   1.038 -0.2094  0.1390 -0.0571
 6622TIP3   OH241356   6.748   0.453  14.164 -0.1812  0.1855 -0.5783
 6622TIP3    H141357   6.747   0.529  14.106 -1.6218  2.3895  2.0667
 6622TIP3    H241358   6.662   0.413  14.152  0.7151 -1.3780 -2.2526
 6623TIP3   OH241359   1.211   5.648  16.861 -0.0844 -0.2113  0.0521
 6623TIP3    H141360   1.285   5.597  16.894  0.9870  0.3763 -1.3224
 6623TIP3    H241361   1.218   5.732  16.907 -1.5557 -1.0377  1.9407
 6624TIP3   OH241362   0.621   1.579   0.179 -0.2766  0.3104  0.3582
 6624TIP3    H141363   0.540   1.581   0.229 -0.6489 -2.6252  0.0596
 6624TIP3    H241364   0.678   1.643   0.222 -2.1483  1.2550  1.5759
 6625TIP3   OH241365   5.648   3.846   4.269  0.5345  0.6409 -0.0137
 6625TIP3    H141366   5.605   3.844   4.354  1.8044  0.1850  0.6424
 6625TIP3    H241367   5.692   3.761   4.262  1.8713  1.3288 -0.3527
 6626TIP3   OH241368   3.367   0.370  13.590  0.0234 -0.5821  0.1015
 6626TIP3    H141369   3.293   0.310  13.587  1.5565 -2.5488 -0.2153
 6626TIP3    H241370   3.428   0.331  13.653  0.2823  1.6797  1.3784
 6627TIP3   OH241371   3.029   1.010   2.394 -0.3389  0.4282 -0.1999
 6627TIP3    H141372   3.019   1.028   2.301  0.0165 -0.2187 -0.3717
 6627TIP3    H241373   2.983   0.927   2.407  1.0144 -0.3347 -0.1332
 6628TIP3   OH241374   1.322   0.051   1.039  0.1998 -0.0346 -0.1625
 6628TIP3    H141375   1.369  -0.003   0.975  2.7750  0.4031  1.2342
 6628TIP3    H241376   1.310  -0.006   1.115  1.2966  0.7862  0.6441
 6629TIP3   OH241377   0.936   1.268   2.592 -0.1309 -0.5531  0.4355
 6629TIP3    H141378   1.000   1.207   2.555  2.1270  1.0858  1.4201
 6629TIP3    H241379   0.903   1.317   2.517  2.0980  0.6319  0.1371
 6630TIP3   OH241380   3.057   2.612  12.655  0.0488  0.2101 -0.4176
 6630TIP3    H141381   3.000   2.628  12.579 -0.2974 -1.9216 -0.6921
 6630TIP3    H241382   3.009   2.647  12.729  0.8462  3.2803 -1.2264
 6631TIP3   OH241383   2.280   4.941  14.674 -0.0882 -0.7325  0.1064
 6631TIP3    H141384   2.350   5.001  14.649 -2.2231  1.4003 -1.1664
 6631TIP3    H241385   2.261   4.963  14.765  0.9438 -1.4629  0.5255
 6632TIP3   OH241386   3.887   1.815   0.125  0.1955  0.0391  0.0840
 6632TIP3    H141387   3.842   1.900   0.122 -1.1801 -0.6933 -0.8272
 6632TIP3    H241388   3.978   1.837   0.145 -0.1566  1.7214 -0.0395
 6633TIP3   OH241389   3.314   3.170  15.304 -0.4058  0.3551 -0.5906
 6633TIP3    H141390   3.230   3.123  15.301  0.2410 -0.9624  0.5839
 6633TIP3    H241391   3.290   3.261  15.290 -2.2935  0.2655  1.4010
 6634TIP3   OH241392   3.286   1.808   5.148  0.0797  0.3472  0.3539
 6634TIP3    H141393   3.321   1.780   5.063 -0.7631 -0.2617  0.1941
 6634TIP3    H241394   3.220   1.742   5.170 -0.0538  0.7634  1.2547
 6635TIP3   OH241395   4.698   1.176  13.841 -0.4926  0.0398  0.6154
 6635TIP3    H141396   4.761   1.118  13.799 -1.0721 -0.5573  0.5492
 6635TIP3    H241397   4.740   1.263  13.839 -1.2258  0.4709 -2.8910
 6636TIP3   OH241398   0.777   2.836   4.104  0.0681 -0.4947 -0.4134
 6636TIP3    H141399   0.809   2.746   4.105 -0.5370 -0.7601  1.8866
 6636TIP3    H241400   0.794   2.868   4.192 -1.0651  1.1556 -0.7487
 6637TIP3   OH241401   4.103   0.269  16.470 -0.2546  0.6743 -0.2746
 6637TIP3    H141402   4.162   0.207  16.427 -0.2627 -0.5255  1.3187
 6637TIP3    H241403   4.145   0.354  16.459  1.2362 -0.0006 -0.1129
 6638TIP3   OH241404   0.231   2.324   1.723 -0.5261  0.2194  0.2716
 6638TIP3    H141405   0.170   2.289   1.658 -0.5117  1.0508 -0.2116
 6638TIP3    H241406   0.318   2.299   1.690 -0.3358  2.7507 -1.4425
 6639TIP3   OH241407   4.489   3.050  16.012 -0.1264 -0.3575  0.0252
 6639TIP3    H141408   4.413   3.107  16.003 -0.1018 -0.3168  0.0732
 6639TIP3    H241409   4.550   3.080  15.945  0.6378  0.8750  1.2134
 6640TIP3   OH241410   1.467   0.029  12.158 -0.7417 -0.1371  0.3761
 6640TIP3    H141411   1.404   0.047  12.228  0.8232  0.4978  1.6862
 6640TIP3    H241412   1.538   0.092  12.172  0.2383 -0.8670 -1.0007
 6641TIP3   OH241413   2.543   3.624   5.369 -0.3301  0.2816  0.3635
 6641TIP3    H141414   2.505   3.616   5.457 -1.5282  2.3269  0.0658
 6641TIP3    H241415   2.614   3.687   5.380 -2.5198  3.1173 -0.6525
 6642TIP3   OH241416   0.513   5.563   5.274 -0.1449  0.2838 -0.2920
 6642TIP3    H141417   0.528   5.551   5.367  0.2108  2.4909  0.0036
 6642TIP3    H241418   0.599   5.556   5.234  0.0086  1.2110 -0.1638
 6643TIP3   OH241419   3.847   3.706   5.076 -0.0169  0.0843 -0.5319
 6643TIP3    H141420   3.813   3.791   5.049  0.3614  0.1885 -0.6898
 6643TIP3    H241421   3.932   3.699   5.031  0.6363  0.2610  0.6216
 6644TIP3   OH241422   4.246   1.955  11.174 -0.1572  0.6948 -0.2879
 6644TIP3    H141423   4.317   1.991  11.121  1.4566 -1.0211  0.5808
 6644TIP3    H241424   4.244   2.011  11.252  0.6939  0.3907 -0.0333
 6645TIP3   OH241425   6.193   1.332  16.052  0.4584  0.4518  0.5348
 6645TIP3    H141426   6.203   1.242  16.082  1.2712  0.3129 -0.1146
 6645TIP3    H241427   6.251   1.383  16.109  1.6508  0.2515 -0.4684
 6646TIP3   OH241428   6.224   4.052   0.208  0.1864 -0.4853  0.3243
 6646TIP3    H141429   6.272   3.996   0.270  0.3115 -2.9356 -1.8027
 6646TIP3    H241430   6.148   3.999   0.183 -1.4278  1.6238  0.4889
 6647TIP3   OH241431   4.204   4.568   2.882 -0.1503 -0.2763  0.4400
 6647TIP3    H141432   4.178   4.637   2.943 -1.3113 -0.7991  0.5623
 6647TIP3    H241433   4.201   4.487   2.934  0.5527 -0.5084  0.1325
 6648TIP3   OH241434   5.879   4.573  11.690 -0.5517  0.0203 -0.4034
 6648TIP3    H141435   5.840   4.496  11.732 -0.4372 -0.4008 -1.0417
 6648TIP3    H241436   5.840   4.573  11.602  1.4716 -0.9040 -1.3762
 6649TIP3   OH241437   2.315   3.766  13.028 -0.9028  0.1355  0.2846
 6649TIP3    H141438   2.405   3.734  13.026 -0.8197  0.3946 -0.3503
 6649TIP3    H241439   2.315   3.843  12.971 -1.0134  1.5174  2.0580
 6650TIP3   OH241440   6.669   2.013   0.500 -0.1138 -0.2048  0.0702
 6650TIP3    H141441   6.740   2.061   0.543  0.0479 -0.9345  0.6439
 6650TIP3    H241442   6.590   2.049   0.539 -0.1016  0.8844 -0.8503
 6651TIP3   OH241443   1.417   0.018  16.706 -0.4964 -0.4981  0.7030
 6651TIP3    H141444   1.508   0.045  16.701 -0.8383  0.6425  0.3570
 6651TIP3    H241445   1.420  -0.078  16.700  0.6240 -0.4338 -0.0012
 6652TIP3   OH241446   6.584   0.934  14.413 -0.2044  0.2620  0.1576
 6652TIP3    H141447   6.652   0.901  14.473 -1.1910 -0.1985  1.0700
 6652TIP3    H241448   6.505   0.884  14.438 -0.4115 -0.7344 -2.2540
 6653TIP3   OH241449   4.907   1.165  14.129  1.0655 -0.3421  0.0772
 6653TIP3    H141450   4.820   1.193  14.101  0.6206 -0.9259  0.8289
 6653TIP3    H241451   4.898   1.150  14.223  2.4657  1.3834  0.5323
 6654TIP3   OH241452   5.857   3.306   1.269 -0.1389  0.5849 -0.1238
 6654TIP3    H141453   5.914   3.239   1.230  0.3203  2.1624 -2.4038
 6654TIP3    H241454   5.773   3.261   1.281  1.1510 -1.4761  2.2667
 6655TIP3   OH241455   0.745   6.195  15.840  0.4044  0.2058  0.0074
 6655TIP3    H141456   0.683   6.129  15.871 -1.1225  1.0847 -1.0093
 6655TIP3    H241457   0.696   6.277  15.844  1.6694  1.0131 -0.4376
 6656TIP3   OH241458   3.203   4.179  16.453  0.3637 -0.3915  0.0824
 6656TIP3    H141459   3.155   4.203  16.374  1.2423 -1.3074 -0.7645
 6656TIP3    H241460   3.158   4.225  16.524 -1.5112 -0.9388 -0.7132
 6657TIP3   OH241461   6.305   4.945   3.495  0.2760  0.0777 -0.2385
 6657TIP3    H141462   6.323   4.894   3.574  1.8292 -0.2470 -0.7734
 6657TIP3    H241463   6.210   4.946   3.488  0.1290 -0.3270  1.3470
 6658TIP3   OH241464   3.508   5.531  11.045  0.9329  0.2212 -0.6599
 6658TIP3    H141465   3.447   5.487  10.985  1.8080  0.3507 -1.6708
 6658TIP3    H241466   3.575   5.568  10.988  1.9694  0.0739  0.4298
 6659TIP3   OH241467   1.502   0.230   4.825 -0.0907  0.1735  0.1047
 6659TIP3    H141468   1.507   0.191   4.913 -2.2720 -0.4446  0.0152
 6659TIP3    H241469   1.451   0.167   4.775  1.5800  0.2542 -1.7998
 6660TIP3   OH241470   1.382   5.800  13.521  0.0274 -0.2507 -0.7578
 6660TIP3    H141471   1.296   5.788  13.481 -0.0641  1.1502 -1.0288
 6660TIP3    H241472   1.444   5.785  13.449 -0.1181  1.6575 -1.3409
 6661TIP3   OH241473   6.689   1.390  12.026  0.4589 -0.2428  0.3270
 6661TIP3    H141474   6.669   1.302  12.058  0.3535 -0.5694 -0.5963
 6661TIP3    H241475   6.785   1.394  12.025  0.4626 -0.1504  0.8812
 6662TIP3   OH241476   3.502   1.764   2.314 -0.7589  0.7406  0.1483
 6662TIP3    H141477   3.513   1.854   2.283  0.1590 -0.1702 -2.3654
 6662TIP3    H241478   3.417   1.765   2.359 -1.6066  2.4794 -1.3571
 6663TIP3   OH241479   5.201   6.669  12.464 -0.3524  0.6572 -0.6716
 6663TIP3    H141480   5.140   6.684  12.535  0.3646 -0.2214  0.1704
 6663TIP3    H241481   5.165   6.718  12.390 -1.0141  1.7453  0.3334
 6664TIP3   OH241482   1.732   5.481  12.528  0.0759  0.3545 -0.1899
 6664TIP3    H141483   1.813   5.526  12.506 -0.5907  1.3204 -0.7678
 6664TIP3    H241484   1.716   5.422  12.454 -2.1138  3.5276 -2.5293
 6665TIP3   OH241485   1.787   3.404  13.382 -0.4461  0.0217 -0.1158
 6665TIP3    H141486   1.819   3.387  13.471  0.3484 -0.6224 -0.5176
 6665TIP3    H241487   1.783   3.318  13.341  0.6928  0.4529 -1.2022
 6666TIP3   OH241488   2.246   1.459   3.419  0.5540 -0.2318 -0.4596
 6666TIP3    H141489   2.216   1.428   3.333 -0.6691  1.3324 -0.6411
 6666TIP3    H241490   2.220   1.390   3.480 -1.2215 -0.0584 -0.9714
 6667TIP3   OH241491   2.060   2.641   1.005 -0.5560  0.1257  0.0135
 6667TIP3    H141492   1.968   2.645   0.981 -0.0700  1.4874 -1.9025
 6667TIP3    H241493   2.090   2.732   1.001  0.8855 -0.2852  0.5666
 6668TIP3   OH241494   0.747   0.463   3.264 -0.0801  0.8424 -0.1053
 6668TIP3    H141495   0.697   0.419   3.195  0.9815  0.6511 -0.7652
 6668TIP3    H241496   0.698   0.445   3.344  0.0449 -1.1215 -0.4264
 6669TIP3   OH241497   1.273   6.558  14.486 -0.0148  0.2266 -0.3043
 6669TIP3    H141498   1.258   6.624  14.418  0.7443  1.3275  0.5743
 6669TIP3    H241499   1.185   6.528  14.510 -0.5462  2.4836  0.7919
 6670TIP3   OH241500   3.596   3.369  14.184  0.4144 -0.2852 -0.2370
 6670TIP3    H141501   3.579   3.369  14.278  1.6481 -0.7905  0.0026
 6670TIP3    H241502   3.534   3.433  14.149 -0.2607 -0.3000  0.8713
 6671TIP3   OH241503   3.721   2.676   0.835 -0.6291  0.4582  0.2413
 6671TIP3    H141504   3.664   2.654   0.908 -0.1493 -2.4301 -0.1203
 6671TIP3    H241505   3.700   2.611   0.767  2.5749 -0.3960 -0.1134
 6672TIP3   OH241506   6.140   2.181  13.092 -0.4033 -0.1180  0.0977
 6672TIP3    H141507   6.106   2.122  13.025 -0.1950 -0.7234  0.5214
 6672TIP3    H241508   6.219   2.219  13.053 -0.4336 -0.2556 -0.0997
 6673TIP3   OH241509   4.885   6.772   3.647  0.0722  0.7610 -0.6920
 6673TIP3    H141510   4.847   6.844   3.597 -1.6671 -0.7422 -1.6985
 6673TIP3    H241511   4.813   6.709   3.656  0.4049  0.7053  3.3768
 6674TIP3   OH241512   2.987   0.448  11.683  0.8245  0.1739 -0.1039
 6674TIP3    H141513   3.063   0.412  11.637  0.2557 -0.0294 -0.8955
 6674TIP3    H241514   2.965   0.382  11.749  1.4983  0.3603  0.3166
 6675TIP3   OH241515   0.515   4.249   3.076 -0.1097  0.8506 -0.3419
 6675TIP3    H141516   0.505   4.210   2.989 -1.3438  1.3714 -0.4616
 6675TIP3    H241517   0.432   4.294   3.091 -1.0282 -1.3889  2.2174
 6676TIP3   OH241518   4.334   5.461  12.603 -0.1445 -0.3979  0.2233
 6676TIP3    H141519   4.424   5.492  12.616 -0.4679  0.4826  0.4961
 6676TIP3    H241520   4.326   5.384  12.659  0.7254 -1.0685 -0.5517
 6677TIP3   OH241521   4.735   1.218  16.757  0.6656  0.3203  0.4615
 6677TIP3    H141522   4.723   1.178  16.843  0.2039  0.1510  0.3268
 6677TIP3    H241523   4.654   1.197  16.710  1.4982 -0.8757 -0.5218
 6678TIP3   OH241524   4.289   2.367   0.107 -0.0685 -0.2003  0.1244
 6678TIP3    H141525   4.307   2.390   0.198 -1.9779 -0.6254  0.6462
 6678TIP3    H241526   4.289   2.451   0.060 -1.4576  0.3183  0.9846
 6679TIP3   OH241527   1.383   2.586   0.109  0.2611 -0.1865 -0.5520
 6679TIP3    H141528   1.364   2.647   0.180 -1.6574  0.1531 -1.3050
 6679TIP3    H241529   1.473   2.608   0.082  0.4822  0.6504  0.7778
 6680TIP3   OH241530   2.429   5.966  16.561 -0.0555 -0.7241 -0.1296
 6680TIP3    H141531   2.486   5.939  16.490 -0.3899 -1.1261 -0.2463
 6680TIP3    H241532   2.393   6.050  16.532  2.9146  1.2344  1.2983
 6681TIP3   OH241533   0.342   0.487   4.591  0.1305 -0.2602  0.2621
 6681TIP3    H141534   0.391   0.407   4.612 -0.8249 -0.7343  0.7496
 6681TIP3    H241535   0.347   0.540   4.670  1.5742  0.6160 -0.3777
 6682TIP3   OH241536   0.813   1.977  10.883  0.1661  0.8012  0.2087
 6682TIP3    H141537   0.797   2.070  10.870 -0.1376  0.7772  0.4030
 6682TIP3    H241538   0.892   1.973  10.937 -0.1938  0.9585  0.7464
 6683TIP3   OH241539   0.040   1.586  15.843  0.2426  0.2731 -0.2157
 6683TIP3    H141540   0.077   1.523  15.905 -1.0839  1.2878  1.6955
 6683TIP3    H241541   0.108   1.653  15.833  0.7530 -0.2685 -0.4706
 6684TIP3   OH241542   5.179   2.042  12.085 -0.2823 -0.5334 -0.7828
 6684TIP3    H141543   5.235   2.031  12.009  0.2024 -2.3285 -0.2139
 6684TIP3    H241544   5.091   2.054  12.049  0.2156  0.7549 -1.6366
 6685TIP3   OH241545   6.477   1.189   2.723  0.3312 -0.4230  0.4796
 6685TIP3    H141546   6.454   1.098   2.739 -1.8107  0.1530  1.0647
 6685TIP3    H241547   6.448   1.235   2.802  0.6427  0.8600 -0.1333
 6686TIP3   OH241548   3.977   4.646  15.191  0.2144  0.4609  0.6597
 6686TIP3    H141549   3.953   4.681  15.105  0.9992  1.1679  0.7115
 6686TIP3    H241550   3.950   4.554  15.189  1.8883 -0.0562 -1.0513
 6687TIP3   OH241551   4.371   0.970   2.818  0.6229 -0.8447 -0.5984
 6687TIP3    H141552   4.370   0.918   2.738  1.3338 -0.9639 -0.5320
 6687TIP3    H241553   4.287   0.952   2.860 -0.1788 -0.0153 -1.8024
 6688TIP3   OH241554   3.134   0.622   1.866 -0.6062  0.5073 -0.3271
 6688TIP3    H141555   3.042   0.598   1.876 -0.4045 -0.8700 -1.4926
 6688TIP3    H241556   3.177   0.540   1.842  0.4323  1.6646 -2.6474
 6689TIP3   OH241557   1.427   6.411   0.043 -0.0308 -0.0928 -0.0581
 6689TIP3    H141558   1.493   6.369   0.099 -0.5424  0.0790  0.6976
 6689TIP3    H241559   1.367   6.453   0.105 -0.7695 -0.1242 -0.7355
 6690TIP3   OH241560   5.887   2.007   0.122  0.2046 -0.3013  0.7874
 6690TIP3    H141561   5.850   2.094   0.135  0.8703  0.1613 -0.2764
 6690TIP3    H241562   5.912   1.978   0.210  1.7484  1.3938  0.9811
 6691TIP3   OH241563   5.272   5.827  14.829  0.2240 -0.2344  0.3437
 6691TIP3    H141564   5.335   5.834  14.757 -1.1887 -0.0145 -0.9188
 6691TIP3    H241565   5.313   5.874  14.901  2.3759 -1.7704  0.2365
 6692TIP3   OH241566   2.015   4.018  12.083 -0.2374  0.0454 -0.0816
 6692TIP3    H141567   1.996   3.933  12.121 -2.4895  1.2862  1.8562
 6692TIP3    H241568   1.936   4.070  12.098  1.3126  2.7285 -0.4171
 6693TIP3   OH241569   0.523   2.764  13.952 -0.0878  0.3335 -0.2446
 6693TIP3    H141570   0.576   2.794  13.878 -0.6793  0.6925 -0.5265
 6693TIP3    H241571   0.537   2.669  13.954 -1.6623 -0.0101 -2.1112
 6694TIP3   OH241572   0.311   6.643  12.689 -0.7205 -0.1596 -0.2678
 6694TIP3    H141573   0.277   6.646  12.600  0.1941  0.4189 -0.6255
 6694TIP3    H241574   0.254   6.582  12.736 -0.5148 -1.3720 -1.5424
 6695TIP3   OH241575   4.488   6.681  15.062 -0.0098 -0.0555  0.2084
 6695TIP3    H141576   4.565   6.708  15.012 -0.4677  2.0769  0.5935
 6695TIP3    H241577   4.517   6.602  15.108  1.7982  0.4360  0.0079
 6696TIP3   OH241578   3.667   2.353   2.518 -0.9784 -0.1982  0.3907
 6696TIP3    H141579   3.683   2.446   2.534 -0.8862  0.5549 -3.1160
 6696TIP3    H241580   3.755   2.314   2.510 -0.9224 -1.3002  4.3430
 6697TIP3   OH241581   3.026   4.891   3.618 -0.4867  0.2915 -0.1649
 6697TIP3    H141582   3.036   4.969   3.672  0.8131 -0.0670  0.1479
 6697TIP3    H241583   2.949   4.847   3.654 -0.5851  0.8678  0.3536
 6698TIP3   OH241584   3.472   2.526   5.470 -0.0123 -0.4023 -0.0761
 6698TIP3    H141585   3.494   2.608   5.514  0.9219 -1.7527  2.1501
 6698TIP3    H241586   3.530   2.523   5.394 -0.4306  1.1982 -0.5008
 6699TIP3   OH241587   5.994   2.539  12.490  0.0179  0.2912 -0.6060
 6699TIP3    H141588   5.998   2.604  12.419 -0.4679  0.7806 -0.1954
 6699TIP3    H241589   5.919   2.485  12.468 -1.7471  2.0249  0.8302
 6700TIP3   OH241590   0.371   0.613   3.756 -0.2088  0.1308 -0.3786
 6700TIP3    H141591   0.361   0.662   3.674 -0.3655  1.5524  0.4560
 6700TIP3    H241592   0.283   0.612   3.794  0.1936  1.0850  0.6303
 6701TIP3   OH241593   5.271   1.599  17.114  0.7112 -0.3555 -0.3569
 6701TIP3    H141594   5.258   1.655  17.190  1.8458  0.5104 -0.7795
 6701TIP3    H241595   5.186   1.601  17.068  0.1970 -0.4396  0.5659
 6702TIP3   OH241596   4.343   6.701  12.870  0.0652  0.0445  0.6023
 6702TIP3    H141597   4.291   6.733  12.796  0.5478  0.1394  0.3057
 6702TIP3    H241598   4.327   6.607  12.872 -0.9929  0.2094  1.1944
 6703TIP3   OH241599   2.086   2.685   5.680 -0.4116 -0.3227  0.7052
 6703TIP3    H141600   2.007   2.672   5.733 -0.1914 -0.1552  1.0774
 6703TIP3    H241601   2.064   2.758   5.622 -0.5876 -0.3872  0.6886
 6704TIP3   OH241602   3.798   0.984   0.097  0.3362 -0.0534 -0.3274
 6704TIP3    H141603   3.702   0.987   0.090  0.2497 -2.0745 -0.5076
 6704TIP3    H241604   3.823   0.902   0.054  1.9033 -1.0657  2.3206
 6705TIP3   OH241605   4.659   4.648   5.705 -0.0752  0.4927 -0.0515
 6705TIP3    H141606   4.677   4.576   5.765  1.3692  0.0952 -0.9149
 6705TIP3    H241607   4.651   4.725   5.761  1.0523  0.0987  0.6844
 6706TIP3   OH241608   5.395   0.295   0.470 -0.2191  0.1327  0.2175
 6706TIP3    H141609   5.444   0.277   0.550  0.0335 -0.1085  0.0131
 6706TIP3    H241610   5.305   0.273   0.491 -0.0408 -0.6234  0.2194
 6707TIP3   OH241611   1.066   4.056   2.374 -0.4384  0.4720 -0.3278
 6707TIP3    H141612   0.976   4.030   2.357 -0.0988 -2.8827  2.0320
 6707TIP3    H241613   1.111   4.045   2.290 -1.7399 -0.1160 -0.9630
 6708TIP3   OH241614   6.641   2.763  14.766  0.1542 -0.7504 -0.2825
 6708TIP3    H141615   6.629   2.671  14.791 -0.2159 -0.7366 -0.4063
 6708TIP3    H241616   6.681   2.759  14.679 -0.4476 -0.7977 -0.5640
 6709TIP3   OH241617   1.840   6.049   0.903 -0.3021  0.3630  0.3459
 6709TIP3    H141618   1.923   6.029   0.945 -0.1483  1.5248  0.6281
 6709TIP3    H241619   1.805   6.123   0.953 -0.2823  1.5515 -1.3310
 6710TIP3   OH241620   6.826   3.684  16.071  0.0049 -0.1915  0.3951
 6710TIP3    H141621   6.902   3.646  16.114  0.8573  1.2406  0.2376
 6710TIP3    H241622   6.820   3.638  15.987  1.3045  0.3256  0.0002
 6711TIP3   OH241623   4.650   4.922   5.266  0.3036 -0.1226  1.0508
 6711TIP3    H141624   4.606   4.996   5.308 -1.7260 -0.6643  0.0008
 6711TIP3    H241625   4.620   4.925   5.175  1.0657 -1.5712  0.7247
 6712TIP3   OH241626   0.696   5.979   0.358  0.0862 -0.2128 -0.2263
 6712TIP3    H141627   0.780   5.937   0.377  0.1253  0.1069  0.3274
 6712TIP3    H241628   0.674   5.949   0.270  2.4367  2.3242 -1.8616
 6713TIP3   OH241629   0.713   1.440  13.049  0.2639 -0.1443 -0.1278
 6713TIP3    H141630   0.641   1.402  13.000 -0.9829  0.1343  1.4032
 6713TIP3    H241631   0.775   1.469  12.982 -0.3096 -1.7771 -1.4265
 6714TIP3   OH241632   1.464   0.945  13.307 -0.0891 -0.2320  0.6952
 6714TIP3    H141633   1.428   0.905  13.386 -0.4575 -1.3212 -0.0103
 6714TIP3    H241634   1.461   0.876  13.241  1.0570  0.3837 -0.0378
 6715TIP3   OH241635   6.340   1.203  17.121 -0.4123  0.3259 -0.1881
 6715TIP3    H141636   6.256   1.244  17.100  0.2628  0.6355 -2.6106
 6715TIP3    H241637   6.406   1.265  17.089  0.7177 -0.7095  0.0406
 6716TIP3   OH241638   3.313   1.725   4.898 -0.0209  1.0742  0.4143
 6716TIP3    H141639   3.317   1.766   4.812 -2.4476 -2.9972 -1.9853
 6716TIP3    H241640   3.221   1.730   4.923 -0.1154 -1.2349  0.7690
 6717TIP3   OH241641   3.588   3.606   4.881  0.1220  0.0753 -0.1587
 6717TIP3    H141642   3.563   3.569   4.966  2.5838 -0.3203  0.4758
 6717TIP3    H241643   3.621   3.532   4.830  0.1154  0.5512 -0.8725
 6718TIP3   OH241644   4.300   2.134   4.873 -0.1910  0.2319 -0.3756
 6718TIP3    H141645   4.317   2.176   4.957 -1.2176 -2.5336  1.3620
 6718TIP3    H241646   4.387   2.111   4.840  0.1915  0.2536  0.5779
 6719TIP3   OH241647   1.404   6.340  10.934  0.4469 -0.2609  0.1829
 6719TIP3    H141648   1.432   6.330  10.843 -0.8526 -1.5427 -0.1091
 6719TIP3    H241649   1.403   6.250  10.969 -1.9884 -0.1798  0.5187
 6720TIP3   OH241650   0.481   1.868  13.663 -0.1779  0.2295  0.0118
 6720TIP3    H141651   0.517   1.782  13.685 -1.3892 -1.0658 -2.6551
 6720TIP3    H241652   0.447   1.901  13.746  1.2483 -1.3504  1.3242
 6721TIP3   OH241653   1.829   1.529   4.007  0.6146  0.6111  0.7718
 6721TIP3    H141654   1.831   1.439   4.040  1.5111  0.9415  1.6457
 6721TIP3    H241655   1.911   1.568   4.037  0.3363  1.6655  0.2185
 6722TIP3   OH241656   5.999   0.706  11.303  0.3030  0.0399 -0.3326
 6722TIP3    H141657   5.911   0.740  11.288  0.0361 -1.4369 -2.7114
 6722TIP3    H241658   5.985   0.612  11.321  1.3801 -0.1609 -0.4820
 6723TIP3   OH241659   4.351   5.391   0.044  0.0750 -0.7088 -0.5829
 6723TIP3    H141660   4.412   5.435  -0.015 -0.6095  0.0954 -0.7158
 6723TIP3    H241661   4.329   5.457   0.110 -1.3000 -0.6841 -1.0178
 6724TIP3   OH241662   2.831   5.106   0.807  0.1950  0.2916  0.0365
 6724TIP3    H141663   2.901   5.045   0.782 -0.4685 -0.6559  0.4043
 6724TIP3    H241664   2.753   5.050   0.812  0.1868  0.4128  3.9645
 6725TIP3   OH241665   0.441   1.879  13.301  0.0777 -0.4465  0.2698
 6725TIP3    H141666   0.375   1.833  13.249 -0.1844 -2.8877  2.5455
 6725TIP3    H241667   0.392   1.915  13.375  1.0598 -1.2571  1.3503
 6726TIP3   OH241668   0.664   1.937  12.735  0.0623  0.2185  0.1279
 6726TIP3    H141669   0.754   1.965  12.724 -0.5563  3.0296  1.3103
 6726TIP3    H241670   0.655   1.920  12.829 -0.1227 -2.2361 -0.2837
 6727TIP3   OH241671   3.856   0.857   2.337 -0.2475 -0.4364 -0.2194
 6727TIP3    H141672   3.931   0.825   2.388 -0.4717 -2.3922 -1.0231
 6727TIP3    H241673   3.779   0.826   2.385 -0.5312  0.4783 -0.0696
 6728TIP3   OH241674   1.508   6.472   5.524  0.1069  0.0412 -0.3161
 6728TIP3    H141675   1.547   6.519   5.597 -1.8474  1.4463 -0.0950
 6728TIP3    H241676   1.532   6.524   5.447 -0.0965  0.0894 -0.3477
 6729TIP3   OH241677   5.139   0.499   2.794  0.2536  0.0906  0.3692
 6729TIP3    H141678   5.181   0.424   2.836 -0.5668 -0.3726  0.3783
 6729TIP3    H241679   5.101   0.464   2.714  0.0321  0.5420  0.2730
 6730TIP3   OH241680   4.314   4.904  10.819  0.2155  0.0383 -0.2390
 6730TIP3    H141681   4.235   4.889  10.872  0.4608 -0.0198  0.1130
 6730TIP3    H241682   4.300   4.990  10.779 -0.5765 -0.4935 -1.1529
 6731TIP3   OH241683   3.918   3.529  16.950 -0.4985  0.3404  0.5486
 6731TIP3    H141684   3.966   3.580  16.885  2.6336 -0.1373  2.2771
 6731TIP3    H241685   3.898   3.591  17.020  0.4875 -0.1097  1.2458
 6732TIP3   OH241686   1.564   2.113  11.280 -0.0552 -0.1537  0.5342
 6732TIP3    H141687   1.643   2.071  11.314  1.0108  1.5999  0.3248
 6732TIP3    H241688   1.545   2.065  11.200  0.7909 -0.6167  0.5954
 6733TIP3   OH241689   2.894   5.977   5.825 -0.5999 -0.6675 -0.8933
 6733TIP3    H141690   2.966   6.018   5.871 -0.7791  0.5259 -1.6353
 6733TIP3    H241691   2.935   5.924   5.756 -0.4143 -0.4678 -0.9341
 6734TIP3   OH241692   5.639   5.421   1.402 -0.4563 -0.4280  0.1358
 6734TIP3    H141693   5.707   5.359   1.427 -0.4836 -0.6625 -0.3547
 6734TIP3    H241694   5.665   5.452   1.316 -1.3843 -1.1359 -0.4221
 6735TIP3   OH241695   4.612   5.147  11.980  0.0145  0.1831  0.0001
 6735TIP3    H141696   4.547   5.195  12.031 -0.8497 -0.4164 -0.5301
 6735TIP3    H241697   4.685   5.134  12.041 -0.2929  0.9928  0.5502
 6736TIP3   OH241698   3.748   6.457  13.775 -0.3200  0.0863 -0.0009
 6736TIP3    H141699   3.818   6.396  13.797 -1.7227 -1.2076  1.0680
 6736TIP3    H241700   3.702   6.414  13.703 -0.7556  0.3339  0.1307
 6737TIP3   OH241701   1.704   2.846   0.674 -0.4642 -0.0669  0.6068
 6737TIP3    H141702   1.771   2.778   0.669  0.3944  0.8669 -1.5125
 6737TIP3    H241703   1.748   2.919   0.718  0.0591  0.6463 -1.0327
 6738TIP3   OH241704   0.757   6.202   1.321 -0.3467  0.3494 -0.0894
 6738TIP3    H141705   0.671   6.240   1.341 -0.6341 -0.0483 -0.5611
 6738TIP3    H241706   0.760   6.122   1.373  0.3787  1.1346  1.1316
 6739TIP3   OH241707   6.231   6.818  15.123  0.2105 -0.0091  0.1546
 6739TIP3    H141708   6.223   6.766  15.203  1.0930  0.3221  0.4696
 6739TIP3    H241709   6.318   6.857  15.128  0.0205  0.5495 -0.6505
 6740TIP3   OH241710   1.020   4.492  15.416 -0.5451  0.1519 -0.4801
 6740TIP3    H141711   0.981   4.463  15.499  0.5356  0.0588  0.0125
 6740TIP3    H241712   1.114   4.487  15.431 -0.3342  0.2909 -1.6735
 6741TIP3   OH241713   1.945   3.719   4.421  0.4583 -0.2980 -0.3491
 6741TIP3    H141714   1.970   3.660   4.350 -0.5292 -0.3458 -0.6803
 6741TIP3    H241715   1.861   3.684   4.451 -1.0665  1.9211 -1.7330
 6742TIP3   OH241716   6.698   3.458   3.610 -0.0789  0.5261  0.4899
 6742TIP3    H141717   6.712   3.512   3.533  1.7093  0.0037  0.4075
 6742TIP3    H241718   6.786   3.435   3.640 -0.7015 -2.4686  0.4037
 6743TIP3   OH241719   3.961   0.935  11.101 -0.0960  0.6495 -0.6447
 6743TIP3    H141720   4.043   0.961  11.143  0.8562 -1.5693 -1.0048
 6743TIP3    H241721   3.988   0.893  11.020 -1.6812  0.8032 -1.2901
 6744TIP3   OH241722   3.564   4.677  14.477 -0.2768  0.0460  0.1006
 6744TIP3    H141723   3.636   4.718  14.525 -1.1421 -1.4162  2.9170
 6744TIP3    H241724   3.568   4.584  14.503 -2.5634 -0.2497 -0.3765
 6745TIP3   OH241725   2.211   5.602   0.158  0.1214  0.4601  0.6733
 6745TIP3    H141726   2.207   5.668   0.227 -0.2461  1.3408 -0.1575
 6745TIP3    H241727   2.221   5.653   0.077 -2.1843 -0.3485 -0.2132
 6746TIP3   OH241728   2.440   2.698   4.225  0.0111 -0.0551  0.0588
 6746TIP3    H141729   2.530   2.692   4.258 -0.2281 -1.8369  0.4696
 6746TIP3    H241730   2.404   2.775   4.270  2.0898  2.4649 -2.2003
 6747TIP3   OH241731   3.122   6.349  11.386 -0.6817  0.1604 -0.5511
 6747TIP3    H141732   3.110   6.396  11.304 -0.5551  2.9700  0.9015
 6747TIP3    H241733   3.037   6.355  11.430 -0.1984  0.5569  0.3658
 6748TIP3   OH241734   5.487   3.750   0.465  0.5947  0.5733 -0.1233
 6748TIP3    H141735   5.500   3.843   0.447 -0.1132  0.8006  0.5065
 6748TIP3    H241736   5.396   3.733   0.442  0.1061  0.5306  1.7214
 6749TIP3   OH241737   1.275   4.855   2.968  0.0601  0.3480  0.5237
 6749TIP3    H141738   1.325   4.847   2.887 -0.0909 -0.8185  0.5310
 6749TIP3    H241739   1.311   4.932   3.011  0.7914  0.4200 -0.1977
 6750TIP3   OH241740   5.081   6.611   3.766 -0.3696 -0.2085  0.4960
 6750TIP3    H141741   5.000   6.654   3.736 -0.0736  0.2073  0.2808
 6750TIP3    H241742   5.099   6.545   3.699 -0.0662  0.2806  0.0827
 6751TIP3   OH241743   2.632   3.277   2.304  0.0392 -0.0659  0.1950
 6751TIP3    H141744   2.673   3.354   2.264 -1.5464  0.1797 -1.0469
 6751TIP3    H241745   2.694   3.206   2.291  0.0944  0.2808 -1.6670
 6752TIP3   OH241746   4.435   0.637   1.851 -0.4688 -0.2414 -0.5386
 6752TIP3    H141747   4.484   0.566   1.811  1.9624  1.0854 -0.1233
 6752TIP3    H241748   4.382   0.595   1.919  0.8362 -1.6598 -0.3523
 6753TIP3   OH241749   2.219   0.050   4.487  0.0742 -0.3630 -0.5245
 6753TIP3    H141750   2.287   0.117   4.483 -0.8377  0.6725  0.4399
 6753TIP3    H241751   2.245  -0.008   4.558 -0.4320  0.5130  0.4047
 6754TIP3   OH241752   5.878   5.009   6.256  0.1986  0.0072 -0.2542
 6754TIP3    H141753   5.899   5.099   6.231  0.2924 -0.3264 -1.4493
 6754TIP3    H241754   5.809   5.018   6.321 -2.6374  0.9266 -3.1115
 6755TIP3   OH241755   0.209   3.581   0.445  0.6498 -0.3459 -0.0302
 6755TIP3    H141756   0.278   3.516   0.434  0.0989 -1.0654  0.6131
 6755TIP3    H241757   0.246   3.646   0.504  0.6145 -1.0124  0.7556
 6756TIP3   OH241758   5.551   3.544  13.049 -0.5294 -0.3445  0.5298
 6756TIP3    H141759   5.479   3.565  13.108 -1.8741 -1.8217 -0.5240
 6756TIP3    H241760   5.586   3.461  13.081  0.6900  0.3288  0.9964
 6757TIP3   OH241761   3.954   6.018   5.438  0.1936 -0.6492 -0.3814
 6757TIP3    H141762   4.048   6.002   5.426  0.2744  0.1188 -0.8408
 6757TIP3    H241763   3.915   5.995   5.354 -0.3815 -3.3274  0.5451
 6758TIP3   OH241764   4.412   4.935  16.992 -0.1199  0.0015 -0.0312
 6758TIP3    H141765   4.346   4.965  16.930  0.2128  0.1338 -0.3202
 6758TIP3    H241766   4.490   4.986  16.972  0.0808 -0.1715  0.2930
 6759TIP3   OH241767   3.096   4.771  14.395 -0.3038 -0.3388 -0.4928
 6759TIP3    H141768   3.107   4.689  14.443 -1.2446 -0.7800 -1.0132
 6759TIP3    H241769   3.184   4.808  14.391  0.2363 -1.6037 -0.7677
 6760TIP3   OH241770   2.862   0.002   3.267  0.2452 -0.2748 -0.5617
 6760TIP3    H141771   2.944  -0.016   3.313 -0.0938  2.6973  1.4842
 6760TIP3    H241772   2.885   0.070   3.204 -0.3388 -0.6526 -1.1939
 6761TIP3   OH241773   6.273   5.884  16.010  0.3370  0.1319 -0.0917
 6761TIP3    H141774   6.335   5.925  16.071  0.0800 -0.6352  0.7061
 6761TIP3    H241775   6.282   5.790  16.026 -0.8979 -0.0020 -0.0977
 6762TIP3   OH241776   0.875   6.222   1.975  0.1996  0.0148 -0.7632
 6762TIP3    H141777   0.790   6.214   1.932 -0.0739  0.7340 -0.3762
 6762TIP3    H241778   0.916   6.298   1.933 -0.3881  1.2132  0.7297
 6763TIP3   OH241779   2.525   0.632   2.036 -0.0187  0.0407  0.8101
 6763TIP3    H141780   2.516   0.541   2.007 -0.7262 -0.0077  1.1644
 6763TIP3    H241781   2.486   0.684   1.966 -0.6634 -0.0060  1.1251
 6764TIP3   OH241782   0.681   0.317  14.215  0.4156  0.3294  0.8506
 6764TIP3    H141783   0.670   0.301  14.309  0.6689  3.5163  1.5346
 6764TIP3    H241784   0.763   0.365  14.209  1.7069 -1.9007 -1.3790
 6765TIP3   OH241785   3.895   6.248  12.663  0.0386 -0.1268  0.0536
 6765TIP3    H141786   3.876   6.234  12.755  0.3061  0.0700  0.1368
 6765TIP3    H241787   3.959   6.180  12.641  0.2824  0.0860  0.1123
 6766TIP3   OH241788   5.052   0.232   3.367  0.1484  0.5192 -0.2944
 6766TIP3    H141789   5.097   0.180   3.434  0.3340  0.5229 -0.4162
 6766TIP3    H241790   5.016   0.307   3.415 -0.5452  0.0250 -0.0303
 6767TIP3   OH241791   3.923   6.817  11.664  0.2379  0.2886  0.5703
 6767TIP3    H141792   3.987   6.865  11.610 -0.1751 -0.0887 -0.2739
 6767TIP3    H241793   3.917   6.868  11.744  0.1585  1.4006 -0.1151
 6768TIP3   OH241794   5.058   0.137  14.592  0.2014 -0.0923 -0.5187
 6768TIP3    H141795   5.006   0.141  14.512  0.2358  0.3386 -0.5249
 6768TIP3    H241796   5.071   0.229  14.616 -0.9155 -0.2368  0.7081
 6769TIP3   OH241797   6.825   5.650   2.569 -0.4464  0.2452  0.4958
 6769TIP3    H141798   6.903   5.599   2.550  0.9131  1.4756  2.3130
 6769TIP3    H241799   6.789   5.609   2.648 -0.8492  0.5018  0.4465
 6770TIP3   OH241800   4.966   0.615  16.926 -0.0101 -0.2908 -0.1525
 6770TIP3    H141801   4.947   0.685  16.863 -1.6666 -0.3912  0.2091
 6770TIP3    H241802   5.014   0.659  16.996  0.1627  0.2056 -0.5696
 6771TIP3   OH241803   3.040   2.848   0.875  0.5129 -0.1148 -0.2610
 6771TIP3    H141804   2.990   2.913   0.925  0.2565  0.1450 -0.8415
 6771TIP3    H241805   3.002   2.851   0.788  0.9606 -0.5585 -0.4770
 6772TIP3   OH241806   3.275   2.734   4.970  0.1499  0.0007 -0.0102
 6772TIP3    H141807   3.289   2.672   4.899  1.0745 -0.8731  0.8948
 6772TIP3    H241808   3.191   2.709   5.009  0.4497 -0.6112  0.2576
 6773TIP3   OH241809   3.479   6.178  14.356 -0.5042  0.0526 -0.2855
 6773TIP3    H141810   3.404   6.139  14.401 -1.8023  0.7778 -1.7248
 6773TIP3    H241811   3.442   6.252  14.308  0.5710 -1.1876 -3.2762
 6774TIP3   OH241812   2.103   1.103   5.904  0.4276 -0.0835 -0.3795
 6774TIP3    H141813   2.091   1.088   5.998 -1.9535 -0.5323 -0.6823
 6774TIP3    H241814   2.173   1.043   5.878  0.3096 -0.8022  0.8966
 6775TIP3   OH241815   3.967   4.547  16.039 -0.1678  0.2925  0.2078
 6775TIP3    H141816   3.897   4.602  16.075 -1.7947 -1.8824  0.6179
 6775TIP3    H241817   3.956   4.463  16.084  1.7459 -0.6126 -0.8970
 6776TIP3   OH241818   3.629   6.763   3.259  0.0751 -0.6135  0.5138
 6776TIP3    H141819   3.535   6.744   3.262 -0.2414  1.0050  2.0128
 6776TIP3    H241820   3.650   6.766   3.166 -1.6500  0.2526  0.1162
 6777TIP3   OH241821   2.733   6.544  15.519  0.3885  0.3779  0.4260
 6777TIP3    H141822   2.818   6.550  15.562  0.0223 -1.0153  1.4221
 6777TIP3    H241823   2.702   6.455  15.538 -0.5729  0.2893 -1.2985
 6778TIP3   OH241824   3.261   5.316   5.998  0.2250 -0.0103  0.7613
 6778TIP3    H141825   3.317   5.241   5.980  1.7292  1.3333 -0.3854
 6778TIP3    H241826   3.293   5.350   6.082  1.0919  0.6964  0.1560
 6779TIP3   OH241827   0.299   4.153   3.444  0.6118 -0.0772 -0.9324
 6779TIP3    H141828   0.264   4.214   3.508 -0.2255 -2.0586  0.5719
 6779TIP3    H241829   0.372   4.201   3.404 -0.6476  2.2855 -0.6204
 6780TIP3   OH241830   2.582   2.544  13.816  0.3660  0.1934  0.1362
 6780TIP3    H141831   2.499   2.590  13.828  0.8426  0.8289  1.1317
 6780TIP3    H241832   2.613   2.573  13.730  0.2247  1.0408  0.3618
 6781TIP3   OH241833   0.052   3.685  13.859  0.0772 -0.0328 -0.1501
 6781TIP3    H141834   0.044   3.716  13.769  0.6426 -0.6087 -0.4112
 6781TIP3    H241835   0.115   3.613  13.853 -0.8825 -0.9468  0.4999
 6782TIP3   OH241836   1.564   0.538  13.365  0.1766  0.2480 -0.2567
 6782TIP3    H141837   1.605   0.514  13.282  1.9620 -0.7022  0.8151
 6782TIP3    H241838   1.470   0.533  13.349  0.4794 -0.0953 -2.1464
 6783TIP3   OH241839   4.327   1.430   1.905 -0.0805  0.0549 -0.2556
 6783TIP3    H141840   4.385   1.354   1.911  1.0542  0.9752  0.9769
 6783TIP3    H241841   4.241   1.398   1.930  0.1859 -1.0131 -0.6651
 6784TIP3   OH241842   6.062   4.678  15.611  0.3679 -0.0451  0.2160
 6784TIP3    H141843   6.042   4.688  15.704  1.6621 -1.4336  0.6928
 6784TIP3    H241844   6.004   4.740  15.567 -0.5349  0.3774  1.9111
 6785TIP3   OH241845   6.219   1.328   2.566  0.2984  0.5378 -0.1290
 6785TIP3    H141846   6.252   1.302   2.652  0.9089 -2.2719 -1.1100
 6785TIP3    H241847   6.124   1.335   2.578  0.3099 -0.4228  0.6696
 6786TIP3   OH241848   4.006   2.592   2.127  0.4264 -0.2628  0.1977
 6786TIP3    H141849   4.098   2.584   2.103  0.6148 -1.5094  1.2017
 6786TIP3    H241850   3.962   2.521   2.081  0.2315 -0.5843  0.8570
 6787TIP3   OH241851   0.862   4.147  15.558 -0.4486 -0.0787 -0.0231
 6787TIP3    H141852   0.853   4.099  15.640 -1.6399 -0.6208 -0.4477
 6787TIP3    H241853   0.941   4.200  15.569  1.0646 -2.3131  0.3823
 6788TIP3   OH241854   3.155   4.802   4.504 -0.1370  0.1528 -0.0307
 6788TIP3    H141855   3.158   4.715   4.463  0.2524 -0.0593  0.4302
 6788TIP3    H241856   3.243   4.838   4.492 -0.0845  0.1811  0.3983
 6789TIP3   OH241857   4.477   6.068   5.659  0.6821 -0.0990  0.2139
 6789TIP3    H141858   4.506   6.098   5.745 -0.8321  0.0142  0.7195
 6789TIP3    H241859   4.492   5.974   5.660 -0.9165 -0.3866  1.3110
 6790TIP3   OH241860   1.919   3.626   0.861  0.0371 -0.5846 -0.0394
 6790TIP3    H141861   1.846   3.596   0.916  2.2229 -1.8315  2.4444
 6790TIP3    H241862   1.954   3.546   0.823  0.5394 -0.0841 -0.6475
 6791TIP3   OH241863   3.352   2.391  10.873  0.5557  0.2580  0.2122
 6791TIP3    H141864   3.258   2.383  10.891  0.8300 -2.2460  0.8841
 6791TIP3    H241865   3.359   2.392  10.778 -0.1212  0.3754  0.1580
 6792TIP3   OH241866   4.539   3.607   3.088 -0.4761  0.3951 -0.8579
 6792TIP3    H141867   4.559   3.517   3.060  0.7539  0.8087 -1.3460
 6792TIP3    H241868   4.570   3.662   3.017  1.0294  1.3595  0.4922
 6793TIP3   OH241869   1.867   1.508  16.537 -0.7299  0.8694 -0.7508
 6793TIP3    H141870   1.894   1.591  16.497  1.8119  0.1507 -0.6975
 6793TIP3    H241871   1.854   1.449  16.463  1.6220  0.2069 -0.7098
 6794TIP3   OH241872   4.495   2.912   3.766 -0.2926 -0.2769  0.4727
 6794TIP3    H141873   4.437   2.956   3.828  0.7391  0.3618  1.0087
 6794TIP3    H241874   4.436   2.867   3.705 -1.3235 -1.1300  2.0412
 6795TIP3   OH241875   5.702   1.895   4.336 -0.3119 -0.0807  0.2247
 6795TIP3    H141876   5.695   1.976   4.386  0.3544 -0.8855  1.6921
 6795TIP3    H241877   5.763   1.915   4.265  1.0724  0.3088  1.4700
 6796TIP3   OH241878   0.638   4.825  14.338 -0.2102 -0.0261  0.4395
 6796TIP3    H141879   0.614   4.906  14.291  1.2609  0.8020  1.0584
 6796TIP3    H241880   0.555   4.794  14.374 -0.7893  1.2893  0.3060
 6797TIP3   OH241881   3.316   1.534   5.493 -0.3019 -0.0861  0.2877
 6797TIP3    H141882   3.276   1.449   5.514 -1.5911  0.3514 -0.3271
 6797TIP3    H241883   3.258   1.599   5.532  1.7684  0.5564  2.6437
 6798TIP3   OH241884   3.275   1.971   4.322  0.0872 -0.4284  0.4223
 6798TIP3    H141885   3.212   1.976   4.250 -1.0004 -0.6660  1.3345
 6798TIP3    H241886   3.286   2.062   4.351 -0.9985 -0.5283  1.2156
 6799TIP3   OH241887   5.942   6.533   5.819  0.1205  0.1839  0.1493
 6799TIP3    H141888   5.979   6.620   5.832 -1.1081  0.7553  0.0358
 6799TIP3    H241889   6.012   6.483   5.777  1.7163  0.3477  2.4274
 6800TIP3   OH241890   3.102   0.533  12.472  0.3383  0.6816 -0.1590
 6800TIP3    H141891   3.018   0.528  12.518  0.9148 -0.2159  0.8259
 6800TIP3    H241892   3.080   0.508  12.382 -0.1042 -1.8325  0.5726
 6801TIP3   OH241893   0.242   6.783  10.833  0.1682 -0.1327  0.3892
 6801TIP3    H141894   0.264   6.772  10.926 -0.7365  2.5240  1.0044
 6801TIP3    H241895   0.305   6.848  10.802  0.3269 -0.8518 -0.8424
 6802TIP3   OH241896   3.540   2.861  11.895 -0.3208 -0.1287  0.2491
 6802TIP3    H141897   3.566   2.953  11.898 -1.4224  0.1871  1.0286
 6802TIP3    H241898   3.530   2.840  11.802 -1.0642  0.8535  0.0942
 6803TIP3   OH241899   0.470   3.804   1.299  0.1216  0.3941  0.1558
 6803TIP3    H141900   0.410   3.730   1.301 -1.2412  1.4787  1.7054
 6803TIP3    H241901   0.510   3.805   1.386 -1.5374  2.7108  0.9855
 6804TIP3   OH241902   1.735   2.247   4.617  0.5253 -0.1252 -0.7711
 6804TIP3    H141903   1.829   2.230   4.608  0.7587  1.0295 -0.6513
 6804TIP3    H241904   1.728   2.299   4.697 -0.1545  0.2332 -1.0604
 6805TIP3   OH241905   3.212   0.104   1.796 -0.3266  0.3416  0.0852
 6805TIP3    H141906   3.267   0.026   1.797 -0.3032  0.3435 -0.4792
 6805TIP3    H241907   3.173   0.108   1.883 -0.9427 -0.7399 -0.1196
 6806TIP3   OH241908   3.890   5.093  10.809  0.1327 -0.4306  0.0416
 6806TIP3    H141909   3.924   5.028  10.748  2.1099 -0.7949  1.4352
 6806TIP3    H241910   3.965   5.148  10.831 -1.1355  1.3460  0.1373
 6807TIP3   OH241911   3.203   5.838   1.417 -0.2964  0.6515 -0.8923
 6807TIP3    H141912   3.201   5.857   1.511  1.2579 -1.7665 -0.2810
 6807TIP3    H241913   3.292   5.860   1.390 -0.4502  0.4402 -1.5980
 6808TIP3   OH241914   0.006   3.469  16.923 -0.3990  0.3365  0.5412
 6808TIP3    H141915   0.048   3.481  16.838 -0.6005 -2.7238 -0.1109
 6808TIP3    H241916  -0.087   3.484  16.907 -0.2782  1.1493  0.5756
 6809TIP3   OH241917   1.566   0.370   0.802  0.1141 -0.3029  0.3764
 6809TIP3    H141918   1.540   0.462   0.810  0.1202 -0.4749  3.4281
 6809TIP3    H241919   1.569   0.338   0.892  2.2500 -2.7273 -0.4430
 6810TIP3   OH241920   5.389   2.776   3.464  0.3521  0.1714 -0.8120
 6810TIP3    H141921   5.459   2.774   3.399  1.2362  3.0953 -0.1189
 6810TIP3    H241922   5.311   2.803   3.415  0.5857  0.5067 -1.0032
 6811TIP3   OH241923   5.135   0.953  16.845 -0.1697  0.2213  0.0041
 6811TIP3    H141924   5.128   0.868  16.801  0.1258  0.8954 -1.4070
 6811TIP3    H241925   5.060   0.955  16.906 -0.0022 -1.1531  0.2851
 6812TIP3   OH241926   5.747   4.066   4.673 -0.2343 -0.1953 -0.6318
 6812TIP3    H141927   5.652   4.056   4.684 -0.3608  0.4936 -1.0573
 6812TIP3    H241928   5.773   4.129   4.740  0.0410 -0.8764 -0.0796
 6813TIP3   OH241929   1.218   6.307  14.171  0.0580  0.1750 -0.0981
 6813TIP3    H141930   1.206   6.397  14.201 -0.8347 -0.0812  0.3693
 6813TIP3    H241931   1.289   6.272  14.226  1.2871  0.9550 -1.1376
 6814TIP3   OH241932   2.445   4.708  14.720  0.7516  0.1014 -0.4596
 6814TIP3    H141933   2.490   4.746  14.795  0.2638  1.5661 -0.8763
 6814TIP3    H241934   2.383   4.775  14.692  0.6012 -0.5808 -1.8829
 6815TIP3   OH241935   1.063   6.490  13.373 -0.2524  0.2229  0.0268
 6815TIP3    H141936   1.151   6.478  13.337 -0.0293  0.7243  0.3984
 6815TIP3    H241937   1.043   6.405  13.414  0.0106  0.0713 -0.1505
 6816TIP3   OH241938   4.256   2.637  13.852  0.2993 -0.3249  0.2506
 6816TIP3    H141939   4.313   2.706  13.819  0.7276 -0.4318  0.7461
 6816TIP3    H241940   4.276   2.632  13.946 -0.1062 -0.7597  0.3192
 6817TIP3   OH241941   5.565   2.860  12.205  0.0114 -0.0734 -0.0528
 6817TIP3    H141942   5.657   2.887  12.200 -0.2117  0.7774  0.1683
 6817TIP3    H241943   5.520   2.918  12.144 -0.1726 -1.5714 -1.4044
 6818TIP3   OH241944   5.202   0.656  12.235 -0.0612 -0.2048 -0.8064
 6818TIP3    H141945   5.249   0.727  12.192 -0.6325  2.2203  2.2261
 6818TIP3    H241946   5.113   0.662  12.200  0.4518 -1.1323 -2.3784
 6819TIP3   OH241947   6.474   3.047  16.326  0.1233  0.1341 -0.1835
 6819TIP3    H141948   6.451   3.090  16.409  0.3363  0.8385 -0.4789
 6819TIP3    H241949   6.412   3.084  16.263  0.2393 -0.0814 -0.4227
 6820TIP3   OH241950   4.776   4.721   0.187 -0.2623  0.4856 -0.6234
 6820TIP3    H141951   4.757   4.811   0.215  1.6733  1.2477 -1.5350
 6820TIP3    H241952   4.856   4.729   0.136 -0.4213 -1.6916 -1.3144
 6821TIP3   OH241953   6.738   5.472   5.530  0.5131 -0.0847 -0.2109
 6821TIP3    H141954   6.742   5.378   5.508  1.4542 -0.5186  1.6559
 6821TIP3    H241955   6.654   5.501   5.494 -0.1458 -1.8270 -0.1843
 6822TIP3   OH241956   0.944   3.090  10.333 -0.3626  0.2763  0.0387
 6822TIP3    H141957   0.959   3.055  10.245  2.7397  0.4592  0.3784
 6822TIP3    H241958   0.884   3.027  10.374  0.1674 -1.2301 -1.3751
 6823TIP3   OH241959   5.135   0.489   0.239  0.3632 -0.0204  0.2917
 6823TIP3    H141960   5.111   0.480   0.331  1.4236  0.5339  0.6313
 6823TIP3    H241961   5.062   0.538   0.201 -0.0523 -0.1922  0.8468
 6824TIP3   OH241962   1.910   5.771  11.328 -0.1884  0.2304  0.3070
 6824TIP3    H141963   1.873   5.811  11.249 -0.1002  0.7036  0.5033
 6824TIP3    H241964   1.836   5.729  11.371  0.0421 -1.6004 -0.9342
 6825TIP3   OH241965   2.146   6.314   3.878 -0.2701 -0.1956  0.2586
 6825TIP3    H141966   2.125   6.230   3.919  1.0974 -1.6788 -1.8600
 6825TIP3    H241967   2.172   6.371   3.950  0.2355 -2.0834  1.6137
 6826TIP3   OH241968   4.816   6.825  12.146 -0.2942  0.5037  0.1833
 6826TIP3    H141969   4.781   6.813  12.058  0.8034  0.7142 -0.3030
 6826TIP3    H241970   4.766   6.764  12.200 -1.2764  0.6745 -0.4955
 6827TIP3   OH241971   3.305   4.258   3.536  0.6668 -0.3383 -0.0081
 6827TIP3    H141972   3.236   4.262   3.603  1.8382 -0.4560  1.2569
 6827TIP3    H241973   3.279   4.322   3.470 -1.5463 -1.5929 -0.4729
 6828TIP3   OH241974   1.215   4.726   1.094  0.6850 -0.1561  0.3694
 6828TIP3    H141975   1.219   4.717   0.999  0.9184 -0.1159  0.3754
 6828TIP3    H241976   1.304   4.709   1.124  0.9293  1.1524  0.4673
 6829TIP3   OH241977   3.688   0.300   3.021  0.6300 -0.2541 -0.0951
 6829TIP3    H141978   3.632   0.309   3.098  1.8315 -0.8257  0.8847
 6829TIP3    H241979   3.669   0.213   2.987 -1.4092  0.7586 -1.7260
 6830TIP3   OH241980   1.778   4.576   1.051  0.4423  0.1929 -0.2877
 6830TIP3    H141981   1.840   4.595   1.121  1.2440 -0.8564 -0.6862
 6830TIP3    H241982   1.722   4.506   1.086 -2.5187  2.9926  1.1883
 6831TIP3   OH241983   5.046   5.539  14.092 -0.2160 -0.1084  0.0437
 6831TIP3    H141984   5.041   5.548  13.996  0.7856 -0.1128 -0.0167
 6831TIP3    H241985   5.139   5.543  14.111 -0.4805  1.3433  1.1732
 6832TIP3   OH241986   1.376   2.248   3.171 -0.6355  0.4586 -0.1019
 6832TIP3    H141987   1.324   2.174   3.202  0.5878 -0.1078  0.6526
 6832TIP3    H241988   1.385   2.304   3.247  2.1887 -0.8218  0.6343
 6833TIP3   OH241989   4.163   3.793   0.872  0.8870  0.7286  0.0938
 6833TIP3    H141990   4.112   3.815   0.950  0.1482 -0.1182 -0.1300
 6833TIP3    H241991   4.246   3.759   0.907  0.4641  0.1195  0.5291
 6834TIP3   OH241992   6.165   2.113  13.889  0.8859 -0.1127  0.3142
 6834TIP3    H141993   6.110   2.183  13.855  0.6139 -0.1423  0.6770
 6834TIP3    H241994   6.103   2.053  13.932  1.3961  1.1282  2.9904
 6835TIP3   OH241995   2.578   1.940   4.453  0.3505 -0.4902  0.0833
 6835TIP3    H141996   2.673   1.935   4.468  0.8098 -0.0594 -2.2401
 6835TIP3    H241997   2.562   2.032   4.435 -1.0231 -0.0711  2.8994
 6836TIP3   OH241998   2.247   0.258  11.928  0.4753 -0.1606  0.0749
 6836TIP3    H141999   2.246   0.354  11.930 -0.0691 -0.1650  0.0776
 6836TIP3    H242000   2.185   0.234  11.860  0.9852 -0.5083 -0.2770
 6837TIP3   OH242001   4.954   6.581  11.228 -0.7998  0.1112  0.0279
 6837TIP3    H142002   4.960   6.619  11.316  1.7084 -0.3616  0.1380
 6837TIP3    H242003   4.864   6.599  11.200 -0.9016  2.6264  1.6250
 6838TIP3   OH242004   6.285   6.153   0.771  0.9077 -0.6768  0.6169
 6838TIP3    H142005   6.303   6.232   0.822  0.0537 -0.4114  0.5129
 6838TIP3    H242006   6.219   6.106   0.823  0.0671 -0.4293 -0.2074
 6839TIP3   OH242007   1.843   6.412  13.323  0.0557  0.4715 -0.7285
 6839TIP3    H142008   1.889   6.331  13.297  0.0927 -0.0625  0.8925
 6839TIP3    H242009   1.891   6.443  13.400 -0.0008  2.0286 -1.2885
 6840TIP3   OH242010   3.345   1.875  16.139  0.1428 -0.3975 -0.0120
 6840TIP3    H142011   3.361   1.969  16.153 -0.3804 -0.5170  1.5629
 6840TIP3    H242012   3.412   1.849  16.075  0.5002  0.9776 -0.2337
 6841TIP3   OH242013   2.219   6.415   4.124  0.6747  0.5312 -0.4350
 6841TIP3    H142014   2.264   6.339   4.161  0.6912 -0.1995 -1.8911
 6841TIP3    H242015   2.143   6.428   4.180  0.0809 -1.2436 -0.7707
 6842TIP3   OH242016   3.630   4.815   4.519  0.2413  0.4349  0.5926
 6842TIP3    H142017   3.686   4.893   4.515  1.0482 -0.1782 -2.3679
 6842TIP3    H242018   3.687   4.743   4.492 -0.8227 -1.0260  2.0498
 6843TIP3   OH242019   5.562   0.710  11.702  0.5503  0.1870 -0.0510
 6843TIP3    H142020   5.548   0.733  11.610  2.2325  1.6111 -0.0075
 6843TIP3    H242021   5.654   0.731  11.719  0.9903 -2.3934  1.3217
 6844TIP3   OH242022   5.591   5.099  16.707 -0.1218  0.3362  0.0066
 6844TIP3    H142023   5.643   5.078  16.629 -0.3460 -1.6722  0.3444
 6844TIP3    H242024   5.541   5.019  16.724 -2.9299  1.9696  0.0294
 6845TIP3   OH242025   5.401   6.503   1.980 -0.1778  0.4181 -0.1453
 6845TIP3    H142026   5.322   6.497   2.034 -0.3007  0.0952 -0.3553
 6845TIP3    H242027   5.469   6.460   2.032 -0.7234 -1.6243 -1.0212
 6846TIP3   OH242028   4.960   5.135  15.178 -1.1698  0.0731  0.3655
 6846TIP3    H142029   4.889   5.163  15.236 -0.8806  2.3102 -0.2436
 6846TIP3    H242030   5.039   5.148  15.231 -0.9642  1.3780 -0.2255
 6847TIP3   OH242031   3.480   5.248   2.764 -0.1617  0.2601 -0.0521
 6847TIP3    H142032   3.453   5.230   2.854 -0.6966 -1.3450 -0.5037
 6847TIP3    H242033   3.401   5.280   2.721 -0.2476 -0.2556 -0.2814
 6848TIP3   OH242034   2.443   4.747  11.536  0.2404 -0.3021 -0.6871
 6848TIP3    H142035   2.505   4.794  11.481  3.4251 -1.7623  1.3187
 6848TIP3    H242036   2.471   4.655  11.530 -2.0988 -1.1292 -0.0252
 6849TIP3   OH242037   0.020   4.799  15.692  0.5559  0.0596  0.5026
 6849TIP3    H142038  -0.068   4.761  15.698  0.7951 -0.5401  0.3372
 6849TIP3    H242039   0.039   4.800  15.598  0.1303  1.6178  0.4099
 6850TIP3   OH242040   1.262   5.145  14.538 -0.1646 -0.0105 -0.5140
 6850TIP3    H142041   1.299   5.058  14.522  0.3979  0.0616  0.3490
 6850TIP3    H242042   1.278   5.162  14.630  0.5985  1.4114 -0.8759
 6851TIP3   OH242043   3.089   3.843   5.424  0.3079  0.1001  0.2918
 6851TIP3    H142044   3.156   3.855   5.357  0.2073 -3.3366 -0.5824
 6851TIP3    H242045   3.031   3.919   5.413  0.6948  0.0551 -3.0577
 6852TIP3   OH242046   0.333   1.223  12.760  0.2798  0.4418  0.5486
 6852TIP3    H142047   0.364   1.313  12.748 -0.1962  0.6765  1.0353
 6852TIP3    H242048   0.240   1.232  12.779 -0.5277 -0.3286 -2.4692
 6853TIP3   OH242049   4.268   0.311   0.324  0.5040  0.2844 -0.1521
 6853TIP3    H142050   4.343   0.344   0.275 -0.4957  0.1408 -1.8692
 6853TIP3    H242051   4.207   0.385   0.326  0.0585 -0.0781 -0.1638
 6854TIP3   OH242052   3.933   4.469   5.452  0.1973  0.3202 -0.0961
 6854TIP3    H142053   3.877   4.546   5.456 -0.1818  0.0306  0.1710
 6854TIP3    H242054   3.965   4.468   5.361 -1.7598 -0.5896 -0.8442
 6855TIP3   OH242055   0.347   3.249   2.595  0.0454  0.6140  0.2459
 6855TIP3    H142056   0.309   3.166   2.624 -1.3069  1.1640  0.1207
 6855TIP3    H242057   0.419   3.224   2.537  0.3358 -0.4670  1.0553
 6856TIP3   OH242058   4.854   2.951  16.694 -0.1089  0.3807 -0.3256
 6856TIP3    H142059   4.855   2.960  16.790  0.0511 -0.4470 -0.2413
 6856TIP3    H242060   4.828   3.037  16.662 -1.2895  0.3539  0.5100
 6857TIP3   OH242061   4.193   2.386  13.059  0.9479 -0.0916  0.1801
 6857TIP3    H142062   4.166   2.404  12.969  0.0729  0.4612  0.5346
 6857TIP3    H242063   4.260   2.319  13.051 -0.3947 -1.3799 -0.7894
 6858TIP3   OH242064   4.196   0.766  16.267 -0.4227  0.8309  0.1949
 6858TIP3    H142065   4.202   0.837  16.203  0.7697 -0.5956 -1.3359
 6858TIP3    H242066   4.140   0.802  16.336 -3.1571  1.9257 -2.3414
 6859TIP3   OH242067   5.387   3.215  11.764 -0.4623 -0.0609  0.5879
 6859TIP3    H142068   5.362   3.268  11.688  0.6671 -0.6779 -0.2435
 6859TIP3    H242069   5.331   3.247  11.835 -1.6840  0.4029 -0.5408
 6860TIP3   OH242070   5.454   2.096   1.013 -0.5049 -0.4349  0.2531
 6860TIP3    H142071   5.420   2.066   1.098  1.8305 -1.1210  1.0118
 6860TIP3    H242072   5.492   2.181   1.031  1.0599 -1.0944  0.2092
 6861TIP3   OH242073   6.007   4.710  13.118  0.0724  0.4259 -0.3633
 6861TIP3    H142074   5.925   4.673  13.150  0.0003 -0.6159 -1.6454
 6861TIP3    H242075   6.058   4.728  13.197 -1.4056  1.1584  0.4580
 6862TIP3   OH242076   3.363   4.277  10.978  0.4768 -0.0546  0.1267
 6862TIP3    H142077   3.414   4.273  11.059  1.1165 -1.2762 -0.3114
 6862TIP3    H242078   3.425   4.251  10.910 -0.9644 -2.6768 -0.3019
 6863TIP3   OH242079   3.335   6.095  14.133  0.1027  0.1104  0.6124
 6863TIP3    H142080   3.401   6.162  14.117  0.2930  0.6193  3.1005
 6863TIP3    H242081   3.259   6.144  14.165 -0.5378 -0.6979  0.3680
 6864TIP3   OH242082   5.606   2.395   1.595 -0.0006  0.1801  0.5371
 6864TIP3    H142083   5.597   2.400   1.691 -2.7086  0.7744  0.3132
 6864TIP3    H242084   5.697   2.422   1.579 -0.0137  1.9117  2.8114
 6865TIP3   OH242085   4.155   3.099  12.966  0.1787  0.5848 -0.5206
 6865TIP3    H142086   4.208   3.067  12.892  0.5016  0.7614 -0.3700
 6865TIP3    H242087   4.111   3.177  12.932  1.0422  1.2059 -0.2658
 6866TIP3   OH242088   2.641   0.207   1.763  0.9066 -0.1668  0.4968
 6866TIP3    H142089   2.686   0.127   1.737  0.7860 -0.4255  1.0708
 6866TIP3    H242090   2.644   0.206   1.858 -2.7374 -1.6280  0.7445
 6867TIP3   OH242091   3.388   1.726  15.049  0.4090  0.6554 -0.4474
 6867TIP3    H142092   3.379   1.631  15.060 -1.1398  0.8342  0.1022
 6867TIP3    H242093   3.424   1.737  14.961  0.8682 -0.4463 -0.4135
 6868TIP3   OH242094   1.955   6.072  14.882  0.6380 -0.2166 -0.6620
 6868TIP3    H142095   1.961   6.028  14.798  0.8995 -2.0402  0.2531
 6868TIP3    H242096   1.941   6.001  14.945 -2.9534  1.3065  0.5152
 6869TIP3   OH242097   5.053   0.140  17.003  0.0013  0.1834 -0.2514
 6869TIP3    H142098   5.000   0.216  16.981  0.3722  0.5606  0.1434
 6869TIP3    H242099   5.035   0.124  17.096 -0.1774 -0.2950 -0.3633
 6870TIP3   OH242100   6.640   4.400   3.321  0.4578 -0.5058  0.0303
 6870TIP3    H142101   6.701   4.329   3.342 -0.5378 -2.0771 -2.0315
 6870TIP3    H242102   6.666   4.428   3.233  0.1446  0.9777  0.3898
 6871TIP3   OH242103   0.780   0.891   2.429  0.0381 -0.3197 -0.0376
 6871TIP3    H142104   0.704   0.904   2.372  0.3309  0.5596 -0.2458
 6871TIP3    H242105   0.839   0.964   2.407  0.6317 -0.5901  0.6203
 6872TIP3   OH242106   0.684   4.681  11.783  0.7357 -0.5526 -0.6646
 6872TIP3    H142107   0.664   4.638  11.866 -1.3584  2.0472  0.3323
 6872TIP3    H242108   0.778   4.698  11.787  0.7252 -0.7070  1.0684
 6873TIP3   OH242109   2.860   0.455   2.898  0.2936  0.3332  0.2593
 6873TIP3    H142110   2.925   0.400   2.855 -0.8399 -0.6830 -0.1916
 6873TIP3    H242111   2.895   0.544   2.889 -0.0666  0.2633 -3.2050
 6874TIP3   OH242112   4.424   0.421  14.845 -0.5679  0.2501  0.2415
 6874TIP3    H142113   4.514   0.401  14.822 -0.7681 -0.1059 -0.2604
 6874TIP3    H242114   4.381   0.437  14.761 -1.6495 -2.4602  0.1739
 6875TIP3   OH242115   4.403   0.591  15.232  0.2884 -0.4757 -0.0155
 6875TIP3    H142116   4.452   0.636  15.163 -0.5308  0.9807  0.3040
 6875TIP3    H242117   4.406   0.499  15.207  1.7934 -0.2393 -0.8564
 6876TIP3   OH242118   0.341   0.129  17.068 -0.2113  0.1316 -0.2197
 6876TIP3    H142119   0.261   0.110  17.117 -0.0486  0.7939  0.3169
 6876TIP3    H242120   0.383   0.044  17.057 -0.9201 -0.2078 -0.3935
 6877TIP3   OH242121   3.310   0.700  14.119  0.3213  0.0193 -0.4421
 6877TIP3    H142122   3.335   0.775  14.065  2.7500 -0.0799  0.4231
 6877TIP3    H242123   3.341   0.624  14.069 -0.8342 -0.3303 -0.6430
 6878TIP3   OH242124   6.761   3.400  15.192  0.1202 -0.6144 -0.0427
 6878TIP3    H142125   6.809   3.339  15.249  1.0538  0.5562  0.4585
 6878TIP3    H242126   6.829   3.441  15.138 -0.2670  1.2077  0.8000
 6879TIP3   OH242127   5.241   3.591   2.151 -0.2793 -0.5302  0.1195
 6879TIP3    H142128   5.163   3.539   2.133  0.0764 -0.6828 -1.0033
 6879TIP3    H242129   5.303   3.529   2.189 -0.9315 -0.2595  1.7396
 6880TIP3   OH242130   1.624   3.350   3.281 -0.2506  0.3088  0.5163
 6880TIP3    H142131   1.624   3.394   3.196 -2.6389  1.1946  0.8825
 6880TIP3    H242132   1.654   3.261   3.263 -2.2495 -0.0265 -1.6113
 6881TIP3   OH242133   5.890   6.836  15.513  0.5374 -0.7571 -0.5042
 6881TIP3    H142134   5.925   6.747  15.520 -1.3419 -1.4256  3.9767
 6881TIP3    H242135   5.811   6.827  15.460 -0.0136 -2.0144  0.4582
 6882TIP3   OH242136   3.464   0.064   3.072 -0.2540 -0.1564 -0.3317
 6882TIP3    H142137   3.374   0.092   3.086  0.1373  0.7256  0.6341
 6882TIP3    H242138   3.496   0.042   3.160  0.6011  0.0055 -0.5857
 6883TIP3   OH242139   3.297   5.998  14.506  0.6516 -0.6830 -0.8630
 6883TIP3    H142140   3.256   5.954  14.432 -2.2273  0.5975 -0.1787
 6883TIP3    H242141   3.284   5.940  14.581  1.4194 -0.9025 -0.8868
 6884TIP3   OH242142   5.751   2.308  11.779 -0.2889  0.4495  0.0493
 6884TIP3    H142143   5.840   2.306  11.817 -0.1870 -2.3604 -0.1236
 6884TIP3    H242144   5.697   2.347  11.848  0.8185  0.6627  0.8327
 6885TIP3   OH242145   5.884   4.877   0.074  0.1343 -0.1967 -0.2755
 6885TIP3    H142146   5.970   4.911   0.098  0.0555 -0.7334  0.8680
 6885TIP3    H242147   5.836   4.952   0.039 -0.0531  0.9283  2.1827
 6886TIP3   OH242148   3.009   5.489  16.119  0.5322  0.4505 -0.0277
 6886TIP3    H142149   3.041   5.573  16.086  0.8276  0.3524  0.0088
 6886TIP3    H242150   2.919   5.506  16.145  0.4503  0.6511 -0.4308
 6887TIP3   OH242151   3.098   2.258  15.658  0.3353  0.6426  0.1448
 6887TIP3    H142152   3.091   2.181  15.715  2.3703  0.6449  0.4750
 6887TIP3    H242153   3.067   2.227  15.572  3.3476 -1.3638 -0.3702
 6888TIP3   OH242154   4.048   6.728  11.100 -0.0721  0.2668 -0.2357
 6888TIP3    H142155   3.982   6.721  11.168 -1.8791  0.2828 -1.9042
 6888TIP3    H242156   4.043   6.645  11.053  0.4540  0.6303 -0.9495
 6889TIP3   OH242157   1.305   4.515   2.474 -0.0435  0.1390  0.2601
 6889TIP3    H142158   1.237   4.506   2.541 -1.2340 -1.4820 -1.0680
 6889TIP3    H242159   1.367   4.446   2.493 -1.1977 -1.3755 -1.1044
 6890TIP3   OH242160   3.279   0.314  13.071  0.5814  1.1060  0.5826
 6890TIP3    H142161   3.346   0.366  13.026  2.2267 -2.4837 -1.4897
 6890TIP3    H242162   3.212   0.300  13.005  0.5409 -0.0164  0.8545
 6891TIP3   OH242163   1.496   3.980   4.489  0.9310  0.5486  0.5191
 6891TIP3    H142164   1.563   3.972   4.420  0.7705  2.4714  0.0877
 6891TIP3    H242165   1.413   3.970   4.442  0.8383  1.2852  0.5212
 6892TIP3   OH242166   0.561   5.945  12.315 -0.5997 -0.3211  0.2982
 6892TIP3    H142167   0.625   5.943  12.243 -1.2399  1.8608 -0.4191
 6892TIP3    H242168   0.492   5.885  12.287 -0.1328 -0.6210 -0.2208
 6893TIP3   OH242169   5.603   2.555  12.632  0.6517  0.0372 -0.1864
 6893TIP3    H142170   5.679   2.542  12.688  0.7508 -0.5683 -0.4574
 6893TIP3    H242171   5.603   2.649  12.614  0.4120  0.3032  1.1013
 6894TIP3   OH242172   3.111   2.366   1.519 -0.7705  0.1179 -0.0574
 6894TIP3    H142173   3.143   2.280   1.490  0.6134  0.1381  1.2513
 6894TIP3    H242174   3.036   2.346   1.575  0.3236 -0.3817  1.2897
 6895TIP3   OH242175   5.284   3.431  14.179 -0.2311 -0.5283 -0.1867
 6895TIP3    H142176   5.198   3.467  14.159  0.1119  1.1775  1.1996
 6895TIP3    H242177   5.271   3.382  14.261 -0.5900 -3.3236 -1.8016
 6896TIP3   OH242178   3.474   6.103  15.403 -0.5823  0.3421  0.2130
 6896TIP3    H142179   3.558   6.059  15.390 -0.9670 -0.1801 -0.5585
 6896TIP3    H242180   3.424   6.043  15.459 -0.5561  0.5086  0.4171
 6897TIP3   OH242181   3.825   5.921  13.068  0.2342  0.0599  0.0982
 6897TIP3    H142182   3.793   5.840  13.028 -0.1652  0.9811 -1.5177
 6897TIP3    H242183   3.781   5.925  13.153  0.4264 -1.5049  0.2931
 6898TIP3   OH242184   2.278   6.073  14.888  0.9708  0.0497 -0.3336
 6898TIP3    H142185   2.186   6.048  14.893  0.2326  2.3787 -1.0444
 6898TIP3    H242186   2.326   5.994  14.914 -1.2404 -0.6739  1.9256
 6899TIP3   OH242187   3.833   2.865   3.569  0.3651 -0.2595 -0.1082
 6899TIP3    H142188   3.794   2.893   3.652  0.6299 -0.6970  0.1674
 6899TIP3    H242189   3.878   2.943   3.537 -0.1948  0.0674 -0.1129
 6900TIP3   OH242190   3.721   5.328  11.340 -0.5398 -0.4633  0.4073
 6900TIP3    H142191   3.780   5.253  11.348 -1.7598 -1.5025 -0.0955
 6900TIP3    H242192   3.765   5.398  11.389  0.0706 -1.8320  1.9102
 6901TIP3   OH242193   0.330   2.736  13.151  0.4037  0.3093  0.2378
 6901TIP3    H142194   0.271   2.727  13.076  0.1495  0.3525  0.4328
 6901TIP3    H242195   0.380   2.654  13.151  1.1577  0.7493 -0.6208
 6902TIP3   OH242196   6.418   2.006   3.374  0.0452 -0.2690  1.2505
 6902TIP3    H142197   6.438   1.915   3.393  0.1945 -0.1051  1.9173
 6902TIP3    H242198   6.420   2.049   3.460 -0.6106  0.2434  1.0191
 6903TIP3   OH242199   1.363   1.668   3.837  0.2517  0.7036  0.3564
 6903TIP3    H142200   1.292   1.641   3.778  1.2241 -1.7806  0.2009
 6903TIP3    H242201   1.412   1.732   3.787  1.2023 -1.5177 -1.7868
 6904TIP3   OH242202   1.945   4.939  15.375  0.1273 -0.3179  0.2527
 6904TIP3    H142203   1.924   4.964  15.285  2.1011  0.0398 -0.1518
 6904TIP3    H242204   1.916   5.013  15.429  2.7978  1.4723 -0.5762
 6905TIP3   OH242205   6.399   3.962  11.589  0.3234 -0.0558 -0.3778
 6905TIP3    H142206   6.358   4.031  11.642 -1.3434  0.6496 -2.4220
 6905TIP3    H242207   6.425   4.007  11.508  3.4417 -0.9362  0.0166
 6906TIP3   OH242208   6.562   5.227  14.486 -0.0473  0.1074 -0.1472
 6906TIP3    H142209   6.569   5.307  14.539  0.8403 -1.1197  1.6829
 6906TIP3    H242210   6.547   5.259  14.397  1.0450  2.3409  0.3960
 6907TIP3   OH242211   5.690   1.457  13.403  0.0715  0.0526 -0.2011
 6907TIP3    H142212   5.670   1.379  13.456 -2.4390  2.3848  2.6742
 6907TIP3    H242213   5.750   1.508  13.458 -0.5314  1.3791 -0.7477
 6908TIP3   OH242214   5.859   6.549  14.970 -0.7592 -0.5361  0.3238
 6908TIP3    H142215   5.784   6.548  14.911 -0.8010  0.0445  0.3692
 6908TIP3    H242216   5.828   6.507  15.050 -0.7269 -1.2540 -0.0345
 6909TIP3   OH242217   2.597   3.475  16.447 -0.1926 -0.0810 -0.3134
 6909TIP3    H142218   2.532   3.440  16.386 -1.0491  2.4079 -0.9643
 6909TIP3    H242219   2.659   3.522  16.391  2.0236 -2.0852  0.3328
 6910TIP3   OH242220   3.221   4.645  11.829  0.1726  0.4784 -0.9757
 6910TIP3    H142221   3.129   4.666  11.844  0.6208  2.1701 -0.3028
 6910TIP3    H242222   3.230   4.647  11.734 -0.2072  1.7216 -1.0045
 6911TIP3   OH242223   4.235   3.674  16.895  0.3486 -0.2399  0.6772
 6911TIP3    H142224   4.154   3.644  16.854  0.7337 -0.4310  0.0397
 6911TIP3    H242225   4.285   3.714  16.824 -0.6684  3.1499  1.6774
 6912TIP3   OH242226   0.489   4.517  12.580 -0.0306  0.2982 -0.3548
 6912TIP3    H142227   0.410   4.463  12.579 -0.8968  1.5233 -0.7825
 6912TIP3    H242228   0.560   4.456  12.556 -0.7629 -0.9041  0.4081
 6913TIP3   OH242229   5.277   3.936  12.056  0.0518  0.0211 -0.1074
 6913TIP3    H142230   5.330   3.888  11.992  1.1842 -0.8676  1.4357
 6913TIP3    H242231   5.265   3.875  12.129 -2.5986  0.4286 -0.1046
 6914TIP3   OH242232   5.773   4.581  13.644 -0.5472  0.0291  0.2331
 6914TIP3    H142233   5.818   4.497  13.636 -1.0305 -0.4045  1.7003
 6914TIP3    H242234   5.680   4.560  13.630 -0.9196 -0.0775  2.4357
 6915TIP3   OH242235   1.359   1.147   1.625  0.0503  0.1038  0.0455
 6915TIP3    H142236   1.365   1.208   1.699  1.3446 -0.5617  0.5216
 6915TIP3    H242237   1.350   1.203   1.548 -1.5450  0.8052  0.7117
 6916TIP3   OH242238   3.490   4.848  13.659 -0.2642 -0.1013 -0.1353
 6916TIP3    H142239   3.484   4.872  13.752 -1.0301 -0.7767  0.0047
 6916TIP3    H242240   3.453   4.923  13.613  0.7635  0.5333  0.0520
 6917TIP3   OH242241   4.350   3.107  13.586 -0.1694 -0.0937 -0.0456
 6917TIP3    H142242   4.294   3.137  13.658 -1.1088  1.1526 -1.2354
 6917TIP3    H242243   4.314   3.022  13.561  0.4032 -0.7143  1.1732
 6918TIP3   OH242244   5.517   0.342   3.875 -0.1402  0.0263  0.4316
 6918TIP3    H142245   5.472   0.276   3.927  0.2434 -1.5845 -1.2081
 6918TIP3    H242246   5.459   0.358   3.800  0.7044  0.0099 -0.2422
 6919TIP3   OH242247   3.859   2.368  14.476 -0.2967  0.3125  0.5279
 6919TIP3    H142248   3.917   2.396  14.547 -0.2542 -0.0778  0.6528
 6919TIP3    H242249   3.792   2.314  14.520 -1.5555  1.8528  0.5955
 6920TIP3   OH242250   3.194   5.293   1.150 -0.3039 -0.5830  0.1776
 6920TIP3    H142251   3.100   5.278   1.163 -0.2754 -1.5328 -0.5851
 6920TIP3    H242252   3.236   5.214   1.183  0.0604 -1.1303 -1.4852
 6921TIP3   OH242253   1.661   2.322   3.512 -0.4935 -0.1182 -0.2008
 6921TIP3    H142254   1.719   2.367   3.451 -0.0902  0.1864  0.3987
 6921TIP3    H242255   1.670   2.370   3.594 -0.5727 -0.8776  0.2672
 6922TIP3   OH242256   5.366   0.310  15.371  0.1296  0.4733 -0.0894
 6922TIP3    H142257   5.372   0.276  15.281 -0.1307 -1.2349  0.4936
 6922TIP3    H242258   5.404   0.397  15.366  0.4037  0.3011 -1.8032
 6923TIP3   OH242259   0.428   0.776   3.142 -0.3433 -0.6151 -0.3035
 6923TIP3    H142260   0.438   0.796   3.049 -1.2390 -1.6062 -0.6306
 6923TIP3    H242261   0.507   0.811   3.182 -0.4582  0.8231 -1.2629
 6924TIP3   OH242262   3.030   4.568  12.926  0.0048  0.3406  0.1488
 6924TIP3    H142263   3.122   4.555  12.948 -0.1785  0.2170  0.8347
 6924TIP3    H242264   3.005   4.647  12.974  0.1399  1.2514 -1.1839
 6925TIP3   OH242265   6.644   2.859  13.569 -0.4383 -0.1776 -0.2731
 6925TIP3    H142266   6.643   2.770  13.536  0.0105 -0.3527  0.1629
 6925TIP3    H242267   6.564   2.867  13.621 -1.1031  0.0750 -1.3033
 6926TIP3   OH242268   5.886   4.736  15.805  0.4302 -0.0139 -1.3526
 6926TIP3    H142269   5.889   4.646  15.839  2.1619 -0.2421 -1.9945
 6926TIP3    H242270   5.799   4.743  15.764  0.4070 -1.5326 -1.6340
 6927TIP3   OH242271   0.876   2.716  14.668  0.3820  0.1443  0.1013
 6927TIP3    H142272   0.874   2.656  14.742  0.6513  1.5948  1.3298
 6927TIP3    H242273   0.798   2.694  14.617 -0.2927 -0.2993  1.2945
 6928TIP3   OH242274   1.598   6.294  11.843  0.2101 -0.3859  0.4659
 6928TIP3    H142275   1.602   6.343  11.925 -0.3280 -0.8215  0.7557
 6928TIP3    H242276   1.510   6.255  11.842  0.1428 -0.2411 -0.3975
 6929TIP3   OH242277   5.950   1.516   2.255  0.0703  0.1413  0.3869
 6929TIP3    H142278   5.958   1.537   2.347  0.0348 -1.5234  0.8127
 6929TIP3    H242279   6.035   1.537   2.217  0.7427 -0.9546  1.2195
 6930TIP3   OH242280   4.612   4.853  10.282  0.3233 -0.1252 -0.3985
 6930TIP3    H142281   4.610   4.758  10.290  3.2761 -0.3442 -1.2060
 6930TIP3    H242282   4.623   4.884  10.372 -1.2495 -0.4538 -0.0601
 6931TIP3   OH242283   0.741   1.976   3.991 -0.3266 -0.9564  0.2266
 6931TIP3    H142284   0.791   1.954   4.070 -0.1219 -0.7944  0.1399
 6931TIP3    H242285   0.715   2.067   4.003  2.1056  0.0043 -1.1631
 6932TIP3   OH242286   0.782   0.690  11.977  0.0625 -0.3185  0.4503
 6932TIP3    H142287   0.709   0.718  11.923  0.6037 -1.3403 -0.8540
 6932TIP3    H242288   0.801   0.601  11.948  2.2681  0.1518  0.2489
 6933TIP3   OH242289   2.086   4.478   4.890  0.3445  0.4042 -0.0827
 6933TIP3    H142290   2.145   4.553   4.898  0.0736  0.8138 -1.6408
 6933TIP3    H242291   2.123   4.412   4.949  1.0777  1.4420  0.6497
 6934TIP3   OH242292   4.148   1.882   2.670  0.1453 -0.3596  0.2282
 6934TIP3    H142293   4.101   1.892   2.587 -1.3910 -0.4727  1.0451
 6934TIP3    H242294   4.090   1.828   2.724  0.4584  0.8852  1.8702
 6935TIP3   OH242295   2.874   2.908   0.652 -0.5148  0.2719  0.5637
 6935TIP3    H142296   2.857   2.929   0.560 -1.3716 -0.1584  0.6182
 6935TIP3    H242297   2.792   2.870   0.684 -0.6180  1.4721  1.8189
 6936TIP3   OH242298   0.106   5.051  16.623  0.6415  0.2983  0.7526
 6936TIP3    H142299   0.081   5.143  16.626  1.6270  0.5571  1.5507
 6936TIP3    H242300   0.104   5.028  16.530  0.8911  1.2601  0.5019
 6937TIP3   OH242301   4.321   6.753   3.805  0.0413 -0.1598 -0.5068
 6937TIP3    H142302   4.405   6.793   3.784  0.8268 -1.5800 -0.1942
 6937TIP3    H242303   4.270   6.823   3.846  1.8961  0.1450  1.4041
 6938TIP3   OH242304   6.142   1.130  13.443 -0.0179 -1.1660  0.3164
 6938TIP3    H142305   6.126   1.095  13.531 -1.0912 -1.8152 -0.1096
 6938TIP3    H242306   6.217   1.079  13.411  1.0601 -0.1966  1.2268
 6939TIP3   OH242307   3.568   2.543  15.753 -0.1041  0.4014  0.0304
 6939TIP3    H142308   3.506   2.548  15.681 -1.0111  0.7426  0.8154
 6939TIP3    H242309   3.651   2.571  15.714  0.0217 -1.7934 -1.4804
 6940TIP3   OH242310   5.309   1.854   0.900 -0.8503 -0.0090 -0.3931
 6940TIP3    H142311   5.355   1.932   0.869  0.1684 -0.6212 -0.4568
 6940TIP3    H242312   5.282   1.877   0.989  3.7533 -1.1887  1.6090
 6941TIP3   OH242313   4.434   2.114   5.549 -0.3870  0.3929 -0.7033
 6941TIP3    H142314   4.473   2.062   5.478 -0.1008 -0.4616  0.0579
 6941TIP3    H242315   4.381   2.180   5.504  1.2203  1.0461 -1.7705
 6942TIP3   OH242316   2.998   6.320  14.804 -0.1384 -0.2078  0.0302
 6942TIP3    H142317   3.078   6.319  14.752  0.1846 -0.6697  0.5329
 6942TIP3    H242318   2.939   6.378  14.756  0.4650  0.0672 -0.3865
 6943TIP3   OH242319   5.131   2.964   0.932 -0.1851 -0.3151  0.2980
 6943TIP3    H142320   5.128   3.015   1.013  0.9420  0.0305  0.1478
 6943TIP3    H242321   5.066   3.005   0.875  1.5492  1.8266 -0.2764
 6944TIP3   OH242322   6.805   0.486   0.613  0.0583  0.1222 -0.2150
 6944TIP3    H142323   6.782   0.430   0.539 -0.7457  0.0443  0.0908
 6944TIP3    H242324   6.726   0.490   0.667 -0.2250  2.3141 -0.7020
 6945TIP3   OH242325   6.290   5.544   2.763  0.1258  0.3059 -0.4272
 6945TIP3    H142326   6.269   5.617   2.821 -1.7472 -1.3934  1.2401
 6945TIP3    H242327   6.224   5.548   2.694 -1.8792 -1.2811  1.2253
 6946TIP3   OH242328   5.418   0.629  11.910  0.7482 -0.0524  0.2374
 6946TIP3    H142329   5.462   0.638  11.825  1.1197  1.2672  0.5342
 6946TIP3    H242330   5.483   0.660  11.974  0.4276 -0.8970  0.9901
 6947TIP3   OH242331   2.915   5.702   3.682  1.0288 -0.7007 -0.1023
 6947TIP3    H142332   2.931   5.759   3.607 -0.8042  0.1616  0.0936
 6947TIP3    H242333   3.002   5.675   3.712  1.9980  2.0034 -0.2065
 6948TIP3   OH242334   1.350   0.509   2.442 -0.1492 -0.1766 -0.4357
 6948TIP3    H142335   1.341   0.602   2.462  1.0738 -0.3629  1.1769
 6948TIP3    H242336   1.314   0.500   2.353  1.1302  2.0981 -1.2692
 6949TIP3   OH242337   3.454   0.841  12.265 -0.6044 -0.0229 -0.3189
 6949TIP3    H142338   3.490   0.929  12.258 -1.2680  0.2872  0.0262
 6949TIP3    H242339   3.361   0.851  12.244 -0.5302 -0.7815 -1.0752
 6950TIP3   OH242340   4.954   1.757  12.925  0.5726 -0.4409 -0.2785
 6950TIP3    H142341   5.043   1.727  12.942  0.5471 -0.7372 -0.6629
 6950TIP3    H242342   4.964   1.827  12.860  0.4131 -1.4673 -1.4368
 6951TIP3   OH242343   5.544   4.565   4.787 -0.5531  0.1285 -0.0453
 6951TIP3    H142344   5.628   4.550   4.832 -1.4413 -1.9119  1.0790
 6951TIP3    H242345   5.506   4.641   4.832  0.2179  0.4266  0.1229
 6952TIP3   OH242346   2.430   5.006  16.785  0.1584 -0.2236 -0.2129
 6952TIP3    H142347   2.500   4.997  16.721  2.2584 -1.2086  2.0415
 6952TIP3    H242348   2.459   5.077  16.842 -0.5270 -0.8214  0.9074
 6953TIP3   OH242349   2.659   1.243   4.623  0.3726  0.1123 -0.3988
 6953TIP3    H142350   2.743   1.256   4.579  1.7519 -0.3551  1.8974
 6953TIP3    H242351   2.625   1.332   4.636  1.8701  0.5463  0.9720
 6954TIP3   OH242352   1.111   4.126  16.213 -0.1337  0.8866  0.0525
 6954TIP3    H142353   1.031   4.160  16.252 -0.2721 -1.4218  2.0469
 6954TIP3    H242354   1.178   4.140  16.280  0.3681 -0.2326 -0.1941
 6955TIP3   OH242355   0.393   0.250  12.060 -0.5283  0.7148 -0.0626
 6955TIP3    H142356   0.470   0.216  12.105  0.4373 -0.8835 -2.7365
 6955TIP3    H242357   0.324   0.247  12.126  1.1156 -0.0849  1.7192
 6956TIP3   OH242358   3.390   2.070   3.269 -0.3273  0.2065 -0.1379
 6956TIP3    H142359   3.338   1.991   3.259 -1.5524  1.0278 -0.3935
 6956TIP3    H242360   3.327   2.142   3.263  0.5565  1.1697  1.5206
 6957TIP3   OH242361   6.101   4.077  12.761 -0.4114 -0.1236  0.0079
 6957TIP3    H142362   6.051   4.118  12.831 -1.7288 -0.9515 -0.4095
 6957TIP3    H242363   6.081   3.983  12.769  0.1032 -0.3282 -0.9427
 6958TIP3   OH242364   4.203   4.121  16.070  0.2853 -0.0192 -0.4917
 6958TIP3    H142365   4.222   4.200  16.019  0.2004 -0.5982 -1.4441
 6958TIP3    H242366   4.193   4.052  16.005 -3.0682 -0.2077  0.0359
 6959TIP3   OH242367   0.853   4.648  16.720 -0.1844  0.3378 -0.0127
 6959TIP3    H142368   0.895   4.693  16.646 -3.1365  0.4030 -1.8207
 6959TIP3    H242369   0.779   4.703  16.743 -0.8976 -1.0465  1.2071
 6960TIP3   OH242370   1.126   4.257  17.045 -0.2245 -0.1269 -0.1473
 6960TIP3    H142371   1.080   4.319  16.988 -0.1633  2.0617  2.0276
 6960TIP3    H242372   1.201   4.228  16.992 -0.7880  0.8986 -1.5884
 6961TIP3   OH242373   5.980   4.568   0.241 -0.1776  0.6271  0.1989
 6961TIP3    H142374   5.966   4.473   0.243  1.0030  0.4164 -0.5251
 6961TIP3    H242375   6.023   4.587   0.325  0.8167  0.2918 -0.2190
 6962TIP3   OH242376   4.084   0.855   3.327 -0.4714  0.3121  0.2061
 6962TIP3    H142377   4.087   0.947   3.356  0.2322  0.2775  0.2667
 6962TIP3    H242378   4.031   0.857   3.248 -1.9482  0.4956  1.1587
 6963TIP3   OH242379   5.541   6.299  13.943  0.3582 -0.3630  0.3177
 6963TIP3    H142380   5.559   6.224  13.887 -1.3132 -0.5457 -0.0516
 6963TIP3    H242381   5.502   6.364  13.884 -0.0765  0.0018  0.9916
 6964TIP3   OH242382   4.114   1.379   5.126  0.0675 -0.1588 -0.0419
 6964TIP3    H142383   4.028   1.422   5.120 -0.4382 -1.1600 -0.2704
 6964TIP3    H242384   4.159   1.404   5.045 -1.8714 -3.4144 -2.3993
 6965TIP3   OH242385   5.365   6.836   0.885  0.4323 -0.4436 -0.2945
 6965TIP3    H142386   5.444   6.797   0.846  0.1611 -0.4744 -0.8183
 6965TIP3    H242387   5.343   6.777   0.957  0.7178 -0.5963 -0.3285
 6966TIP3   OH242388   5.434   4.901  11.712  0.1376 -0.0214  0.0668
 6966TIP3    H142389   5.425   4.939  11.625  0.4901  0.0791  0.0733
 6966TIP3    H242390   5.526   4.875  11.718  0.5578  1.5096  1.0153
 6967TIP3   OH242391   6.767   1.872  16.734 -0.3287 -0.4592 -0.5361
 6967TIP3    H142392   6.781   1.905  16.823 -1.2134  0.5683 -0.7553
 6967TIP3    H242393   6.690   1.815  16.742 -0.1477 -0.7141 -0.5755
 6968TIP3   OH242394   0.655   5.523   3.651 -0.3705 -0.8651  0.5790
 6968TIP3    H142395   0.697   5.456   3.705 -0.6927 -1.7246 -0.2061
 6968TIP3    H242396   0.566   5.490   3.636 -0.6999 -0.0098  0.6088
 6969TIP3   OH242397   6.230   5.323  12.796 -0.4778 -0.1537 -0.0054
 6969TIP3    H142398   6.324   5.329  12.815 -0.4715  0.7774 -0.3040
 6969TIP3    H242399   6.210   5.401  12.744 -0.8729 -1.6585 -2.2753
 6970TIP3   OH242400   4.526   1.721  15.353 -0.1941  0.1174 -0.7264
 6970TIP3    H142401   4.606   1.702  15.305  1.5034  2.6674  0.8786
 6970TIP3    H242402   4.531   1.667  15.432  0.7524  1.3985  0.1120
 6971TIP3   OH242403   5.408   0.184  14.610 -0.5298  0.1467  0.4964
 6971TIP3    H142404   5.390   0.215  14.522  0.4049 -1.3851 -0.2654
 6971TIP3    H242405   5.472   0.247  14.644 -1.0752  0.8827  0.2081
 6972TIP3   OH242406   1.239   2.742  14.910  0.7877 -0.3912  0.3574
 6972TIP3    H142407   1.238   2.796  14.831  2.4961 -0.8306 -0.0130
 6972TIP3    H242408   1.219   2.803  14.981 -1.2836 -0.0840 -0.4191
 6973TIP3   OH242409   1.345   3.193   5.892 -0.1150 -0.2725 -0.1410
 6973TIP3    H142410   1.439   3.200   5.907  0.0027 -1.3911 -0.2193
 6973TIP3    H242411   1.322   3.108   5.929 -1.0833 -0.0388 -0.1910
 6974TIP3   OH242412   5.006   4.263  14.357 -0.3141  0.2670 -0.0358
 6974TIP3    H142413   4.935   4.235  14.415 -1.3265 -0.9631 -1.7643
 6974TIP3    H242414   5.069   4.306  14.415 -3.2680  3.1867  1.3744
 6975TIP3   OH242415   4.897   1.410  15.079 -0.2018  0.2881 -0.5277
 6975TIP3    H142416   4.889   1.318  15.054 -0.9797  0.2472 -0.1713
 6975TIP3    H242417   4.965   1.445  15.022 -3.3829  0.7953 -4.4792
 6976TIP3   OH242418   3.065   0.530  10.799  0.1274  0.5064  0.2172
 6976TIP3    H142419   3.151   0.566  10.779  0.5514 -1.1060 -1.1497
 6976TIP3    H242420   3.026   0.592  10.860  2.1708  1.3778  0.7135
 6977TIP3   OH242421   0.138   1.659   0.405 -0.0338  0.7161  0.6573
 6977TIP3    H142422   0.102   1.631   0.321  3.6797  0.1581 -0.9491
 6977TIP3    H242423   0.145   1.755   0.397 -2.0614  0.9706  1.4604
 6978TIP3   OH242424   3.106   4.425   1.704  0.2668 -0.5262  0.5109
 6978TIP3    H142425   3.129   4.454   1.615  1.6253  1.3315  1.3831
 6978TIP3    H242426   3.015   4.450   1.714  0.4509  0.4145  0.0352
 6979TIP3   OH242427   0.331   1.813   5.159 -0.0504  0.4519 -0.3335
 6979TIP3    H142428   0.343   1.850   5.247 -1.5485  0.2175 -0.0027
 6979TIP3    H242429   0.375   1.875   5.101 -2.2727  2.7057  0.2233
 6980TIP3   OH242430   3.187   0.603   2.326 -0.3667 -0.6392  0.4153
 6980TIP3    H142431   3.132   0.590   2.403 -0.5873  0.8572  0.5577
 6980TIP3    H242432   3.255   0.537   2.333 -1.2792 -1.5323  1.0578
 6981TIP3   OH242433   3.997   4.933  10.576  0.0878  0.5372 -0.3323
 6981TIP3    H142434   4.073   4.961  10.524  0.0700  0.8704 -0.1770
 6981TIP3    H242435   3.993   4.838  10.562  1.3314  0.3030  0.6921
 6982TIP3   OH242436   5.424   1.191  14.956 -0.1788 -0.3803 -0.2957
 6982TIP3    H142437   5.410   1.273  14.909 -0.6629 -0.0180  0.4624
 6982TIP3    H242438   5.341   1.174  15.000  0.8055  0.2749  1.9263
 6983TIP3   OH242439   0.500   0.766  16.562  0.3002 -0.2554 -0.1359
 6983TIP3    H142440   0.450   0.841  16.593  0.0205 -0.4032 -0.2277
 6983TIP3    H242441   0.469   0.693  16.615  0.8921 -0.2242  0.2615
 6984TIP3   OH242442   5.125   0.824   0.860  0.3516 -0.1687 -0.5391
 6984TIP3    H142443   5.076   0.846   0.938  0.7832 -0.1201 -0.2806
 6984TIP3    H242444   5.067   0.766   0.811 -0.8905  1.6404 -1.3323
 6985TIP3   OH242445   6.288   2.450  13.243 -0.4025 -0.2206  0.3706
 6985TIP3    H142446   6.193   2.437  13.251 -0.0880 -3.2454  0.3228
 6985TIP3    H242447   6.310   2.416  13.156  0.9853 -1.7995  1.2850
 6986TIP3   OH242448   6.416   4.037   1.517  0.0934 -0.4717  0.4865
 6986TIP3    H142449   6.470   4.116   1.516  0.8637 -0.9584 -1.3629
 6986TIP3    H242450   6.360   4.047   1.594  0.8711  1.3781  0.8740
 6987TIP3   OH242451   4.693   3.849  13.115  0.3846 -0.3115  0.4995
 6987TIP3    H142452   4.757   3.918  13.130  0.0039  0.3634 -0.7690
 6987TIP3    H242453   4.733   3.770  13.152  1.0047  0.4948  1.6019
 6988TIP3   OH242454   1.471   5.349   5.293  0.3168 -0.1720  1.0354
 6988TIP3    H142455   1.448   5.257   5.279 -0.5542  0.1329  0.4211
 6988TIP3    H242456   1.427   5.396   5.223  0.5005  0.7542  1.5286
 6989TIP3   OH242457   6.020   4.511   4.946 -0.3096  0.0781 -0.5215
 6989TIP3    H142458   6.051   4.582   5.002 -0.3427  1.2032 -1.8684
 6989TIP3    H242459   6.084   4.441   4.957 -0.6665  0.0125  1.3825
 6990TIP3   OH242460   3.611   1.824   4.846 -0.9733 -0.2116  0.1649
 6990TIP3    H142461   3.619   1.909   4.888 -0.6330 -1.8151  3.7372
 6990TIP3    H242462   3.522   1.822   4.812 -1.2374  1.2957  0.7016
 6991TIP3   OH242463   2.523   0.444   3.916 -0.3763 -0.2805 -0.3473
 6991TIP3    H142464   2.482   0.358   3.909 -1.6529  0.4230 -2.2854
 6991TIP3    H242465   2.459   0.497   3.965  0.8212 -0.6259  1.6890
 6992TIP3   OH242466   2.207   5.532  16.945  0.0777 -0.5211  0.0515
 6992TIP3    H142467   2.201   5.478  16.866  2.1898  0.8872 -1.1569
 6992TIP3    H242468   2.229   5.620  16.913  1.8418 -0.0739  2.2216
 6993TIP3   OH242469   5.163   1.062  15.497  0.3640 -0.2377  0.6525
 6993TIP3    H142470   5.256   1.057  15.519  0.6434 -1.1948 -0.6212
 6993TIP3    H242471   5.122   1.101  15.575  1.6759 -0.7221  1.6267
 6994TIP3   OH242472   1.166   4.845  15.422  0.1533  0.3263 -0.0543
 6994TIP3    H142473   1.151   4.803  15.507  0.6066 -0.4939 -0.3651
 6994TIP3    H242474   1.109   4.922  15.423  1.0368  1.0025  1.4658
 6995TIP3   OH242475   0.961   5.942   4.731 -0.2738 -0.2575 -0.6220
 6995TIP3    H142476   0.970   5.967   4.823  0.0362  0.3007 -0.7975
 6995TIP3    H242477   0.951   5.847   4.732 -3.5830 -0.0314  0.2588
 6996TIP3   OH242478   2.484   3.932   0.273  0.1377  0.0092  0.1599
 6996TIP3    H142479   2.562   3.975   0.237 -0.9199  1.7437 -0.1910
 6996TIP3    H242480   2.511   3.842   0.288  0.9643 -0.6503 -4.1359
 6997TIP3   OH242481   1.583   4.762   6.059 -0.0241 -0.2736  0.4511
 6997TIP3    H142482   1.607   4.835   6.117  1.9975  0.3637 -1.0345
 6997TIP3    H242483   1.607   4.794   5.971 -2.3653 -1.4336 -0.6871
 6998TIP3   OH242484   1.887   4.384  12.350  0.6019  0.1570  0.3966
 6998TIP3    H142485   1.948   4.311  12.339  0.6739  0.3559 -0.6315
 6998TIP3    H242486   1.915   4.449  12.285 -0.1180  0.6500  0.5641
 6999TIP3   OH242487   3.018   3.517   6.080  0.7404  0.1519  0.2975
 6999TIP3    H142488   3.009   3.606   6.114 -0.7846 -1.0905  3.4690
 6999TIP3    H242489   2.930   3.480   6.085  1.4733 -1.7836 -0.2987
 7000TIP3   OH242490   3.737   1.156   4.946  0.1643 -0.5854 -0.3897
 7000TIP3    H142491   3.642   1.148   4.945  0.1448 -0.3199 -0.8835
 7000TIP3    H242492   3.760   1.158   5.039 -0.2660 -1.1297 -0.2642
 7001TIP3   OH242493   6.720   6.279   3.162  0.6494 -0.5608 -0.0996
 7001TIP3    H142494   6.693   6.314   3.247 -0.8118  1.0822 -1.1764
 7001TIP3    H242495   6.646   6.225   3.134  0.8198 -0.5207 -0.6447
 7002TIP3   OH242496   3.598   5.866  12.695 -0.1084  0.3332 -0.1730
 7002TIP3    H142497   3.609   5.820  12.779  2.3507 -0.5694 -0.9210
 7002TIP3    H242498   3.540   5.809  12.645 -0.1912 -0.0041  0.2935
 7003TIP3   OH242499   1.684   6.830   5.526  0.0626 -0.5187  0.7304
 7003TIP3    H142500   1.599   6.808   5.488  0.4425 -1.1485  0.2409
 7003TIP3    H242501   1.697   6.763   5.594  0.1891 -0.4446  0.7783
 7004TIP3   OH242502   0.790   1.027  15.385 -0.1463 -0.6530  0.2192
 7004TIP3    H142503   0.763   1.114  15.413  1.4978 -0.0413  0.0254
 7004TIP3    H242504   0.783   1.028  15.290  0.6523 -0.4337  0.1543
 7005TIP3   OH242505   3.802   6.128   6.221  0.2004  0.4414 -0.4740
 7005TIP3    H142506   3.786   6.197   6.285 -0.2224 -1.4086  1.4957
 7005TIP3    H242507   3.730   6.136   6.158 -0.8639  0.6593  0.7493
 7006TIP3   OH242508   4.678   3.294   6.309 -0.0879  0.0693 -0.3768
 7006TIP3    H142509   4.643   3.381   6.292 -1.6595 -0.6232 -0.8843
 7006TIP3    H242510   4.641   3.239   6.240  1.1760 -0.9419 -0.2931
 7007TIP3   OH242511   0.283   5.541   5.555  0.3469 -0.2679  0.0112
 7007TIP3    H142512   0.214   5.602   5.581  1.6825  1.1742  0.2624
 7007TIP3    H242513   0.326   5.516   5.637 -0.2537 -1.7156 -0.0641
 7008TIP3   OH242514   1.534   4.753  16.007  0.2391 -0.2453  0.3438
 7008TIP3    H142515   1.627   4.733  16.013  0.2680 -0.1530  0.2185
 7008TIP3    H242516   1.491   4.668  15.996  0.4727 -0.1666 -1.5034
 7009TIP3   OH242517   4.993   2.195  11.889  0.4049 -0.1338 -0.4746
 7009TIP3    H142518   5.004   2.290  11.898  1.4414 -0.2757 -0.0628
 7009TIP3    H242519   5.053   2.171  11.818 -3.2786  0.1147 -4.0159
 7010TIP3   OH242520   2.337   2.554  14.037  0.3505  0.1352  0.1070
 7010TIP3    H142521   2.400   2.624  14.023 -0.4441  0.6522 -1.0215
 7010TIP3    H242522   2.344   2.533  14.130  0.5210  1.7873  0.4871
 7011TIP3   OH242523   2.619   3.792  13.147  0.5213  0.5337 -0.0798
 7011TIP3    H142524   2.651   3.718  13.096  0.6756  1.3031 -1.1364
 7011TIP3    H242525   2.685   3.860  13.134  0.5143  0.7885  1.0816
 7012TIP3   OH242526   2.115   1.307   1.276  0.2478  0.1869 -0.4992
 7012TIP3    H142527   2.201   1.321   1.314  1.7220 -0.2662 -3.4208
 7012TIP3    H242528   2.099   1.213   1.284  0.4992  0.1108 -0.9025
 7013TIP3   OH242529   5.074   5.491  13.802  0.6689  0.2671  0.5726
 7013TIP3    H142530   5.089   5.504  13.708  0.3293 -1.2528  0.2932
 7013TIP3    H242531   5.161   5.483  13.839  0.8035  0.7806  0.3845
 7014TIP3   OH242532   6.032   5.649  11.959 -0.1712  0.3794 -0.2562
 7014TIP3    H142533   6.102   5.604  12.006 -1.3209 -1.0217  0.1889
 7014TIP3    H242534   6.070   5.668  11.873 -0.0187 -2.7732 -1.0004
 7015TIP3   OH242535   5.858   1.286  16.193  0.2561 -0.2097 -0.6837
 7015TIP3    H142536   5.937   1.338  16.211 -0.1964 -0.0459  1.0315
 7015TIP3    H242537   5.814   1.333  16.122  0.3059  1.2926  0.2327
 7016TIP3   OH242538   6.197   4.240  14.380 -0.1035 -0.2760 -0.3109
 7016TIP3    H142539   6.147   4.289  14.446  0.6356 -0.2039  0.2084
 7016TIP3    H242540   6.204   4.301  14.306 -1.2137 -0.4748 -0.5975
 7017TIP3   OH242541   0.347   0.019   4.960  0.0367  0.5915  0.5159
 7017TIP3    H142542   0.295  -0.029   5.024 -0.9424 -0.0008 -0.6752
 7017TIP3    H242543   0.435   0.020   4.997 -0.0142 -1.6444  0.8829
 7018TIP3   OH242544   0.720   3.260  11.911  0.7003  0.4933  0.3791
 7018TIP3    H142545   0.720   3.209  11.991  0.8782 -0.7031 -0.3604
 7018TIP3    H242546   0.713   3.351  11.940 -1.5561 -0.0239  1.6726
 7019TIP3   OH242547   6.575   0.358   5.325 -0.3316 -0.1460  0.4899
 7019TIP3    H142548   6.652   0.399   5.285  0.6274 -0.1433  2.2228
 7019TIP3    H242549   6.604   0.268   5.344 -0.5521  0.0049  1.6137
 7020TIP3   OH242550   2.086   3.228  11.837 -0.1844 -0.3791  1.0061
 7020TIP3    H142551   2.122   3.238  11.749 -0.2996 -1.6875  0.7960
 7020TIP3    H242552   2.114   3.307  11.883  0.8232 -0.2019  0.1283
 7021TIP3   OH242553   4.348   1.150  12.823  0.6082  0.3925  0.3760
 7021TIP3    H142554   4.374   1.130  12.913  0.9779 -0.0177  0.1829
 7021TIP3    H242555   4.404   1.224  12.798 -0.1835  1.1614  0.8083
 7022TIP3   OH242556   4.972   2.219   6.368 -0.1877  0.3443  0.7496
 7022TIP3    H142557   4.902   2.190   6.309  0.0920  0.3524  0.4080
 7022TIP3    H242558   4.939   2.300   6.406 -0.4712  0.2137  0.7824
 7023TIP3   OH242559   5.175   0.240  11.434  0.0297  0.2788  0.2124
 7023TIP3    H142560   5.217   0.313  11.388 -1.7112  1.4242  0.3626
 7023TIP3    H242561   5.248   0.192  11.473  1.2823  1.4799 -0.5427
 7024TIP3   OH242562   1.291   6.384  11.269  0.4583 -0.1269  0.4504
 7024TIP3    H142563   1.311   6.477  11.255 -1.5215  0.3994  0.7272
 7024TIP3    H242564   1.222   6.385  11.335  1.9735 -1.9601  2.1591
 7025TIP3   OH242565   4.070   1.229  16.434  0.2582  0.0057  0.5737
 7025TIP3    H142566   4.115   1.169  16.374  0.0157 -1.2514  1.5841
 7025TIP3    H242567   4.138   1.288  16.466  0.5754  0.0515 -0.1798
 7026TIP3   OH242568   4.679   5.516  16.501 -0.8749  0.1459  0.1188
 7026TIP3    H142569   4.740   5.482  16.435 -1.5385 -0.8067 -0.0271
 7026TIP3    H242570   4.621   5.575  16.452 -0.0638  1.0878  0.2637
 7027TIP3   OH242571   5.560   5.976   1.683  0.0639  0.5292  0.0682
 7027TIP3    H142572   5.518   6.044   1.632  0.2930 -0.7313 -1.9005
 7027TIP3    H242573   5.653   5.999   1.683  0.0348  0.6468  0.1232
 7028TIP3   OH242574   0.829   5.655   3.902  0.4113 -0.1180  0.5340
 7028TIP3    H142575   0.743   5.650   3.943  0.2878  0.8865  0.4160
 7028TIP3    H242576   0.875   5.578   3.935 -0.2294 -0.1902  1.3021
 7029TIP3   OH242577   3.749   1.022   4.098 -0.3121 -0.0435 -0.4034
 7029TIP3    H142578   3.814   0.953   4.097 -0.4024 -0.2359  1.9036
 7029TIP3    H242579   3.795   1.099   4.065  0.3319 -0.7418 -1.1705
 7030TIP3   OH242580   5.095   5.913   4.054  0.3345 -0.1565 -0.5017
 7030TIP3    H142581   5.148   5.842   4.089  2.1774  0.2820 -2.2253
 7030TIP3    H242582   5.108   5.986   4.115 -0.5057 -0.8514  0.5436
 7031TIP3   OH242583   3.060   3.170  13.451  0.2239 -0.5971 -0.0172
 7031TIP3    H142584   3.067   3.265  13.444 -1.7186 -0.0372  3.2036
 7031TIP3    H242585   3.137   3.136  13.406  3.0494  2.6725  1.8830
 7032TIP3   OH242586   2.163   5.983  11.641 -0.1655  0.2985  0.1231
 7032TIP3    H142587   2.074   5.955  11.619  0.7546 -1.6131 -1.5229
 7032TIP3    H242588   2.166   6.076  11.620 -1.6091  0.2683 -0.3077
 7033TIP3   OH242589   2.091   6.753  10.639  0.5926 -0.0666  0.1161
 7033TIP3    H142590   2.032   6.700  10.691 -0.3781  0.2227 -0.6773
 7033TIP3    H242591   2.046   6.767  10.556  1.3840  0.8984 -0.1783
 7034TIP3   OH242592   6.009   1.128   0.367 -0.3710 -0.3912  0.6046
 7034TIP3    H142593   6.021   1.057   0.304 -2.3595 -1.1731  1.0155
 7034TIP3    H242594   5.982   1.203   0.313  0.1567 -0.3949  0.3267
 7035TIP3   OH242595   4.458   2.277   6.027 -0.4812 -0.1423 -0.3642
 7035TIP3    H142596   4.445   2.184   6.045 -2.9555  0.1953 -0.0188
 7035TIP3    H242597   4.553   2.289   6.027 -0.1225 -2.0241  2.9250
 7036TIP3   OH242598   5.261   0.095  15.514 -0.2039  0.4596 -0.0624
 7036TIP3    H142599   5.169   0.080  15.534 -0.5420  2.2197 -0.1593
 7036TIP3    H242600   5.270   0.190  15.512  1.4895  0.3180 -0.6530
 7037TIP3   OH242601   4.619   2.428  14.460  0.1259 -0.2990  0.3844
 7037TIP3    H142602   4.687   2.492  14.481 -0.1955  0.3245 -0.4407
 7037TIP3    H242603   4.582   2.404  14.545  0.4314  0.4130  0.7275
 7038TIP3   OH242604   2.372   1.200  11.512  0.2045  0.1699  0.1867
 7038TIP3    H142605   2.305   1.268  11.499 -0.2582 -0.2844  0.1785
 7038TIP3    H242606   2.403   1.181  11.423  0.4268  0.4651  0.2011
 7039TIP3   OH242607   6.631   6.281  14.196 -1.0603 -0.4413 -0.0943
 7039TIP3    H142608   6.584   6.363  14.183 -1.0514 -0.2159  1.2037
 7039TIP3    H242609   6.612   6.255  14.286  1.2877 -0.3249  0.5205
 7040TIP3   OH242610   2.403   0.142   3.571 -0.0885 -0.2865  0.6510
 7040TIP3    H142611   2.355   0.224   3.564 -1.6808 -1.2353 -0.1410
 7040TIP3    H242612   2.487   0.159   3.527 -1.0433  0.4485 -0.9560
 7041TIP3   OH242613   1.306   4.379   5.782  0.3091 -0.1676  0.3183
 7041TIP3    H142614   1.381   4.403   5.837  1.4874  0.5329 -1.5209
 7041TIP3    H242615   1.344   4.331   5.708 -1.1344 -0.3526 -0.3396
 7042TIP3   OH242616   1.250   2.322  12.257  0.2482 -0.3497  0.1941
 7042TIP3    H142617   1.268   2.232  12.230  1.2216 -0.4740  1.1877
 7042TIP3    H242618   1.263   2.375  12.179 -2.0850 -1.2266 -0.8850
 7043TIP3   OH242619   0.146   2.383   3.129 -0.5358 -0.6537 -0.4527
 7043TIP3    H142620   0.120   2.347   3.044 -3.5105  0.4500 -0.1038
 7043TIP3    H242621   0.146   2.478   3.117  0.3862 -0.5103  0.4696
 7044TIP3   OH242622   1.119   4.455   0.660  0.4035 -0.0523  0.4681
 7044TIP3    H142623   1.087   4.449   0.750  2.4129  0.2195  1.2384
 7044TIP3    H242624   1.040   4.447   0.606 -0.8768  0.0809  2.2445
 7045TIP3   OH242625   2.455   6.552  15.092 -0.2768 -0.4918  0.2801
 7045TIP3    H142626   2.489   6.500  15.165  0.7955  0.6415  0.6229
 7045TIP3    H242627   2.398   6.492  15.045 -0.7621 -1.3442  1.8751
 7046TIP3   OH242628   0.929   0.850   5.780  0.7534  0.1590  0.0277
 7046TIP3    H142629   0.890   0.837   5.693  2.4318 -1.4002 -0.5761
 7046TIP3    H242630   0.886   0.785   5.835  0.8877 -0.0399 -0.0955
 7047TIP3   OH242631   1.306   3.084  13.682  0.5626  0.0007 -0.1513
 7047TIP3    H142632   1.212   3.098  13.676  0.1013 -1.2394  2.5569
 7047TIP3    H242633   1.331   3.125  13.765  2.1617 -0.7514 -0.2142
 7048TIP3   OH242634   5.539   1.627  16.977  0.5166  0.3842  0.1777
 7048TIP3    H142635   5.550   1.537  16.946  0.4021  0.4824 -0.1455
 7048TIP3    H242636   5.452   1.628  17.017  0.7568  0.1960  0.7315
 7049TIP3   OH242637   0.850   2.147   5.617 -0.2162 -0.0019  0.2521
 7049TIP3    H142638   0.936   2.161   5.576  0.0973 -0.3616  0.7729
 7049TIP3    H242639   0.812   2.234   5.625  1.1895  0.4832  2.3617
 7050TIP3   OH242640   1.915   0.904  12.194 -0.1228  0.1433 -0.0761
 7050TIP3    H142641   1.874   0.943  12.118  0.0911 -0.8602 -0.7318
 7050TIP3    H242642   1.985   0.965  12.218 -1.2649  1.3049  0.3747
 7051TIP3   OH242643   6.281   2.217  10.179  0.7381 -0.4336 -0.4950
 7051TIP3    H142644   6.223   2.284  10.214  0.2459 -1.3470  0.4799
 7051TIP3    H242645   6.229   2.137  10.181  2.5721 -1.6945  2.2050
 7052TIP3   OH242646   0.966   2.056   6.366 -0.5644 -0.2597  0.1947
 7052TIP3    H142647   0.920   2.131   6.329  1.3720  0.9759  0.1102
 7052TIP3    H242648   1.053   2.090   6.387  0.2710 -2.4152  0.4891
 7053TIP3   OH242649   6.350   5.901   2.691  0.0064 -0.0068 -0.2062
 7053TIP3    H142650   6.338   5.845   2.768  0.9123 -0.1379 -0.1457
 7053TIP3    H242651   6.435   5.875   2.656  1.5495  2.8069  1.0826
 7054TIP3   OH242652   6.280   6.650   0.937  0.0850  0.1395  0.2953
 7054TIP3    H142653   6.245   6.595   1.007  0.2555 -0.2107  0.1068
 7054TIP3    H242654   6.248   6.610   0.856 -0.7127  0.9573  0.1894
 7055TIP3   OH242655   1.132   2.493  15.004 -0.0263 -0.4039 -0.6716
 7055TIP3    H142656   1.206   2.433  14.999 -0.0353 -0.5556  0.7854
 7055TIP3    H242657   1.161   2.571  14.957  0.9193 -0.6057 -0.4396
 7056TIP3   OH242658   3.693   0.113  13.933 -0.2302 -0.5391  0.3332
 7056TIP3    H142659   3.697   0.018  13.923 -0.6913 -0.4667 -0.8170
 7056TIP3    H242660   3.764   0.146  13.878  0.3004 -0.2296  1.1931
 7057TIP3   OH242661   6.141   2.124  15.000 -0.2109  0.0664  0.8520
 7057TIP3    H142662   6.234   2.147  14.999 -0.0564 -0.3008 -1.8519
 7057TIP3    H242663   6.111   2.147  15.088  2.2505  0.9052  1.5465
 7058TIP3   OH242664   3.346   4.537   1.817 -0.1279 -0.1246  0.2485
 7058TIP3    H142665   3.318   4.607   1.875 -0.0030 -0.1224  0.3067
 7058TIP3    H242666   3.265   4.496   1.787 -0.2139  0.2552 -0.0452
 7059TIP3   OH242667   5.936   5.324  15.993 -0.3099 -0.2320 -0.0310
 7059TIP3    H142668   5.909   5.318  16.084 -0.2096 -0.5221 -0.0191
 7059TIP3    H242669   6.021   5.369  15.995 -0.8120  0.7327 -0.0714
 7060TIP3   OH242670   5.339   4.524  10.475 -0.3334  0.0639  0.2234
 7060TIP3    H142671   5.375   4.441  10.445 -2.8429 -0.1933 -2.5423
 7060TIP3    H242672   5.373   4.589  10.413 -1.9913  0.2835 -0.5208
 7061TIP3   OH242673   6.060   1.319   5.544 -0.2033  0.4534 -0.5323
 7061TIP3    H142674   6.054   1.223   5.544 -1.3677  0.5140 -0.0986
 7061TIP3    H242675   6.082   1.341   5.453  1.5182 -0.2808 -0.3325
 7062TIP3   OH242676   2.275   5.410   1.749  0.7359 -0.1027  0.0827
 7062TIP3    H142677   2.279   5.431   1.655  2.3009 -0.5486  0.0224
 7062TIP3    H242678   2.202   5.348   1.756  2.2495 -2.1960 -1.3124
 7063TIP3   OH242679   3.336   3.059   1.516  0.4210  0.0990  0.5010
 7063TIP3    H142680   3.283   2.982   1.494 -1.5596  1.3126  0.8247
 7063TIP3    H242681   3.277   3.133   1.505  2.4577  1.6820 -0.4658
 7064TIP3   OH242682   4.982   4.647  12.374  0.4037  0.1164 -0.8247
 7064TIP3    H142683   5.005   4.587  12.445  1.1765  1.0941 -0.2356
 7064TIP3    H242684   5.019   4.731  12.400 -1.7901  1.1948 -0.9993
 7065TIP3   OH242685   0.912   0.597  16.060  0.3021  0.5559  0.3908
 7065TIP3    H142686   0.974   0.536  16.020  2.0283  2.8300 -0.6572
 7065TIP3    H242687   0.838   0.600  16.000  0.7768  0.4146 -0.2159
 7066TIP3   OH242688   4.871   4.085  15.905 -0.0437  0.7395 -0.8752
 7066TIP3    H142689   4.875   4.025  15.831  1.3938  0.2596 -0.4435
 7066TIP3    H242690   4.847   4.030  15.980  1.4615  0.6145 -0.4411
 7067TIP3   OH242691   0.479   4.195   6.611 -0.1955 -0.1037 -0.0011
 7067TIP3    H142692   0.389   4.168   6.630  0.6669 -3.0506  0.3789
 7067TIP3    H242693   0.470   4.259   6.540 -2.5303 -1.6538 -1.2529
 7068TIP3   OH242694   2.603   1.281   0.822  0.1211 -0.4658  0.3125
 7068TIP3    H142695   2.614   1.376   0.829  0.6255 -0.5425  0.5848
 7068TIP3    H242696   2.632   1.247   0.907 -0.0016 -0.8671  0.1942
 7069TIP3   OH242697   2.964   0.271  10.817  0.9504  0.1064  0.0917
 7069TIP3    H142698   2.872   0.298  10.814  0.8633 -0.2352 -1.4851
 7069TIP3    H242699   3.013   0.353  10.807  0.8672  0.3743  1.6148
 7070TIP3   OH242700   5.770   4.269   2.019  0.0743 -0.0146  0.5139
 7070TIP3    H142701   5.709   4.195   2.016  1.2825 -1.0440 -1.5245
 7070TIP3    H242702   5.716   4.346   2.002 -0.8978 -0.7057  0.3726
 7071TIP3   OH242703   0.190   3.531  16.165  0.7031 -0.4855  0.3191
 7071TIP3    H142704   0.218   3.564  16.251  0.7674 -0.7615  0.4061
 7071TIP3    H242705   0.203   3.436  16.170  0.0991 -0.5772  0.2332
 7072TIP3   OH242706   3.490   3.646   1.673 -0.0720  0.2455  0.4114
 7072TIP3    H142707   3.396   3.654   1.654  0.0889 -0.6880 -0.9438
 7072TIP3    H242708   3.513   3.729   1.713 -1.9099 -0.2916  2.7912
 7073TIP3   OH242709   2.445   5.061   5.416  0.5629 -0.0052 -0.5988
 7073TIP3    H142710   2.440   5.017   5.500 -0.7023  1.3035  0.0506
 7073TIP3    H242711   2.493   5.142   5.434  3.0089 -1.0940 -1.8051
 7074TIP3   OH242712   5.733   2.125  13.393 -0.3398 -0.1337  0.0315
 7074TIP3    H142713   5.664   2.110  13.458 -1.1588  0.4633 -0.6780
 7074TIP3    H242714   5.706   2.072  13.318  0.3942 -0.5130  0.0282
 7075TIP3   OH242715   5.740   0.830  17.034  0.4452 -0.0289 -0.3469
 7075TIP3    H142716   5.655   0.786  17.031 -0.0339  0.6967  1.2379
 7075TIP3    H242717   5.804   0.759  17.030 -0.2726 -0.7071 -0.1149
 7076TIP3   OH242718   2.675   4.477  12.018 -0.0811 -0.1680  0.1645
 7076TIP3    H142719   2.736   4.544  12.050 -1.1934  1.2314 -0.5414
 7076TIP3    H242720   2.626   4.450  12.096 -0.3332  0.6124  0.2870
 7077TIP3   OH242721   1.644   1.822  16.333 -0.1351 -0.0599  0.3732
 7077TIP3    H142722   1.690   1.905  16.346  2.4095 -0.6085 -3.5180
 7077TIP3    H242723   1.583   1.840  16.262 -1.4850 -0.9598  1.2580
 7078TIP3   OH242724   5.012   3.601  10.450  0.0385 -0.0697  0.2577
 7078TIP3    H142725   4.980   3.687  10.423 -0.7340 -0.7478 -1.0720
 7078TIP3    H242726   4.935   3.556  10.483  0.6814  0.1701  2.2296
 7079TIP3   OH242727   0.699   2.737   4.921  0.1699 -0.3227 -0.4704
 7079TIP3    H142728   0.604   2.740   4.931  0.3229  2.1807  1.2008
 7079TIP3    H242729   0.721   2.644   4.926 -2.1114 -0.8978 -0.0854
 7080TIP3   OH242730   1.913   2.048   3.539 -0.3142 -0.3624 -0.6526
 7080TIP3    H142731   1.850   2.119   3.529 -2.1868 -1.6929  1.0999
 7080TIP3    H242732   1.920   2.033   3.633  1.3315 -1.3991 -0.8846
 7081TIP3   OH242733   1.991   0.316   3.064  0.0944  0.0677  0.3131
 7081TIP3    H142734   2.004   0.380   2.995 -1.1597 -1.6183 -1.6268
 7081TIP3    H242735   1.920   0.352   3.117  0.8311  1.2322  0.5270
 7082TIP3   OH242736   1.410   6.780   0.200  0.1480  0.1030  0.1249
 7082TIP3    H142737   1.426   6.872   0.219  0.9703  0.0610 -0.3105
 7082TIP3    H242738   1.494   6.747   0.167 -0.1604 -0.7755  0.1811
 7083TIP3   OH242739   6.476   5.148   2.671 -0.1719  0.0377 -0.3981
 7083TIP3    H142740   6.427   5.185   2.744  2.2887 -0.5460  1.7157
 7083TIP3    H242741   6.424   5.073   2.642 -1.8482  1.0728 -0.1853
 7084TIP3   OH242742   5.211   0.649   6.650  0.3736  0.1423 -0.4058
 7084TIP3    H142743   5.173   0.672   6.566 -2.6475 -0.9082  0.5350
 7084TIP3    H242744   5.228   0.733   6.693  0.4945  0.6533 -1.4250
 7085TIP3   OH242745   1.624   0.865   3.879  0.5168  0.6895  0.3902
 7085TIP3    H142746   1.694   0.802   3.894 -1.4086 -1.6158  0.1713
 7085TIP3    H242747   1.631   0.887   3.787 -1.3018 -2.5844 -0.6783
 7086TIP3   OH242748   2.252   1.568  14.300 -0.2258  0.5435 -0.0647
 7086TIP3    H142749   2.227   1.535  14.387  1.3430 -1.8901 -0.4606
 7086TIP3    H242750   2.323   1.630  14.318 -1.0369  1.3690  0.4504
 7087TIP3   OH242751   2.102   2.136  14.564  0.3101 -0.0158  0.4604
 7087TIP3    H142752   2.182   2.174  14.600 -0.5740  1.2908  1.1201
 7087TIP3    H242753   2.129   2.051  14.530  2.6344  1.5771 -2.0801
 7088TIP3   OH242754   1.378   2.270   0.073  0.5280  0.1218  0.5559
 7088TIP3    H142755   1.314   2.217   0.024  0.6733  0.1942  0.2872
 7088TIP3    H242756   1.346   2.359   0.066 -0.4491 -0.0619  2.1284
 7089TIP3   OH242757   6.395   4.133   4.548 -0.1938 -0.1565 -0.5501
 7089TIP3    H142758   6.366   4.196   4.614 -1.0859 -0.2360 -0.8437
 7089TIP3    H242759   6.430   4.186   4.477 -2.2076  0.1310 -1.4059
 7090TIP3   OH242760   2.591   4.550   4.575 -0.0463  0.6463  0.2534
 7090TIP3    H142761   2.549   4.632   4.549 -0.3831  0.8878  1.4739
 7090TIP3    H242762   2.529   4.511   4.636 -0.0006 -0.6616 -0.5142
 7091TIP3   OH242763   6.076   2.777  13.499 -0.4425  0.3295  0.0553
 7091TIP3    H142764   6.047   2.728  13.576 -3.6838  1.3040 -0.3569
 7091TIP3    H242765   6.125   2.714  13.447 -0.5103 -1.1124  1.6524
 7092TIP3   OH242766   4.976   2.093   2.930 -0.8767  0.1332 -0.3601
 7092TIP3    H142767   4.903   2.031   2.930 -0.8127  0.0520 -0.6952
 7092TIP3    H242768   5.015   2.082   2.843  1.3816 -2.0103  0.7955
 7093TIP3   OH242769   1.667   0.192  11.661 -0.2009 -0.0951  0.7916
 7093TIP3    H142770   1.761   0.176  11.673  0.1289  1.0988 -0.1118
 7093TIP3    H242771   1.630   0.178  11.748  0.4282 -2.9506  0.6989
 7094TIP3   OH242772   1.957   1.182  11.433 -0.4814 -0.1732 -0.2089
 7094TIP3    H142773   1.974   1.277  11.430  3.0649 -0.7068 -1.0818
 7094TIP3    H242774   1.961   1.161  11.526  2.3843  0.1128 -0.1742
 7095TIP3   OH242775   3.376   0.625  14.837 -0.0796  0.6285 -0.7292
 7095TIP3    H142776   3.410   0.543  14.873  1.1998  1.9996  1.3847
 7095TIP3    H242777   3.343   0.601  14.750  1.2264 -1.9096 -0.6190
 7096TIP3   OH242778   1.348   0.731  14.610  0.1630  0.0087 -0.1286
 7096TIP3    H142779   1.314   0.785  14.681  0.8220  0.2443  0.0107
 7096TIP3    H242780   1.274   0.676  14.585  0.1807 -0.7262  1.3467
 7097TIP3   OH242781   2.595   3.316  13.396  0.2036 -0.2818  0.5026
 7097TIP3    H142782   2.567   3.313  13.487  3.5947  0.3310  1.7301
 7097TIP3    H242783   2.569   3.403  13.365  2.0528  0.9151  2.1094
 7098TIP3   OH242784   4.115   5.422   0.888 -0.0497 -0.0989  0.2527
 7098TIP3    H142785   4.092   5.343   0.839 -0.7823 -0.0365  0.4869
 7098TIP3    H242786   4.196   5.453   0.847  1.5750 -2.2153  1.5730
 7099TIP3   OH242787   0.424   1.978   1.971  0.1264 -0.5207 -0.0100
 7099TIP3    H142788   0.343   2.002   1.926  0.6975 -0.4023 -0.9904
 7099TIP3    H242789   0.476   2.059   1.972  0.7290 -0.8938 -0.4664
 7100TIP3   OH242790   6.274   0.638  13.956 -0.1685  0.3721  0.2955
 7100TIP3    H142791   6.300   0.712  14.010 -1.2808  0.0566  1.3196
 7100TIP3    H242792   6.250   0.570  14.019 -0.1438 -0.5070 -0.6151
 7101TIP3   OH242793   1.092   3.083   1.350  0.2482  0.1994  0.4367
 7101TIP3    H142794   1.154   3.055   1.417  0.8838 -1.2082 -0.6717
 7101TIP3    H242795   1.116   3.173   1.331  2.2544 -0.4126 -0.2210
 7102TIP3   OH242796   2.728   0.530  15.786  0.0838  1.0694  0.3993
 7102TIP3    H142797   2.804   0.589  15.782  1.7110 -0.9298  0.1589
 7102TIP3    H242798   2.689   0.536  15.698  0.8077  1.0783  0.0679
 7103TIP3   OH242799   6.326   5.869  13.020 -0.4671 -0.3032  0.2976
 7103TIP3    H142800   6.275   5.824  12.952 -0.3609 -1.0507  0.6999
 7103TIP3    H242801   6.263   5.927  13.062 -0.2923  0.9983 -1.1317
 7104TIP3   OH242802   0.772   4.952  12.392 -0.3500 -0.0970  0.3550
 7104TIP3    H142803   0.813   5.001  12.463 -0.1829 -2.2125  1.8360
 7104TIP3    H242804   0.730   4.877  12.436 -4.3075  0.9215 -1.2618
 7105TIP3   OH242805   4.878   2.349   3.237 -0.4975  0.4236 -0.3573
 7105TIP3    H142806   4.921   2.410   3.298  1.5066  0.1675 -1.4193
 7105TIP3    H242807   4.829   2.289   3.294  1.4714  0.0479  1.0653
 7106TIP3   OH242808   4.713   0.725  15.335  0.1877 -0.0010 -0.5031
 7106TIP3    H142809   4.754   0.787  15.275  0.8257  0.1634  0.0863
 7106TIP3    H242810   4.785   0.669  15.365 -0.1101 -0.0479  0.1476
 7107TIP3   OH242811   3.380   4.056  16.155  0.1925  0.0522  0.0571
 7107TIP3    H142812   3.308   4.014  16.202  0.4504 -0.4346  0.0181
 7107TIP3    H242813   3.365   4.033  16.063  1.8143 -2.2376  0.2841
 7108TIP3   OH242814   5.492   4.173  16.551  0.1530  0.1745  0.4609
 7108TIP3    H142815   5.585   4.170  16.526 -0.1726 -0.4564 -0.7251
 7108TIP3    H242816   5.485   4.111  16.624  1.1192  2.0456  2.2388
 7109TIP3   OH242817   1.930   1.816  10.932  0.1239  0.2237 -0.1849
 7109TIP3    H142818   1.935   1.912  10.930 -1.0840  0.2947 -2.8402
 7109TIP3    H242819   1.864   1.797  10.998  0.0649  1.2371  0.0633
 7110TIP3   OH242820   1.067   0.081  10.741  0.1942 -0.3432 -0.4912
 7110TIP3    H142821   0.974   0.096  10.757  0.5928  1.1398  0.6359
 7110TIP3    H242822   1.090   0.146  10.674  1.1142  1.7266  1.6985
 7111TIP3   OH242823   2.226   5.175  12.939 -0.0110  0.0969 -0.2709
 7111TIP3    H142824   2.132   5.186  12.955  0.0100  3.0304 -1.5107
 7111TIP3    H242825   2.231   5.143  12.849  0.1793 -0.9066  0.0905
 7112TIP3   OH242826   5.458   6.787  12.465 -0.1055  0.1849  0.6605
 7112TIP3    H142827   5.508   6.712  12.433 -1.3750 -0.0326 -0.9406
 7112TIP3    H242828   5.371   6.751  12.486 -0.4785  1.0563  0.6723
 7113TIP3   OH242829   2.241   3.105   5.724  0.2123  0.4534 -0.1571
 7113TIP3    H142830   2.238   3.142   5.812  0.3496 -1.2419  0.6109
 7113TIP3    H242831   2.324   3.135   5.688  2.4201 -2.3563  2.0485
 7114TIP3   OH242832   1.985   4.158  12.616 -0.1390  0.2328  0.6883
 7114TIP3    H142833   2.014   4.106  12.542 -0.6862 -0.9917  1.3077
 7114TIP3    H242834   1.989   4.249  12.585  1.1140 -0.1447 -0.3099
 7115TIP3   OH242835   3.212   6.710  15.177  0.7112 -0.3736 -0.1118
 7115TIP3    H142836   3.225   6.621  15.143 -0.7212 -0.2136 -1.1831
 7115TIP3    H242837   3.146   6.700  15.246  0.8586 -0.1925  0.0582
 7116TIP3   OH242838   3.031   0.298  14.996  0.3077  0.1903  0.3908
 7116TIP3    H142839   3.077   0.315  15.078  0.5094 -0.6944  0.4769
 7116TIP3    H242840   3.090   0.242  14.946 -0.2951 -0.2264  0.1259
 7117TIP3   OH242841   0.168   0.498   0.789 -0.1517 -0.2625 -0.4751
 7117TIP3    H142842   0.103   0.501   0.719  1.5307 -1.4633 -2.1832
 7117TIP3    H242843   0.160   0.582   0.833 -1.5060  0.3852 -1.8719
 7118TIP3   OH242844   5.312   2.387   1.435 -0.3400  0.1492  0.0642
 7118TIP3    H142845   5.405   2.405   1.449 -0.6828  1.9248  0.3507
 7118TIP3    H242846   5.294   2.424   1.348 -1.1012  1.3250  0.6908
 7119TIP3   OH242847   0.161   1.985   0.087  0.0477 -0.4919  0.0099
 7119TIP3    H142848   0.210   2.060   0.052  0.2646 -0.2778  0.7546
 7119TIP3    H242849   0.226   1.936   0.138 -0.8161  0.6733  2.3692
 7120TIP3   OH242850   2.297   5.144   6.029  0.3619 -0.3076 -0.1282
 7120TIP3    H142851   2.327   5.206   6.095  1.9876  0.1376 -1.2286
 7120TIP3    H242852   2.282   5.063   6.078  0.6645  0.2549  0.9228
 7121TIP3   OH242853   0.709   5.798   3.587 -0.0688  0.4753 -0.4052
 7121TIP3    H142854   0.684   5.818   3.677 -0.7918  0.8955 -0.6827
 7121TIP3    H242855   0.685   5.706   3.575  0.5541  0.2611  0.0011
 7122TIP3   OH242856   1.402   3.707   4.968  0.6392 -0.2822  0.2359
 7122TIP3    H142857   1.423   3.773   4.902  0.1964 -1.5663 -1.2527
 7122TIP3    H242858   1.319   3.737   5.006 -0.3663 -0.7024 -1.5033
 7123TIP3   OH242859   6.518   0.594   4.180 -0.5102 -0.2352 -0.2347
 7123TIP3    H142860   6.479   0.640   4.254 -1.9820  1.5800 -2.0310
 7123TIP3    H242861   6.529   0.504   4.211 -0.6566  0.5471  2.3043
 7124TIP3   OH242862   5.880   4.142  10.570 -0.1732  0.3351 -0.2651
 7124TIP3    H142863   5.888   4.053  10.535  0.5603  1.2535 -2.6381
 7124TIP3    H242864   5.810   4.136  10.635  0.0698 -2.0155 -0.1268
 7125TIP3   OH242865   1.738   3.213  16.662  0.1979 -0.4150 -0.5080
 7125TIP3    H142866   1.675   3.262  16.610  1.2442  1.6423  0.0635
 7125TIP3    H242867   1.715   3.121  16.647 -0.6275  0.1282 -3.1862
 7126TIP3   OH242868   0.162   6.399   2.655 -0.3018  0.0196 -0.6610
 7126TIP3    H142869   0.234   6.338   2.644  0.0483  0.6200 -1.8672
 7126TIP3    H242870   0.138   6.392   2.748 -0.1322 -1.7506 -0.7246
 7127TIP3   OH242871   4.809   6.839  16.697  0.2911  0.5821  0.5184
 7127TIP3    H142872   4.817   6.889  16.616 -0.9086 -2.3382 -1.5521
 7127TIP3    H242873   4.721   6.857  16.728 -0.0923 -0.0966 -0.1505
 7128TIP3   OH242874   5.467   6.439  12.284 -0.0807 -0.0918 -0.1348
 7128TIP3    H142875   5.468   6.357  12.236 -0.0271 -1.0105  1.3689
 7128TIP3    H242876   5.374   6.464  12.288 -0.1920 -0.5276  0.1011
 7129TIP3   OH242877   1.814   3.923   2.886 -0.3806  0.7671 -0.9215
 7129TIP3    H142878   1.847   3.911   2.975 -1.3962  2.6228 -0.2308
 7129TIP3    H242879   1.728   3.881   2.886 -0.1611  0.3135 -1.1926
 7130TIP3   OH242880   6.724   6.155   4.615 -0.0310  0.3189  0.1063
 7130TIP3    H142881   6.737   6.250   4.612 -2.5359  0.7506  0.4017
 7130TIP3    H242882   6.785   6.120   4.551  0.8266  2.1339 -0.1384
 7131TIP3   OH242883   0.934   0.604   1.931  0.6820  0.3771  0.4839
 7131TIP3    H142884   0.846   0.640   1.917  0.3089 -0.6742  0.0255
 7131TIP3    H242885   0.976   0.666   1.991 -0.2687  1.0496  0.4774
 7132TIP3   OH242886   0.241   2.355  13.750 -0.2230  0.2469  0.2013
 7132TIP3    H142887   0.192   2.436  13.733 -0.7831 -0.3729 -1.3540
 7132TIP3    H242888   0.270   2.327  13.663  1.0000 -0.5888  0.8593
 7133TIP3   OH242889   3.504   2.019   3.525  0.2278 -0.1582 -0.4226
 7133TIP3    H142890   3.531   1.927   3.520  0.7409 -0.0009 -0.6577
 7133TIP3    H242891   3.410   2.018   3.513  0.0050 -0.7970  1.0953
 7134TIP3   OH242892   4.287   4.054  13.246 -0.4970  0.5489 -0.1579
 7134TIP3    H142893   4.293   3.973  13.196 -2.5237  0.4067 -0.2257
 7134TIP3    H242894   4.298   4.123  13.181 -1.4394  0.3420 -0.5504
 7135TIP3   OH242895   5.148   1.325  10.905  0.0124 -0.3973  0.3593
 7135TIP3    H142896   5.070   1.290  10.862  0.5773 -0.7394 -0.4064
 7135TIP3    H242897   5.195   1.247  10.937 -0.1610 -0.1731  1.1760
 7136TIP3   OH242898   1.239   2.354   1.945  0.1805  0.5567  0.0563
 7136TIP3    H142899   1.182   2.416   1.899  0.7620  0.9191 -0.1858
 7136TIP3    H242900   1.277   2.300   1.876  0.7109  0.8120  0.1416
 7137TIP3   OH242901   5.151   2.830   3.801  0.0608 -0.0663  0.4959
 7137TIP3    H142902   5.062   2.831   3.764  0.7636  0.3561 -1.3079
 7137TIP3    H242903   5.163   2.918   3.837  0.4494  0.5898 -1.1485
 7138TIP3   OH242904   1.706   4.022  14.724  0.4665 -0.1794 -0.3196
 7138TIP3    H142905   1.644   4.058  14.787  0.5027  0.5153 -0.6666
 7138TIP3    H242906   1.731   4.097  14.669  0.2296 -0.8184 -1.3254
 7139TIP3   OH242907   1.856   5.869   4.288  0.4763 -0.1995  0.1340
 7139TIP3    H142908   1.838   5.795   4.229  0.3951  0.0583 -0.1681
 7139TIP3    H242909   1.919   5.834   4.351 -2.1783 -1.6504  2.2158
 7140TIP3   OH242910   4.791   2.970  15.446  0.0047 -0.2111 -0.0875
 7140TIP3    H142911   4.706   2.959  15.489  0.5442 -1.1622  0.7676
 7140TIP3    H242912   4.854   2.932  15.507  1.1413  1.1481 -0.3741
 7141TIP3   OH242913   0.599   4.947  11.808  0.4614  0.0370  0.2496
 7141TIP3    H142914   0.667   4.970  11.871  1.1524 -1.2694  0.0192
 7141TIP3    H242915   0.614   4.854  11.789  1.7877  0.8386 -3.6420
 7142TIP3   OH242916   5.412   5.153   0.765 -0.1135 -0.8911 -0.3752
 7142TIP3    H142917   5.388   5.068   0.801  1.3234 -0.5800  1.4861
 7142TIP3    H242918   5.500   5.169   0.800 -0.4674  1.4783 -0.4407
 7143TIP3   OH242919   2.646   4.687   1.304 -0.0554  0.1154  0.1039
 7143TIP3    H142920   2.652   4.601   1.263  0.1852 -0.2284  0.8342
 7143TIP3    H242921   2.557   4.691   1.338  0.1456 -0.1445  0.6835
 7144TIP3   OH242922   1.568   5.409   5.556  0.1964 -0.0252  0.0229
 7144TIP3    H142923   1.558   5.387   5.463 -0.3617  0.0974  0.0512
 7144TIP3    H242924   1.612   5.333   5.594  0.0371 -0.2580 -0.2577
 7145TIP3   OH242925   6.035   1.390  15.597 -0.2687  0.6254 -0.3039
 7145TIP3    H142926   6.024   1.326  15.667  0.8056 -0.8199 -1.4055
 7145TIP3    H242927   5.998   1.471  15.633  1.1473  0.2328  2.3363
 7146TIP3   OH242928   0.942   0.119  13.020 -0.0981 -0.6789  0.2667
 7146TIP3    H142929   0.846   0.123  13.019 -0.0564  0.8158 -0.1247
 7146TIP3    H242930   0.968   0.183  13.086  0.6510  0.5287 -1.1299
 7147TIP3   OH242931   5.196   5.711   5.160 -0.0965  0.5108 -0.5594
 7147TIP3    H142932   5.246   5.710   5.241 -0.8985 -1.2239 -0.0394
 7147TIP3    H242933   5.247   5.657   5.100  0.1596  1.2425 -1.0119
 7148TIP3   OH242934   2.697   1.487   3.652  0.4579  0.3711 -0.0222
 7148TIP3    H142935   2.632   1.551   3.624  0.2645 -0.2758 -1.0761
 7148TIP3    H242936   2.746   1.465   3.573 -0.4396 -1.8785 -0.0331
 7149TIP3   OH242937   4.961   2.298  17.116  0.5188  0.0411  0.1707
 7149TIP3    H142938   4.952   2.330  17.027 -0.8407 -2.1240 -0.5419
 7149TIP3    H242939   4.878   2.318  17.158  1.3423  1.5402  1.1809
 7150TIP3   OH242940   1.482   2.595  14.540 -0.0748  0.3435 -0.0020
 7150TIP3    H142941   1.547   2.534  14.576 -0.4187  0.0152  0.0677
 7150TIP3    H242942   1.409   2.539  14.515 -0.5442  0.7672  0.4027
 7151TIP3   OH242943   2.038   2.400  16.084 -0.5314  0.2766  0.5489
 7151TIP3    H142944   2.027   2.479  16.031 -5.5917 -0.5953 -0.2262
 7151TIP3    H242945   2.057   2.331  16.020 -1.0895  0.1005  0.5697
 7152TIP3   OH242946   4.465   4.299   4.990  0.1400  0.2344 -0.1498
 7152TIP3    H142947   4.495   4.259   5.071  0.1048 -2.1698 -1.2365
 7152TIP3    H242948   4.369   4.295   4.995  0.1112  1.2797  0.2341
 7153TIP3   OH242949   6.059   4.167   4.140  0.0276 -0.0524  0.1225
 7153TIP3    H142950   6.119   4.100   4.172 -0.2911  0.8869  3.0195
 7153TIP3    H242951   5.999   4.182   4.213 -0.6327  2.5533 -0.8342
 7154TIP3   OH242952   2.979   6.073  14.914  0.3398 -0.2724 -0.4941
 7154TIP3    H142953   2.997   6.162  14.882  4.0916 -1.0044 -0.9089
 7154TIP3    H242954   3.002   6.076  15.007  0.4579 -0.7906 -0.5044
 7155TIP3   OH242955   0.852   0.967   2.021 -0.3166  0.4206 -0.3739
 7155TIP3    H142956   0.871   0.880   2.056 -1.5172 -0.2296 -1.2636
 7155TIP3    H242957   0.824   1.017   2.098 -0.5177 -0.2594  0.0111
 7156TIP3   OH242958   3.430   2.183  14.604 -0.1713  0.3868  0.1406
 7156TIP3    H142959   3.388   2.237  14.538  0.3474 -1.0750 -1.4663
 7156TIP3    H242960   3.386   2.098  14.598  0.2935  0.0385  1.2615
 7157TIP3   OH242961   0.916   0.349   4.829  0.3319  0.0545 -0.1864
 7157TIP3    H142962   0.832   0.353   4.784  0.8247  0.0070 -1.1439
 7157TIP3    H242963   0.953   0.264   4.804  1.6446  0.9864 -1.6378
 7158TIP3   OH242964   6.076   0.542   2.129 -0.5485 -0.7075 -0.3959
 7158TIP3    H142965   6.156   0.519   2.081 -0.4092  0.5737 -0.8146
 7158TIP3    H242966   6.012   0.476   2.103 -0.4972 -0.0029 -2.4357
 7159TIP3   OH242967   1.352   5.392  13.128 -0.5207 -0.1028 -0.3363
 7159TIP3    H142968   1.283   5.347  13.080 -0.4097  0.1898 -0.7766
 7159TIP3    H242969   1.431   5.380  13.075 -0.7508  1.7361 -1.1875
 7160TIP3   OH242970   0.692   5.330   6.438 -0.3189  0.1723  0.1214
 7160TIP3    H142971   0.671   5.242   6.406 -0.0282  0.1923 -0.1258
 7160TIP3    H242972   0.759   5.315   6.505  1.0196  0.3282 -1.1304
 7161TIP3   OH242973   2.301   4.735   0.498 -0.0972  0.0740  0.2634
 7161TIP3    H142974   2.321   4.711   0.588  1.5539  1.6425  0.3850
 7161TIP3    H242975   2.354   4.813   0.482  0.0599 -0.4593 -2.2311
 7162TIP3   OH242976   6.544   3.728  11.944  0.2329  0.1461  0.2594
 7162TIP3    H142977   6.534   3.799  12.007  1.1705  0.6431 -0.1304
 7162TIP3    H242978   6.487   3.752  11.871  0.2690  0.3103  0.2851
 7163TIP3   OH242979   0.909   5.196  11.105  0.4946  0.3052  0.5233
 7163TIP3    H142980   0.884   5.288  11.107  0.4344  0.2834  0.9157
 7163TIP3    H242981   1.000   5.195  11.135  0.4717  0.2303  0.5910
 7164TIP3   OH242982   1.983   0.887  11.388  0.0304  0.0335  0.0157
 7164TIP3    H142983   1.939   0.972  11.379 -0.3606 -0.1390  0.2851
 7164TIP3    H242984   1.965   0.860  11.478 -0.9278 -0.9325 -0.4527
 7165TIP3   OH242985   0.083   1.255  11.909  0.1587 -0.5797 -0.0931
 7165TIP3    H142986   0.161   1.240  11.856 -0.3377 -0.8886 -0.7465
 7165TIP3    H242987   0.012   1.217  11.858 -0.5361  0.4162  0.1112
 7166TIP3   OH242988   6.039   5.716   0.130 -0.1984  0.0573 -0.3754
 7166TIP3    H142989   6.096   5.783   0.092  0.6669 -0.2727  0.3184
 7166TIP3    H242990   6.092   5.636   0.129 -0.5517 -0.1981  0.5211
 7167TIP3   OH242991   2.946   3.031   1.357  0.1202 -0.0968  0.2724
 7167TIP3    H142992   2.926   3.120   1.329  1.5048  0.4572  0.9316
 7167TIP3    H242993   2.883   2.976   1.310  1.2925  0.9051 -2.6956
 7168TIP3   OH242994   5.202   2.949  16.676 -0.5818 -0.7997 -0.7563
 7168TIP3    H142995   5.234   3.031  16.712 -1.5367  0.2352 -2.1899
 7168TIP3    H242996   5.204   2.888  16.750 -0.7173  0.7507  0.5732
 7169TIP3   OH242997   3.475   5.937  13.044  0.2094  0.6071  0.4183
 7169TIP3    H142998   3.407   5.992  13.083 -0.1056 -0.6587  1.7246
 7169TIP3    H242999   3.490   5.976  12.958 -2.9705  0.3090 -0.4132
 7170TIP3   OH243000   3.575   2.136  15.448  0.3144  0.3623  0.2159
 7170TIP3    H143001   3.563   2.208  15.386  2.6914 -0.5672 -1.4730
 7170TIP3    H243002   3.563   2.057  15.395 -1.8505 -0.5737  1.9360
 7171TIP3   OH243003   5.503   1.344   5.108 -0.9596  0.1104 -0.1266
 7171TIP3    H143004   5.584   1.375   5.148  0.5791 -1.7292 -1.6411
 7171TIP3    H243005   5.469   1.279   5.170  1.5552 -2.9344 -1.6807
 7172TIP3   OH243006   0.473   6.316  15.718 -0.1063 -0.1947  0.5116
 7172TIP3    H143007   0.458   6.258  15.643  1.4761 -0.4526  0.3682
 7172TIP3    H243008   0.551   6.366  15.695  0.3973 -0.2681  1.9608
 7173TIP3   OH243009   4.968   1.169   3.403  0.4717 -0.1800  0.3345
 7173TIP3    H143010   4.955   1.121   3.321 -0.9700 -0.4240  0.6772
 7173TIP3    H243011   4.974   1.101   3.470 -0.4540  0.0740  0.6839
 7174TIP3   OH243012   2.243   0.485   4.533 -0.3655 -0.3295 -0.1998
 7174TIP3    H143013   2.245   0.525   4.446 -1.6167 -1.6197 -0.8632
 7174TIP3    H243014   2.286   0.400   4.521  0.2527 -0.1472  0.6651
 7175TIP3   OH243015   1.491   0.664   4.823  0.2596 -0.0704  0.1118
 7175TIP3    H143016   1.429   0.721   4.778 -0.1254 -1.2070 -0.8249
 7175TIP3    H243017   1.479   0.685   4.916 -1.4847 -0.2267 -0.0466
 7176TIP3   OH243018   0.225   5.653  16.004  0.1140  0.0003  0.6754
 7176TIP3    H143019   0.298   5.666  15.943 -1.3933 -0.1985 -1.2612
 7176TIP3    H243020   0.157   5.713  15.974 -1.9769 -2.5877 -0.0593
 7177TIP3   OH243021   6.435   0.859   0.532 -1.0925 -0.1193 -0.3566
 7177TIP3    H143022   6.400   0.836   0.617 -1.9619  1.4193 -0.2612
 7177TIP3    H243023   6.358   0.877   0.478 -0.5399 -0.3919 -1.2632
 7178TIP3   OH243024   5.330   0.663   1.857 -0.3229  0.1178  0.3294
 7178TIP3    H143025   5.369   0.750   1.843  0.8347 -0.3966  0.2084
 7178TIP3    H243026   5.270   0.652   1.783  1.6912 -0.3429 -1.3573
 7179TIP3   OH243027   5.113   5.483   1.611 -0.7517  0.1936 -0.3316
 7179TIP3    H143028   5.142   5.560   1.660  0.5854 -1.3198  1.4225
 7179TIP3    H243029   5.128   5.410   1.671 -2.2280 -1.4273 -1.8185
 7180TIP3   OH243030   2.562   3.528  12.181  0.1225  0.0272 -0.7407
 7180TIP3    H143031   2.523   3.582  12.112 -0.2797  1.1713  0.3268
 7180TIP3    H243032   2.561   3.439  12.146  0.0025  0.5835 -2.2264
 7181TIP3   OH243033   5.717   4.528   5.012  0.3142 -0.1728  0.5125
 7181TIP3    H143034   5.812   4.516   5.012  0.3160 -0.2225 -0.5720
 7181TIP3    H243035   5.704   4.617   5.044  0.7015 -0.3180  1.0785
 7182TIP3   OH243036   6.674   4.372  12.301 -0.1491 -0.3003  0.2865
 7182TIP3    H143037   6.591   4.324  12.295  0.7255 -2.2608  2.5080
 7182TIP3    H243038   6.648   4.461  12.324 -1.7392 -0.0658 -2.0636
 7183TIP3   OH243039   5.070   2.548  15.851  0.7083 -0.7316 -0.0755
 7183TIP3    H143040   5.105   2.602  15.921  0.2972  0.4173 -0.7391
 7183TIP3    H243041   5.030   2.474  15.896 -1.6810  1.1687  1.1165
 7184TIP3   OH243042   6.512   5.877  13.410 -0.4918 -0.0011  0.1619
 7184TIP3    H143043   6.582   5.939  13.430 -0.6107  0.2928 -0.3181
 7184TIP3    H243044   6.543   5.793  13.445 -0.3431  0.3322  0.8428
 7185TIP3   OH243045   4.947   3.265   5.173  0.4788 -0.2627  0.3860
 7185TIP3    H143046   4.917   3.225   5.255  0.6969  0.6773  0.9425
 7185TIP3    H243047   5.024   3.212   5.148  0.4490 -0.5199  0.8177
 7186TIP3   OH243048   1.396   3.526  13.678 -0.0428 -0.3484  0.4107
 7186TIP3    H143049   1.445   3.482  13.747  0.2198  1.0488  1.1521
 7186TIP3    H243050   1.305   3.501  13.692 -0.0373  0.1678  1.4870
 7187TIP3   OH243051   0.845   5.076  16.521 -0.2363  0.3955 -0.1491
 7187TIP3    H143052   0.839   5.054  16.429  1.9261 -0.0368 -0.2318
 7187TIP3    H243053   0.887   5.162  16.523 -0.0746  0.3088  0.4384
 7188TIP3   OH243054   2.062   6.501  16.843 -0.0919 -0.0752  0.3254
 7188TIP3    H143055   2.141   6.461  16.806  0.2177  1.9763 -1.4270
 7188TIP3    H243056   2.076   6.595  16.833 -1.8870  0.4123  1.8986
 7189TIP3   OH243057   0.459   2.073   1.098  0.0481 -0.0308 -0.0199
 7189TIP3    H143058   0.390   2.061   1.164  0.6285  0.6810  0.7294
 7189TIP3    H243059   0.532   2.111   1.146  0.6652  0.0371 -0.9861
 7190TIP3   OH243060   5.111   1.018   0.523 -0.3075  0.1176  0.3030
 7190TIP3    H143061   5.074   1.077   0.458  1.8684  1.1649 -0.0713
 7190TIP3    H243062   5.179   0.969   0.476 -1.2290 -1.8629  0.9104
 7191TIP3   OH243063   5.622   1.609   0.803 -0.0390 -0.0848 -0.2712
 7191TIP3    H143064   5.657   1.548   0.738 -2.0518 -1.3090 -0.3050
 7191TIP3    H243065   5.527   1.592   0.804 -0.4109  1.6851  1.1578
 7192TIP3   OH243066   4.902   1.007   3.856 -0.2300  0.3611 -0.6028
 7192TIP3    H143067   4.838   0.954   3.904 -0.9516  0.7877 -1.0761
 7192TIP3    H243068   4.985   0.991   3.900  0.1303 -3.1896 -2.2274
 7193TIP3   OH243069   5.164   4.480  12.221 -0.0871 -0.3112  0.4896
 7193TIP3    H143070   5.114   4.465  12.140  0.4015  3.1840 -0.6368
 7193TIP3    H243071   5.112   4.542  12.271  1.2930  0.3793  1.1393
 7194TIP3   OH243072   6.291   0.047   1.575 -0.0237  0.3011  0.1228
 7194TIP3    H143073   6.266   0.123   1.628 -0.7163  0.3641 -0.2850
 7194TIP3    H243074   6.377   0.022   1.608  0.6878  1.8909 -0.4108
 7195TIP3   OH243075   6.502   3.838  10.369  0.4702 -0.4251 -0.1014
 7195TIP3    H143076   6.596   3.821  10.373  0.5971  0.5290  2.2131
 7195TIP3    H243077   6.491   3.922  10.414 -1.4047 -0.0687 -1.1437
 7196TIP3   OH243078   1.025   2.597  12.078  0.1931 -0.2337  0.2927
 7196TIP3    H143079   1.093   2.543  12.038 -0.1557 -0.5309  0.0935
 7196TIP3    H243080   1.064   2.629  12.159  1.7515  2.2227 -1.2975
 7197TIP3   OH243081   1.639   3.263  14.711  0.2174  0.1692 -0.4853
 7197TIP3    H143082   1.557   3.305  14.685  0.5508  2.3664  1.6290
 7197TIP3    H243083   1.666   3.311  14.789  2.7745 -1.4712 -0.2617
 7198TIP3   OH243084   1.835   4.201   1.362  0.8241  0.3974  0.6905
 7198TIP3    H143085   1.761   4.242   1.406  1.4256  2.9327 -0.4583
 7198TIP3    H243086   1.909   4.258   1.380  1.8034 -0.3117 -0.8013
 7199TIP3   OH243087   2.154   0.752   2.277  0.1254 -0.8478 -0.4808
 7199TIP3    H143088   2.063   0.780   2.288  0.3604 -0.2951  0.1007
 7199TIP3    H243089   2.204   0.833   2.266  0.4399 -1.1909 -1.7100
 7200TIP3   OH243090   5.324   4.718   4.842 -0.3493 -0.2376 -0.3146
 7200TIP3    H143091   5.365   4.805   4.850  1.2580 -1.0904  5.1721
 7200TIP3    H243092   5.232   4.733   4.862 -0.0585  0.2826  0.7398
 7201TIP3   OH243093   2.329   4.334   2.602 -0.0951  0.0499 -0.1266
 7201TIP3    H143094   2.283   4.346   2.685  0.3356 -0.5737  0.2142
 7201TIP3    H243095   2.313   4.415   2.553  0.4157  0.8035  0.9276
 7202TIP3   OH243096   4.578   3.374  15.113 -0.4597  0.1173 -0.2881
 7202TIP3    H143097   4.550   3.310  15.179  0.0522 -1.4195 -1.4831
 7202TIP3    H243098   4.496   3.403  15.072 -0.6549 -0.5137 -0.3627
 7203TIP3   OH243099   1.733   4.168   2.718  0.9203 -0.2790  0.0925
 7203TIP3    H143100   1.699   4.241   2.769  1.6151 -0.5527  0.9570
 7203TIP3    H243101   1.721   4.091   2.774 -0.5045 -0.9934 -1.0862
 7204TIP3   OH243102   5.933   5.790  12.192  0.3195  0.2490  0.3927
 7204TIP3    H143103   5.959   5.744  12.112  1.0878  1.2011  0.0880
 7204TIP3    H243104   5.946   5.725  12.261 -0.7916 -0.7403 -0.2814
 7205TIP3   OH243105   3.787   2.199  11.992  0.2183  0.2677  0.4129
 7205TIP3    H143106   3.789   2.232  12.082  1.9118  1.3858  0.0215
 7205TIP3    H243107   3.804   2.276  11.938  0.4975 -0.6051 -0.7835
 7206TIP3   OH243108   1.285   0.210  15.987 -0.1389  0.2419  0.3585
 7206TIP3    H143109   1.348   0.225  16.057 -1.0510  0.1883  1.2288
 7206TIP3    H243110   1.277   0.115  15.982  0.5411  0.2250 -0.3927
 7207TIP3   OH243111   0.774   6.495  12.529  0.2585 -0.6136  0.3777
 7207TIP3    H143112   0.827   6.438  12.474  1.1618  1.0797 -0.5948
 7207TIP3    H243113   0.731   6.555  12.468 -0.7349 -0.2973  1.3493
 7208TIP3   OH243114   2.858   5.889   3.476  0.0181 -0.3929 -0.5480
 7208TIP3    H143115   2.766   5.910   3.458 -0.2598  1.0997  2.1346
 7208TIP3    H243116   2.906   5.965   3.444 -0.3354  1.5244  2.9585
 7209TIP3   OH243117   1.493   4.157  13.022 -0.0814  0.3308 -0.5049
 7209TIP3    H143118   1.460   4.225  13.082  2.0689  1.3574 -0.3911
 7209TIP3    H243119   1.510   4.082  13.079  0.9982  0.9677  0.0521
 7210TIP3   OH243120   0.058   2.773   1.981  0.2149 -0.9344  0.1282
 7210TIP3    H143121   0.098   2.702   1.930  2.6636  1.5676 -1.7989
 7210TIP3    H243122   0.108   2.775   2.063  0.9355 -0.7628 -0.3042
 7211TIP3   OH243123   0.188   3.357   4.005 -0.0312  0.2288 -0.0096
 7211TIP3    H143124   0.207   3.329   3.916  0.1007 -0.6887  0.3012
 7211TIP3    H243125   0.095   3.338   4.018 -0.7140  2.6337 -0.7583
 7212TIP3   OH243126   5.515   0.099   4.271  0.4525 -0.7601 -0.4143
 7212TIP3    H143127   5.488   0.007   4.276 -0.8935 -0.3758 -0.2665
 7212TIP3    H243128   5.434   0.148   4.280  1.3775  0.5070  1.3955
 7213TIP3   OH243129   3.981   6.300  13.791 -0.2215  0.1109 -0.2002
 7213TIP3    H143130   4.059   6.261  13.830 -0.1123  0.6822  0.1643
 7213TIP3    H243131   4.014   6.356  13.722 -0.3368  0.0438 -0.3097
 7214TIP3   OH243132   1.715   1.790   3.940 -0.0841  0.1348  0.4669
 7214TIP3    H143133   1.673   1.838   4.011 -0.1773 -0.2420  0.6711
 7214TIP3    H243134   1.739   1.706   3.979 -4.4593 -2.1460 -1.0685
 7215TIP3   OH243135   5.634   2.854  13.090  0.4453 -0.5078 -0.0945
 7215TIP3    H143136   5.555   2.845  13.037  0.9785 -0.5208 -0.9075
 7215TIP3    H243137   5.670   2.765  13.093  1.5358 -0.1563 -1.5138
 7216TIP3   OH243138   5.107   6.095   2.125  0.3929  0.3619 -0.1011
 7216TIP3    H143139   5.190   6.125   2.162  0.1227  0.9367  0.0412
 7216TIP3    H243140   5.132   6.049   2.045  0.9265 -0.3404  0.4554
 7217TIP3   OH243141   5.356   6.706   4.574  0.2632  0.8365 -0.1857
 7217TIP3    H143142   5.321   6.714   4.663  0.6708  1.9863 -0.1114
 7217TIP3    H243143   5.415   6.630   4.579 -0.7280  0.0764  0.1752
 7218TIP3   OH243144   0.064   2.633   0.998 -0.4460 -0.2735  0.0742
 7218TIP3    H143145   0.067   2.635   0.902 -0.2625  0.4635  0.0907
 7218TIP3    H243146   0.101   2.717   1.025 -0.5298 -0.4616  0.7928
 7219TIP3   OH243147   4.055   6.550   0.696  0.3783  0.3520 -0.0093
 7219TIP3    H143148   4.147   6.569   0.716  0.9787 -1.3324 -0.9921
 7219TIP3    H243149   4.015   6.636   0.687  1.5664  1.1397  1.6339
 7220TIP3   OH243150   5.954   2.394   6.016  0.2497 -0.4289  0.0739
 7220TIP3    H143151   6.035   2.349   6.038  0.0612 -0.2113  1.2967
 7220TIP3    H243152   5.885   2.339   6.052 -0.0171  0.4600  0.9860
 7221TIP3   OH243153   2.687   1.152  15.686  0.4198  0.0213  0.0361
 7221TIP3    H143154   2.676   1.071  15.735 -0.3269  1.4640  2.4056
 7221TIP3    H243155   2.612   1.155  15.627 -1.6673  0.6330  2.5277
 7222TIP3   OH243156   6.590   4.750  16.374  0.4034 -0.4939  0.3293
 7222TIP3    H143157   6.666   4.807  16.371  0.4444 -0.5877 -0.8462
 7222TIP3    H243158   6.526   4.797  16.427 -0.0042  1.2193 -1.5802
 7223TIP3   OH243159   6.120   2.991  15.497  0.2286 -0.0217 -0.1164
 7223TIP3    H143160   6.079   2.905  15.502  2.2241 -1.0564 -0.4132
 7223TIP3    H243161   6.127   3.020  15.588 -1.3752  0.3294 -0.0810
 7224TIP3   OH243162   4.118   2.733   5.305  0.8036  0.1701  0.3336
 7224TIP3    H143163   4.158   2.658   5.349  0.2900 -1.7772 -2.3229
 7224TIP3    H243164   4.087   2.699   5.222 -1.0520  2.9714 -0.2583
 7225TIP3   OH243165   1.773   3.133   3.384 -0.1086 -0.1294  0.0593
 7225TIP3    H143166   1.711   3.063   3.364 -1.8017  1.1593  0.5653
 7225TIP3    H243167   1.785   3.129   3.479  0.1655 -0.0372  0.0300
 7226TIP3   OH243168   2.135   1.430   5.478  0.0811  0.4830 -0.3538
 7226TIP3    H143169   2.125   1.474   5.394 -0.1798 -0.7870 -1.0112
 7226TIP3    H243170   2.046   1.423   5.512  0.1194  0.4168 -0.2680
 7227TIP3   OH243171   4.740   1.336  12.525 -0.5376 -0.0924 -0.2533
 7227TIP3    H143172   4.717   1.300  12.610 -1.1575  0.5122 -0.1576
 7227TIP3    H243173   4.672   1.401  12.507  1.1004  1.8170  0.0743
 7228TIP3   OH243174   0.668   3.455  15.168  0.2052 -0.2337  0.3152
 7228TIP3    H143175   0.574   3.442  15.184  0.0449  0.2112 -0.2479
 7228TIP3    H243176   0.678   3.550  15.162  0.1538 -0.3405 -2.7382
 7229TIP3   OH243177   3.121   2.781   5.716  0.4484 -0.3612 -0.3553
 7229TIP3    H143178   3.037   2.748   5.748  0.4926 -0.3863 -0.2644
 7229TIP3    H243179   3.184   2.756   5.784  0.4691 -0.0264 -0.2477
 7230TIP3   OH243180   2.689   5.103   4.091 -0.4581  1.0629  0.4517
 7230TIP3    H143181   2.626   5.050   4.042 -0.4867  0.6534  0.9301
 7230TIP3    H243182   2.739   5.150   4.023  2.2945 -2.5323 -0.2941
 7231TIP3   OH243183   0.116   6.547  15.239  0.2007  0.0687 -0.1964
 7231TIP3    H143184   0.025   6.562  15.212 -0.0424 -1.8819 -0.5953
 7231TIP3    H243185   0.156   6.500  15.166  0.7930 -1.3518  0.9871
 7232TIP3   OH243186   5.224   0.877   1.579 -0.8726  0.4571  0.2146
 7232TIP3    H143187   5.270   0.961   1.572  1.0461 -0.5731 -0.2729
 7232TIP3    H243188   5.184   0.879   1.666 -1.2884  2.0515  0.0295
 7233TIP3   OH243189   1.892   6.466  13.618 -0.3946 -0.1989 -0.3175
 7233TIP3    H143190   1.821   6.419  13.662 -0.9659  1.0637  0.1510
 7233TIP3    H243191   1.907   6.543  13.673  1.2157 -0.3496 -0.5155
 7234TIP3   OH243192   2.253   4.835   2.873 -0.3059 -0.1862  0.3098
 7234TIP3    H143193   2.228   4.911   2.821  0.9758 -0.0541 -0.1272
 7234TIP3    H243194   2.172   4.812   2.920 -0.4648  2.1170  1.3352
 7235TIP3   OH243195   2.524   5.633   4.948 -0.1148 -0.6595 -0.5950
 7235TIP3    H143196   2.482   5.582   5.017 -1.8423  1.1734 -0.1955
 7235TIP3    H243197   2.486   5.598   4.867 -0.3886 -0.8177 -0.4022
 7236TIP3   OH243198   0.725   0.337   6.256  0.6361  0.1691  0.4494
 7236TIP3    H143199   0.696   0.417   6.211  0.3096 -0.9610 -1.4775
 7236TIP3    H243200   0.671   0.333   6.335  1.4924  2.4370  1.2400
 7237TIP3   OH243201   6.261   5.811   0.649  0.6706 -0.5156 -0.4384
 7237TIP3    H143202   6.171   5.803   0.680  0.8391  0.7806  0.4537
 7237TIP3    H243203   6.291   5.895   0.683  2.4329 -1.1970 -0.2159
 7238TIP3   OH243204   1.704   3.660   4.588 -0.4970  0.3998  0.3794
 7238TIP3    H143205   1.702   3.576   4.633  0.3602  0.6640  0.9295
 7238TIP3    H243206   1.754   3.717   4.646  1.4500  0.4993 -1.2836
 7239TIP3   OH243207   1.760   6.046   2.219 -0.1020  0.3601  0.4095
 7239TIP3    H143208   1.814   6.007   2.288  0.3302  0.7054  0.2728
 7239TIP3    H243209   1.819   6.051   2.143 -0.5020  0.2011  0.0859
 7240TIP3   OH243210   1.494   3.018   1.075  0.0342  0.3069 -0.2777
 7240TIP3    H143211   1.487   3.012   0.980  0.3886 -1.5280 -0.2203
 7240TIP3    H243212   1.420   3.074   1.101 -0.2144  0.6207 -1.6009
 7241TIP3   OH243213   4.964   3.869  13.779 -0.0520  0.5773  0.2759
 7241TIP3    H143214   5.047   3.849  13.734 -0.4475 -0.6290  0.0404
 7241TIP3    H243215   4.948   3.961  13.759 -0.1835  0.1058 -2.0569
 7242TIP3   OH243216   3.982   2.927  12.370 -0.3181  0.0679  0.0955
 7242TIP3    H143217   3.910   2.909  12.309 -1.0974 -1.0060  1.2793
 7242TIP3    H243218   4.056   2.880  12.333 -0.8675 -0.8326  0.1070
 7243TIP3   OH243219   5.203   1.984   2.426  0.3453  0.3536 -0.1675
 7243TIP3    H143220   5.118   2.019   2.452  0.0388  2.3545 -3.2898
 7243TIP3    H243221   5.250   1.970   2.508 -1.5841  3.0033  1.5400
 7244TIP3   OH243222   6.826   5.562   2.840 -0.8331 -0.5987  0.0651
 7244TIP3    H143223   6.883   5.503   2.889 -0.5935 -0.6341 -0.2460
 7244TIP3    H243224   6.777   5.610   2.906  0.7681  0.6401  0.4294
 7245TIP3   OH243225   6.538   5.429  16.272  0.4154 -0.2749  0.0999
 7245TIP3    H143226   6.610   5.491  16.280 -0.1374  0.3005  0.7795
 7245TIP3    H243227   6.524   5.420  16.178  1.0322  0.0066 -0.0232
 7246TIP3   OH243228   1.708   2.613   2.783  0.6413  0.0341 -0.1641
 7246TIP3    H143229   1.736   2.610   2.875  0.4175 -0.1047 -0.0995
 7246TIP3    H243230   1.725   2.703   2.755 -1.1260  0.6500  0.5947
 7247TIP3   OH243231   1.626   1.041  16.649 -0.8847 -0.2582 -0.0863
 7247TIP3    H143232   1.557   1.049  16.714  0.4264 -1.9657  1.6284
 7247TIP3    H243233   1.678   1.121  16.659 -1.7115  0.3107 -0.3076
 7248TIP3   OH243234   0.195   6.528  14.739  0.1172 -0.1660 -0.1540
 7248TIP3    H143235   0.223   6.436  14.730 -0.3321 -0.1403 -2.2036
 7248TIP3    H243236   0.105   6.522  14.770  0.3776 -0.3736  0.5967
 7249TIP3   OH243237   0.574   0.265  17.051 -0.0951  0.5371 -0.3110
 7249TIP3    H143238   0.490   0.219  17.043  0.4197 -0.1909 -2.1201
 7249TIP3    H243239   0.640   0.199  17.029  0.9528  1.1817  0.7931
 7250TIP3   OH243240   4.064   0.635   6.193 -0.2142 -0.4002 -0.4525
 7250TIP3    H143241   3.993   0.651   6.254 -0.4154 -0.3711 -0.6924
 7250TIP3    H243242   4.142   0.669   6.237 -0.0796 -1.8497  0.4799
 7251TIP3   OH243243   2.922   5.269   4.898 -0.5727  0.3581 -0.2291
 7251TIP3    H143244   2.851   5.332   4.915 -2.1436 -1.2546 -0.4880
 7251TIP3    H243245   2.980   5.277   4.974 -1.9902  0.5021  0.8829
 7252TIP3   OH243246   1.982   6.048  11.965 -0.4217 -0.6019 -0.0788
 7252TIP3    H143247   1.902   6.053  11.913  0.1977  2.8602 -1.0049
 7252TIP3    H243248   2.044   6.001  11.910 -0.9053 -0.4072 -0.7995
 7253TIP3   OH243249   3.814   5.833   1.637 -0.2192 -0.0002 -0.5436
 7253TIP3    H143250   3.792   5.792   1.721  0.6539  1.3220  0.3727
 7253TIP3    H243251   3.793   5.926   1.649 -1.2197  0.0378 -2.2249
 7254TIP3   OH243252   3.049   4.974  11.832 -0.2120 -0.3485  0.2928
 7254TIP3    H143253   3.144   4.969  11.819 -0.0021  0.8176  1.2344
 7254TIP3    H243254   3.039   5.008  11.921 -1.5152  0.6672 -0.2250
 7255TIP3   OH243255   6.533   0.056  16.796  0.0784 -0.1148 -0.3511
 7255TIP3    H143256   6.570   0.017  16.876 -1.1100  0.5121  0.5398
 7255TIP3    H243257   6.606   0.105  16.758  0.3007  0.8085  1.1729
 7256TIP3   OH243258   2.642   3.106  12.363 -0.4719  0.2693  0.3093
 7256TIP3    H143259   2.662   3.022  12.322 -2.7793  0.6913 -1.9449
 7256TIP3    H243260   2.595   3.083  12.443  0.8025 -0.5613  0.8456
 7257TIP3   OH243261   5.053   1.904   4.112  0.3407  0.0225  0.0409
 7257TIP3    H143262   5.050   1.878   4.020  0.5696  1.0345 -0.2743
 7257TIP3    H243263   5.145   1.893   4.137  0.2322 -0.4854  0.2273
 7258TIP3   OH243264   0.229   0.392  16.503  0.0594  0.0335 -0.7714
 7258TIP3    H143265   0.310   0.397  16.552  0.7261  3.0097 -1.9641
 7258TIP3    H243266   0.169   0.450  16.549 -1.5124 -2.1769  0.1412
 7259TIP3   OH243267   3.489   4.590   0.515 -0.1984  1.5108  0.0304
 7259TIP3    H143268   3.474   4.628   0.428  0.7136  1.4862 -0.1413
 7259TIP3    H243269   3.567   4.635   0.548 -0.6551  1.6777  0.9375
 7260TIP3   OH243270   1.751   6.293  12.597 -0.0838  0.1480 -0.1617
 7260TIP3    H143271   1.780   6.221  12.541 -0.3377  0.2535 -0.4346
 7260TIP3    H243272   1.657   6.301  12.579  0.0779  1.0362 -0.6981
 7261TIP3   OH243273   1.158   6.392   5.848 -0.3827 -0.1709 -0.2011
 7261TIP3    H143274   1.105   6.409   5.926 -0.0944  0.4256 -0.1245
 7261TIP3    H243275   1.210   6.472   5.838 -1.7712  0.5866 -2.0850
 7262TIP3   OH243276   1.385   1.523   2.756 -0.2457 -0.4573 -0.0096
 7262TIP3    H143277   1.310   1.540   2.699  0.5410  1.2008 -0.6213
 7262TIP3    H243278   1.406   1.608   2.794  0.7414 -1.0854  0.8947
 7263TIP3   OH243279   1.354   2.227  16.845  0.1901 -0.2414  0.5520
 7263TIP3    H143280   1.280   2.273  16.805 -0.8193 -2.3721 -0.1760
 7263TIP3    H243281   1.320   2.196  16.929 -0.1489 -2.1033 -0.2212
 7264TIP3   OH243282   6.817   0.211   4.316  0.1769  0.0511  0.0318
 7264TIP3    H143283   6.884   0.163   4.268 -1.2427 -0.6302 -1.3670
 7264TIP3    H243284   6.863   0.288   4.351  1.6056 -0.2102 -1.1458
 7265TIP3   OH243285   5.715   0.169  15.866  0.4394 -0.0400  0.0545
 7265TIP3    H143286   5.703   0.232  15.938  0.9778 -0.6131  0.6633
 7265TIP3    H243287   5.643   0.107  15.877  0.2878  0.1009 -0.1467
 7266TIP3   OH243288   5.369   5.204  16.257  0.4573  0.5079 -0.4775
 7266TIP3    H143289   5.300   5.260  16.222 -0.1414 -0.2941 -0.5788
 7266TIP3    H243290   5.328   5.158  16.331  1.6765  2.1535  1.3273
 7267TIP3   OH243291   5.446   2.912  11.094  0.2928  0.1384  0.0172
 7267TIP3    H143292   5.416   2.938  11.181  0.4311  2.6215 -0.5994
 7267TIP3    H243293   5.367   2.911  11.040  0.4554  0.5828 -0.2415
 7268TIP3   OH243294   3.943   4.314   3.002 -0.4399 -0.2282 -0.1642
 7268TIP3    H143295   3.974   4.234   2.959 -0.9147 -1.5606  1.8320
 7268TIP3    H243296   3.855   4.292   3.032 -0.9031  1.3559 -0.2706
 7269TIP3   OH243297   4.674   5.626  10.427 -0.6065 -0.4901 -0.2894
 7269TIP3    H143298   4.759   5.666  10.447 -0.2501 -1.2497 -0.2551
 7269TIP3    H243299   4.613   5.700  10.421  0.0762  0.0661 -0.4113
 7270TIP3   OH243300   3.259   3.428  13.147  0.0112  0.3781 -0.4233
 7270TIP3    H143301   3.271   3.337  13.117  5.0796  0.5417  0.1120
 7270TIP3    H243302   3.213   3.419  13.230 -0.9960 -1.5180 -1.1066
 7271TIP3   OH243303   5.170   5.946  11.700  0.2075  0.0914  0.5416
 7271TIP3    H143304   5.221   5.865  11.705  0.0244 -0.1730 -1.2565
 7271TIP3    H243305   5.108   5.931  11.629 -1.9802  0.6730  2.2198
 7272TIP3   OH243306   0.883   0.786   0.446 -0.1503  0.0565  0.3594
 7272TIP3    H143307   0.958   0.837   0.417 -0.8601  0.9703  0.0657
 7272TIP3    H243308   0.808   0.845   0.436 -0.5816  0.1647  3.2120
 7273TIP3   OH243309   2.088   5.646  15.398 -0.0178  0.2531 -0.1732
 7273TIP3    H143310   2.013   5.658  15.340 -0.1148  1.6073  0.1830
 7273TIP3    H243311   2.085   5.554  15.423 -0.9959  0.0655 -0.9302
 7274TIP3   OH243312   4.711   2.167  13.364 -0.8142 -0.4372  0.4453
 7274TIP3    H143313   4.758   2.224  13.425 -1.0709 -0.3532  0.5612
 7274TIP3    H243314   4.648   2.119  13.418  0.8396 -2.4389  0.7369
 7275TIP3   OH243315   2.386   4.729   1.381  0.0926  0.8798 -0.1641
 7275TIP3    H143316   2.448   4.781   1.432 -0.2906  3.9895 -2.5090
 7275TIP3    H243317   2.346   4.793   1.321 -1.4040 -1.9905 -2.4683
 7276TIP3   OH243318   2.649   0.078  13.892 -0.3265 -0.8967 -0.0308
 7276TIP3    H143319   2.736   0.067  13.931 -0.3869 -0.1269  0.3245
 7276TIP3    H243320   2.633   0.172  13.895 -1.9180 -1.1570  1.5513
 7277TIP3   OH243321   4.489   0.441   2.808  0.2851  0.9340 -0.2099
 7277TIP3    H143322   4.457   0.437   2.898 -1.4631  1.2023 -0.7702
 7277TIP3    H243323   4.492   0.349   2.780  0.1823  0.8931 -0.0878
 7278TIP3   OH243324   4.789   2.746   1.775 -0.1030 -0.6644 -0.2344
 7278TIP3    H143325   4.862   2.782   1.825 -0.3341 -1.2994  0.5943
 7278TIP3    H243326   4.726   2.818   1.767  0.4347 -0.2353 -0.6040
 7279TIP3   OH243327   4.887   1.123  14.952  0.1295  0.5647  0.0216
 7279TIP3    H143328   4.799   1.148  14.924  0.9663  0.9681 -2.5294
 7279TIP3    H243329   4.913   1.054  14.891  1.0739 -0.5941  1.6416
 7280TIP3   OH243330   5.932   3.173   0.307  0.1285  0.0035 -0.1869
 7280TIP3    H143331   5.874   3.097   0.300 -0.7812  0.7137 -0.5948
 7280TIP3    H243332   5.964   3.187   0.218  0.4492 -0.0278 -0.0757
 7281TIP3   OH243333   6.216   6.469   1.904 -0.1226 -0.1132 -0.0153
 7281TIP3    H143334   6.138   6.507   1.944  0.6388  1.4099  0.1283
 7281TIP3    H243335   6.209   6.491   1.811  0.3183  0.3854  0.0649
 7282TIP3   OH243336   5.255   4.045   3.686 -0.7560  0.1885 -0.0746
 7282TIP3    H143337   5.187   4.110   3.671 -0.7497  0.6427  1.6413
 7282TIP3    H243338   5.207   3.963   3.702 -0.7705 -0.2143 -1.9423
 7283TIP3   OH243339   4.235   1.100  15.160 -0.5598  0.3129  0.8061
 7283TIP3    H143340   4.213   1.169  15.223 -0.6943 -0.0927  1.2104
 7283TIP3    H243341   4.331   1.095  15.163 -0.5951 -0.1650  1.4905
 7284TIP3   OH243342   6.086   2.697   5.290  0.1153 -0.5471  0.3663
 7284TIP3    H143343   6.009   2.655   5.253 -0.1498 -0.2230  0.5455
 7284TIP3    H243344   6.055   2.782   5.321  0.4317 -0.6189  0.8958
 7285TIP3   OH243345   1.347   0.486  10.855 -0.0332 -0.0484  0.1971
 7285TIP3    H143346   1.310   0.570  10.826 -3.1375 -1.1457  0.5782
 7285TIP3    H243347   1.372   0.442  10.774 -2.4549 -0.4213 -0.4339
 7286TIP3   OH243348   3.393   4.995   6.119  0.0196  0.0225 -0.8288
 7286TIP3    H143349   3.382   5.042   6.201 -1.6369 -0.5188 -0.6905
 7286TIP3    H243350   3.486   4.975   6.114  0.4679  1.7976 -0.0713
 7287TIP3   OH243351   4.157   5.454  15.858  0.7119 -0.0308  0.2721
 7287TIP3    H143352   4.086   5.447  15.922 -0.7510 -1.4115 -1.4171
 7287TIP3    H243353   4.124   5.515  15.792  1.8132  0.6234  0.2879
 7288TIP3   OH243354   0.655   2.328  11.836  0.6854 -0.8196  0.0878
 7288TIP3    H143355   0.688   2.268  11.902  0.0083 -1.3828 -0.0816
 7288TIP3    H243356   0.722   2.397  11.831  1.1470 -1.2125  0.7445
 7289TIP3   OH243357   6.383   3.602   2.499  0.1882  0.2500 -0.0080
 7289TIP3    H143358   6.417   3.545   2.431 -1.6685 -0.4869 -0.3929
 7289TIP3    H243359   6.399   3.691   2.466  1.2874 -0.0617 -0.3486
 7290TIP3   OH243360   3.217   5.240   0.478  0.2906  0.3474 -0.7188
 7290TIP3    H143361   3.219   5.334   0.496  1.3846  0.2169 -0.0919
 7290TIP3    H243362   3.233   5.198   0.563 -1.1921 -0.4429 -0.7960
 7291TIP3   OH243363   1.500   2.688  15.389 -0.0068  0.8208  0.1548
 7291TIP3    H143364   1.407   2.700  15.409 -0.3081 -0.9278  0.0160
 7291TIP3    H243365   1.519   2.755  15.324 -1.0829  1.4336  0.4462
 7292TIP3   OH243366   1.289   3.762  13.005 -0.7858  0.1398  0.4996
 7292TIP3    H143367   1.286   3.794  13.095  0.2282 -0.8174  0.9010
 7292TIP3    H243368   1.372   3.714  13.000  0.1985  1.8649 -1.5155
 7293TIP3   OH243369   5.926   4.627   2.235 -0.5104 -0.4968  0.1692
 7293TIP3    H143370   5.846   4.580   2.211 -1.2926 -1.2030  3.6767
 7293TIP3    H243371   5.979   4.562   2.282  1.2963  0.4845 -0.4235
 7294TIP3   OH243372   5.842   4.958  13.188 -0.0595 -0.1203 -0.2559
 7294TIP3    H143373   5.861   5.021  13.119  1.6596 -0.5071 -0.1830
 7294TIP3    H243374   5.923   4.953  13.239 -0.7660 -1.0270  0.8315
 7295TIP3   OH243375   2.711   0.940   0.145  0.0297 -0.8692 -0.4387
 7295TIP3    H143376   2.687   1.033   0.137  2.0552 -0.1914  0.6818
 7295TIP3    H243377   2.627   0.894   0.146 -1.1123  1.0968  0.5547
 7296TIP3   OH243378   4.838   4.222   3.057  0.2259  0.2931 -0.0032
 7296TIP3    H143379   4.901   4.216   3.129  0.8525  0.1955 -0.5374
 7296TIP3    H243380   4.798   4.135   3.053  1.4192 -0.2486 -0.8298
 7297TIP3   OH243381   3.648   4.234   1.865  0.1211  0.4624 -0.2325
 7297TIP3    H143382   3.628   4.275   1.949  2.1091  1.0041  0.0301
 7297TIP3    H243383   3.744   4.233   1.861  0.1034  1.2919 -2.8998
 7298TIP3   OH243384   3.437   3.963   4.456  0.6183 -0.3592  0.3314
 7298TIP3    H143385   3.375   4.025   4.418  1.0056 -1.5846 -2.6284
 7298TIP3    H243386   3.521   3.986   4.417  1.2356 -1.2211  1.1115
 7299TIP3   OH243387   0.271   3.080   4.309  0.6954 -0.1551 -0.2676
 7299TIP3    H143388   0.272   3.078   4.405  1.0422  0.3088 -0.2591
 7299TIP3    H243389   0.356   3.042   4.284  0.9184  0.4149 -0.3773
 7300TIP3   OH243390   6.252   5.964   6.390  0.3383  0.0217 -0.4604
 7300TIP3    H143391   6.169   6.009   6.407  1.4537  1.8674  0.4399
 7300TIP3    H243392   6.229   5.871   6.385 -1.1415 -0.1831  4.8350
 7301TIP3   OH243393   0.912   3.614   4.412  0.7322  0.2771  0.1227
 7301TIP3    H143394   0.889   3.697   4.454  2.2835  0.0253  1.5926
 7301TIP3    H243395   0.883   3.624   4.322  0.0170  2.0458  0.5036
 7302TIP3   OH243396   3.450   1.443   1.775  0.1415  1.1997  0.4301
 7302TIP3    H143397   3.476   1.451   1.684  2.8062  0.7177  1.0654
 7302TIP3    H243398   3.408   1.358   1.781  0.1982  1.1164 -0.2949
 7303TIP3   OH243399   1.899   5.447   0.251  0.2460 -0.0814 -0.0240
 7303TIP3    H143400   1.918   5.538   0.273 -0.1241  0.0303 -0.1570
 7303TIP3    H243401   1.960   5.428   0.179  0.5671 -0.0507  0.2369
 7304TIP3   OH243402   0.079   4.296   3.824 -0.9033 -0.2384 -0.1002
 7304TIP3    H143403   0.002   4.333   3.867  0.1644  1.7316  0.2338
 7304TIP3    H243404   0.143   4.286   3.894 -0.1197  0.2664 -0.7237
 7305TIP3   OH243405   3.321   4.672  14.635  0.6820  0.0559 -0.2862
 7305TIP3    H143406   3.305   4.756  14.677  0.5650 -0.0442 -0.1299
 7305TIP3    H243407   3.387   4.691  14.569 -0.2331  0.5188 -1.0924
 7306TIP3   OH243408   5.321   6.467  13.845  0.2115 -0.0977  0.0733
 7306TIP3    H143409   5.280   6.382  13.826 -0.4898 -0.5440  3.0783
 7306TIP3    H243410   5.260   6.532  13.808 -0.3988 -0.8519 -0.2788
 7307TIP3   OH243411   3.498   3.001   5.859  0.1400  0.0928  0.2525
 7307TIP3    H143412   3.466   2.960   5.940 -0.9615  3.2604  1.5661
 7307TIP3    H243413   3.445   3.080   5.850  1.5313  0.8166 -2.6048
 7308TIP3   OH243414   0.386   3.621  12.275  0.7949 -0.0188 -0.1668
 7308TIP3    H143415   0.366   3.527  12.273  1.5034 -0.1768 -0.0073
 7308TIP3    H243416   0.417   3.636  12.365  1.1128  0.2735 -0.3245
 7309TIP3   OH243417   5.934   3.800  12.660 -0.2187 -0.1995  0.0934
 7309TIP3    H143418   5.845   3.799  12.626 -0.3328  0.2298  0.3708
 7309TIP3    H243419   5.926   3.836  12.748  0.1268 -0.9294  0.4290
 7310TIP3   OH243420   1.440   5.061  13.164 -0.0544  0.3206  0.1090
 7310TIP3    H143421   1.370   4.997  13.146 -0.1314  0.6629 -0.8613
 7310TIP3    H243422   1.422   5.090  13.253 -0.2597 -0.7102  0.4223
 7311TIP3   OH243423   0.100   1.299   1.416 -0.1113 -0.2043 -0.2219
 7311TIP3    H143424   0.106   1.382   1.371  1.1080  0.4511  1.0632
 7311TIP3    H243425   0.185   1.289   1.460  1.0660 -3.5956 -2.7689
 7312TIP3   OH243426   6.245   0.867  15.101 -0.2298  0.5320  0.4810
 7312TIP3    H143427   6.197   0.786  15.083 -0.1706  0.7664 -0.8350
 7312TIP3    H243428   6.269   0.901  15.014  0.0481  1.7796  1.0175
 7313TIP3   OH243429   2.105   6.810  17.095 -0.1005  0.2997  0.6172
 7313TIP3    H143430   2.062   6.895  17.103 -1.0863 -0.1395  0.1370
 7313TIP3    H243431   2.129   6.803  17.003  0.0463  0.0889  0.6715
 7314TIP3   OH243432   4.467   3.652  14.792  0.6860 -0.1029 -0.9219
 7314TIP3    H143433   4.470   3.705  14.871  1.3239  0.5967 -1.3985
 7314TIP3    H243434   4.548   3.601  14.794  1.1351  0.5594 -1.5395
 7315TIP3   OH243435   2.960   6.614   5.369  0.0311 -0.3009  0.1346
 7315TIP3    H143436   2.974   6.625   5.463  0.7250 -2.2270  0.2925
 7315TIP3    H243437   3.011   6.684   5.329  0.9208 -0.3475  1.1480
 7316TIP3   OH243438   6.034   0.318   3.598  0.2023 -0.2916 -0.2865
 7316TIP3    H143439   5.969   0.385   3.576 -0.0186  0.0761  1.3262
 7316TIP3    H243440   5.990   0.235   3.583 -1.5279 -0.0846  2.8619
 7317TIP3   OH243441   1.055   3.809  15.756 -0.2218 -0.1689 -0.3180
 7317TIP3    H143442   0.975   3.846  15.794  0.4821  0.6408  0.4311
 7317TIP3    H243443   1.077   3.867  15.684  1.1784  1.2880  1.1884
 7318TIP3   OH243444   3.770   3.898   4.559 -0.7996  0.5308  0.2642
 7318TIP3    H143445   3.725   3.819   4.528 -0.3248 -0.7727  2.6616
 7318TIP3    H243446   3.816   3.931   4.481 -0.2418 -2.0917 -0.6501
 7319TIP3   OH243447   1.486   6.179  11.425  0.4251 -0.1350  0.0663
 7319TIP3    H143448   1.418   6.192  11.491 -0.6654  1.7958 -1.3590
 7319TIP3    H243449   1.444   6.200  11.342  1.9250 -1.9345 -1.2403
 7320TIP3   OH243450   3.746   1.813  16.342 -0.2286 -0.1721 -0.7071
 7320TIP3    H143451   3.755   1.899  16.302 -1.5184  0.4166  0.2114
 7320TIP3    H243452   3.777   1.824  16.432  3.4021 -1.6667 -1.5764
 7321TIP3   OH243453   4.785   5.629  15.269 -0.2252 -0.5843 -0.2066
 7321TIP3    H143454   4.715   5.667  15.216  0.0677  1.0593  0.5465
 7321TIP3    H243455   4.862   5.630  15.212 -0.1547  0.2011 -0.0939
 7322TIP3   OH243456   6.346   0.005   1.098  0.5339  0.3589 -0.1494
 7322TIP3    H143457   6.275   0.004   1.162  0.3600 -1.0008 -0.3226
 7322TIP3    H243458   6.330  -0.072   1.044  1.7188  0.4509 -0.6649
 7323TIP3   OH243459   6.317   0.422  16.036  0.2218 -0.3550 -0.8027
 7323TIP3    H143460   6.378   0.495  16.023  1.1206 -0.8001  0.7045
 7323TIP3    H243461   6.339   0.387  16.123 -2.2664 -0.4515 -0.1238
 7324TIP3   OH243462   6.379   5.263  15.972 -0.2597 -0.3467  0.0388
 7324TIP3    H143463   6.414   5.185  15.930 -0.7870 -0.1266 -0.8426
 7324TIP3    H243464   6.345   5.232  16.056  4.0028 -0.2083  2.0866
 7325TIP3   OH243465   2.209   1.279  14.297 -0.3957  0.4117 -0.5439
 7325TIP3    H143466   2.256   1.338  14.357 -1.1019  1.1090 -0.6608
 7325TIP3    H243467   2.127   1.260  14.343  1.7485 -4.6226  1.9333
 7326TIP3   OH243468   2.396   3.224   5.948 -0.0834  0.4225 -0.2392
 7326TIP3    H143469   2.447   3.194   6.024  0.5181  0.7558 -0.5043
 7326TIP3    H243470   2.307   3.235   5.982  0.2896  1.1160  0.5712
 7327TIP3   OH243471   3.320   2.924  12.873  0.3752  0.2757  0.4016
 7327TIP3    H143472   3.282   3.006  12.841 -1.8279 -0.6077  0.6126
 7327TIP3    H243473   3.330   2.938  12.968  1.0120  0.6511  0.2879
 7328TIP3   OH243474   2.080   4.064   2.892  0.4467  0.0786  0.7766
 7328TIP3    H143475   2.028   3.990   2.861  0.3876  0.2578  0.4437
 7328TIP3    H243476   2.051   4.078   2.982  0.0353  0.0766  0.6431
 7329TIP3   OH243477   5.217   2.141   3.073  0.5636  0.4203  0.2775
 7329TIP3    H143478   5.121   2.140   3.082  0.4103 -2.0988 -0.8934
 7329TIP3    H243479   5.249   2.146   3.163 -0.6576  1.0592  0.6990
 7330TIP3   OH243480   2.705   1.461  14.980 -0.4846 -0.1522  0.7272
 7330TIP3    H143481   2.614   1.458  14.949 -0.7095 -0.5673  1.4065
 7330TIP3    H243482   2.703   1.520  15.055 -0.0764  0.2995  0.3897
 7331TIP3   OH243483   2.756   2.621  16.882  0.2828  0.4235  0.4494
 7331TIP3    H143484   2.698   2.548  16.906  0.7643  0.5533  2.1219
 7331TIP3    H243485   2.697   2.688  16.850 -0.3310 -0.1005  0.4481
 7332TIP3   OH243486   3.258   2.499   3.931  0.5169  0.0219 -0.5052
 7332TIP3    H143487   3.186   2.562   3.944 -0.7867 -1.5292  0.1874
 7332TIP3    H243488   3.333   2.553   3.907 -0.4276  1.8922  0.4895
 7333TIP3   OH243489   0.673   2.729  12.417 -0.1064 -0.0159  0.1791
 7333TIP3    H143490   0.714   2.785  12.351 -1.1242  1.8142  1.0404
 7333TIP3    H243491   0.580   2.750  12.412 -0.2534 -0.1993  1.8691
 7334TIP3   OH243492   3.290   5.638  15.361 -0.5547  0.0712  0.3811
 7334TIP3    H143493   3.256   5.599  15.442  2.1056 -2.0390  0.6362
 7334TIP3    H243494   3.291   5.566  15.298  0.1137  0.9459 -0.6372
 7335TIP3   OH243495   0.901   4.664  12.279  0.2161  0.3924  0.1824
 7335TIP3    H143496   0.858   4.726  12.220  2.6737  1.7183 -0.3503
 7335TIP3    H243497   0.940   4.719  12.347  2.1719 -0.5660 -0.1069
 7336TIP3   OH243498   2.430   1.956  12.459 -0.4722 -0.0868 -0.0786
 7336TIP3    H143499   2.429   2.038  12.509 -0.3563 -1.1862  1.8386
 7336TIP3    H243500   2.520   1.947  12.428 -0.3707  0.2758  0.1148
 7337TIP3   OH243501   4.502   5.739  13.078  0.2379 -0.1161  0.3796
 7337TIP3    H143502   4.418   5.744  13.032  0.0389  1.4188  0.8484
 7337TIP3    H243503   4.489   5.671  13.144 -0.7946  0.4076  0.7364
 7338TIP3   OH243504   4.725   1.500  13.449 -0.3421  0.2003  0.4015
 7338TIP3    H143505   4.819   1.487  13.464 -0.0161  1.3268 -0.4966
 7338TIP3    H243506   4.699   1.563  13.517 -0.6933 -0.8975  1.3038
 7339TIP3   OH243507   2.638   6.645  16.378  0.4204 -0.4169 -0.5930
 7339TIP3    H143508   2.691   6.702  16.323 -0.5248 -1.4952 -2.7253
 7339TIP3    H243509   2.698   6.574  16.404  0.5319 -0.6208 -1.3883
 7340TIP3   OH243510   4.501   6.217  15.211  0.2804  0.0241  0.4846
 7340TIP3    H143511   4.595   6.230  15.222  0.1005  0.4609  1.6113
 7340TIP3    H243512   4.492   6.124  15.190  0.9859  0.0678 -0.0672
 7341TIP3   OH243513   3.704   5.222  16.075 -0.0146  0.3018  0.1412
 7341TIP3    H143514   3.700   5.312  16.108 -0.3022  0.4378 -0.2547
 7341TIP3    H243515   3.612   5.198  16.062  0.0256 -0.3066  0.9354
 7342TIP3   OH243516   3.508   6.309   5.316  0.5817  0.1345  0.5640
 7342TIP3    H143517   3.474   6.258   5.243  0.8689  0.6722  0.0469
 7342TIP3    H243518   3.433   6.356   5.350 -0.4473 -2.9194  3.0715
 7343TIP3   OH243519   0.430   3.539   0.687  0.1331  0.3565  0.4783
 7343TIP3    H143520   0.390   3.588   0.758 -2.0781  0.9159 -1.0356
 7343TIP3    H243521   0.373   3.462   0.676  0.9814 -0.2168 -0.0703
 7344TIP3   OH243522   3.377   0.457  11.232 -0.2516 -0.2907 -0.0033
 7344TIP3    H143523   3.296   0.507  11.241 -0.6271 -1.1379  1.8668
 7344TIP3    H243524   3.354   0.369  11.262  1.0712 -0.8794 -0.6113
 7345TIP3   OH243525   5.429   6.091   4.058  0.2396 -0.1821  0.5547
 7345TIP3    H143526   5.475   6.010   4.079 -0.3445 -0.2389  1.6779
 7345TIP3    H243527   5.356   6.095   4.120 -0.3407  0.6987 -0.1526
 7346TIP3   OH243528   6.117   2.195  15.872 -0.1800 -0.2713  0.4934
 7346TIP3    H143529   6.142   2.228  15.785 -0.3297 -0.6161  0.3147
 7346TIP3    H243530   6.035   2.148  15.856 -0.8634  0.7180  1.0473
 7347TIP3   OH243531   0.214   0.103   3.164  0.2979  0.7973  0.0860
 7347TIP3    H143532   0.202   0.064   3.251 -2.6774  1.5684  0.1382
 7347TIP3    H243533   0.254   0.033   3.112 -1.7241 -1.1900  1.0262
 7348TIP3   OH243534   3.049   0.639   0.650  0.2534  0.2658  0.3539
 7348TIP3    H143535   2.994   0.562   0.633  0.3488  0.4107 -0.6076
 7348TIP3    H243536   2.986   0.707   0.677  0.0544  0.1896  0.0828
 7349TIP3   OH243537   2.790   1.868  12.697  0.2677  0.2351  0.0040
 7349TIP3    H143538   2.790   1.843  12.605  0.0031 -0.2249  0.1228
 7349TIP3    H243539   2.805   1.785  12.744 -1.6008  0.1078  0.4612
 7350TIP3   OH243540   5.940   2.245   1.059  0.0032 -0.5419  0.1975
 7350TIP3    H143541   5.907   2.285   0.978  1.2780 -1.7911 -0.9867
 7350TIP3    H243542   6.029   2.278   1.067  0.4163 -1.6258  0.2367
 7351TIP3   OH243543   1.737   5.578  15.594 -0.5077  0.0243 -0.2304
 7351TIP3    H143544   1.754   5.666  15.560 -2.3161  0.6959  0.4688
 7351TIP3    H243545   1.668   5.591  15.659  0.2548 -1.7222  0.9854
 7352TIP3   OH243546   4.304   2.085   0.170 -0.4153  0.6983 -0.3564
 7352TIP3    H143547   4.294   2.170   0.127  2.0820  1.0771 -0.3070
 7352TIP3    H243548   4.353   2.103   0.249 -1.7275 -0.5373  0.7992
 7353TIP3   OH243549   4.195   0.553   2.918 -0.2371  0.1493 -0.1396
 7353TIP3    H143550   4.229   0.467   2.893 -2.2505 -1.0305  0.9107
 7353TIP3    H243551   4.208   0.559   3.012 -2.0233  0.0253  0.1535
 7354TIP3   OH243552   1.689   6.558  14.199 -0.0701  0.3588  0.0023
 7354TIP3    H143553   1.669   6.588  14.287  2.2532 -0.3254  0.8460
 7354TIP3    H243554   1.668   6.465  14.199  1.8729 -0.1341  0.5802
 7355TIP3   OH243555   4.330   5.339   3.117 -0.3679 -0.4513  0.2758
 7355TIP3    H143556   4.284   5.403   3.172 -0.4328  0.0294 -0.3249
 7355TIP3    H243557   4.300   5.254   3.150  0.7131 -0.2256  1.9408
 7356TIP3   OH243558   6.829   6.428   4.450  0.1644  0.2890 -0.4185
 7356TIP3    H143559   6.812   6.499   4.388 -0.1817  0.4428 -0.1485
 7356TIP3    H243560   6.885   6.367   4.401 -0.4929  0.1687 -1.0534
 7357TIP3   OH243561   3.772   1.694   5.365  0.2948  0.0154  0.3877
 7357TIP3    H143562   3.731   1.775   5.338 -1.2852 -1.1589 -0.9485
 7357TIP3    H243563   3.732   1.673   5.450  1.1004  0.8543  0.9984
 7358TIP3   OH243564   6.196   3.262  14.292 -0.1778  0.0130 -0.4295
 7358TIP3    H143565   6.266   3.310  14.336 -1.7454  1.7908  0.2558
 7358TIP3    H243566   6.205   3.172  14.323  0.6551  0.5827  1.0883
 7359TIP3   OH243567   1.748   1.810  15.074 -0.3131  0.3432 -0.2279
 7359TIP3    H143568   1.815   1.816  15.143  0.4563  1.9375 -1.0763
 7359TIP3    H243569   1.731   1.716  15.067 -0.8706  0.1527  2.5374
 7360TIP3   OH243570   6.807   1.582  14.695 -0.6712  0.2460 -0.3672
 7360TIP3    H143571   6.902   1.588  14.707 -0.8187 -0.8684  1.8966
 7360TIP3    H243572   6.791   1.621  14.609  1.8825 -0.0191 -1.0406
 7361TIP3   OH243573   0.380   2.857   4.945  0.3668 -0.3101  0.0403
 7361TIP3    H143574   0.414   2.791   5.006 -0.5343 -1.1176 -0.2955
 7361TIP3    H243575   0.358   2.807   4.866  1.0983  0.6512 -0.7946
 7362TIP3   OH243576   3.758   4.879  13.951  0.0069 -0.0522  0.0134
 7362TIP3    H143577   3.665   4.858  13.954  0.1749 -0.9830 -0.6697
 7362TIP3    H243578   3.787   4.874  14.042 -0.5008 -0.3081  0.1664
 7363TIP3   OH243579   0.881   2.478  14.816 -0.1203  0.2989 -0.4638
 7363TIP3    H143580   0.934   2.401  14.796 -1.2079 -0.9186  1.0883
 7363TIP3    H243581   0.934   2.529  14.877 -0.4233 -0.5822  0.5663
 7364TIP3   OH243582   3.921   3.467   5.548 -0.3886 -0.1214 -0.3281
 7364TIP3    H143583   3.944   3.392   5.492  0.7079  1.0157 -1.4585
 7364TIP3    H243584   3.882   3.530   5.488 -0.3285  0.6446  0.4263
 7365TIP3   OH243585   2.958   3.053   3.553 -0.4219 -0.1600 -0.2570
 7365TIP3    H143586   2.863   3.043   3.548 -0.6515 -0.2587  2.4562
 7365TIP3    H243587   2.991   2.964   3.552 -0.3247 -0.1231 -1.2822
 7366TIP3   OH243588   6.266   5.309   1.833 -0.2938 -0.1264 -0.6373
 7366TIP3    H143589   6.239   5.386   1.783 -1.0436 -0.7361 -1.1946
 7366TIP3    H243590   6.202   5.300   1.903  0.4826  0.4453  0.1715
 7367TIP3   OH243591   0.933   1.725  11.917 -0.3365  0.1900  0.1752
 7367TIP3    H143592   0.945   1.648  11.860 -0.9555  0.1438  0.1011
 7367TIP3    H243593   0.913   1.796  11.856 -1.5698  0.0205  0.3607
 7368TIP3   OH243594   3.256   4.312   5.275 -1.1816  0.2079  0.4458
 7368TIP3    H143595   3.267   4.312   5.370 -3.7108  0.2608  0.8164
 7368TIP3    H243596   3.264   4.404   5.250 -0.8734  0.2400  0.6652
 7369TIP3   OH243597   4.101   0.129  14.081 -1.0419  0.2511  0.3634
 7369TIP3    H143598   4.025   0.070  14.088 -0.6297 -0.2061  1.0676
 7369TIP3    H243599   4.160   0.085  14.019 -1.6974  1.0073 -0.8354
 7370TIP3   OH243600   0.154   4.630   2.648  0.3342 -0.0968 -0.2292
 7370TIP3    H143601   0.169   4.724   2.638  1.1700 -0.3620 -1.7522
 7370TIP3    H243602   0.100   4.623   2.727 -1.1084  1.7749 -0.9780
 7371TIP3   OH243603   2.299   6.324  12.181 -0.4751 -0.5263  0.0563
 7371TIP3    H143604   2.368   6.387  12.160 -0.0386 -1.4657 -1.5234
 7371TIP3    H243605   2.244   6.321  12.102  1.4606 -4.5201 -1.4793
 7372TIP3   OH243606   6.768   0.560  12.383 -0.1666  0.1994  0.3612
 7372TIP3    H143607   6.735   0.615  12.454  0.4393  1.3674 -0.2266
 7372TIP3    H243608   6.690   0.533  12.336 -0.4129  2.2427 -0.5249
 7373TIP3   OH243609   1.325   2.658   4.362 -0.8266  0.8355  0.0871
 7373TIP3    H143610   1.380   2.724   4.319 -0.0194  1.7458  2.3654
 7373TIP3    H243611   1.259   2.708   4.409 -0.9473 -0.0255  0.8793
 7374TIP3   OH243612   1.236   5.756   5.499 -0.6632  0.2445  0.2858
 7374TIP3    H143613   1.277   5.767   5.412  0.0197 -0.0235  0.5666
 7374TIP3    H243614   1.267   5.832   5.548  1.4147 -1.1028  1.2170
 7375TIP3   OH243615   3.872   4.830   1.891  0.0114  0.3712  0.4672
 7375TIP3    H143616   3.952   4.854   1.937  0.3644 -0.2409  0.1879
 7375TIP3    H243617   3.808   4.814   1.960  1.5548 -4.5124  1.1848
 7376TIP3   OH243618   5.103   4.593  11.328  0.6764 -0.3310  0.1460
 7376TIP3    H143619   5.052   4.618  11.404 -0.1107  0.5564 -0.6477
 7376TIP3    H243620   5.057   4.517  11.292  0.6257 -0.2960  0.1364
 7377TIP3   OH243621   5.819   0.502   3.562 -0.1460 -0.4844  0.1579
 7377TIP3    H143622   5.737   0.505   3.513 -0.5673  0.2424  0.8737
 7377TIP3    H243623   5.792   0.511   3.654  0.6096 -1.8918  0.5541
 7378TIP3   OH243624   3.212   0.306  12.743 -0.3296  0.1401 -0.2535
 7378TIP3    H143625   3.154   0.371  12.782 -2.1675 -0.8468 -1.1879
 7378TIP3    H243626   3.282   0.357  12.703 -1.9153  1.6030 -1.3162
 7379TIP3   OH243627   2.578   3.751  16.947 -0.1058  0.0494 -0.3119
 7379TIP3    H143628   2.514   3.680  16.942  0.9341 -0.9953  0.7466
 7379TIP3    H243629   2.632   3.730  17.023  1.7772  0.6599 -1.4076
 7380TIP3   OH243630   4.926   5.073   0.834  0.0508 -0.3047  0.0328
 7380TIP3    H143631   4.865   5.000   0.835  1.2164 -1.3858  2.6948
 7380TIP3    H243632   4.983   5.055   0.759 -2.1876  0.2221 -1.9096
 7381TIP3   OH243633   5.160   5.277   3.762  0.1235 -0.6268  0.3574
 7381TIP3    H143634   5.179   5.213   3.831 -1.4324 -1.7763 -0.2297
 7381TIP3    H243635   5.193   5.236   3.682 -2.5191 -1.6235 -0.3182
 7382TIP3   OH243636   1.854   3.167   6.178  0.1534  0.1836 -0.1834
 7382TIP3    H143637   1.868   3.201   6.266  1.2326 -4.8336  1.9134
 7382TIP3    H243638   1.760   3.157   6.171  0.1600 -2.1320  1.7980
 7383TIP3   OH243639   5.777   4.435  14.592  0.5524  0.2316 -0.4734
 7383TIP3    H143640   5.742   4.515  14.555 -0.4504 -0.1370 -0.3437
 7383TIP3    H243641   5.715   4.410  14.661 -0.1837 -1.6267 -1.7225
 7384TIP3   OH243642   2.794   1.497  15.652  0.2209  0.1999 -0.2998
 7384TIP3    H143643   2.702   1.491  15.627 -0.2855  1.1223  1.1980
 7384TIP3    H243644   2.802   1.439  15.728  0.6554  0.8368  0.1468
 7385TIP3   OH243645   6.363   5.532   2.054 -0.3277  0.1289 -0.4994
 7385TIP3    H143646   6.304   5.587   2.004 -0.5339  2.1003  1.7119
 7385TIP3    H243647   6.431   5.592   2.086  0.5829 -1.2862  0.3714
 7386TIP3   OH243648   3.628   1.311   4.569 -0.2749 -0.9908 -0.4430
 7386TIP3    H143649   3.680   1.231   4.565  0.0060 -0.8846  0.6880
 7386TIP3    H243650   3.653   1.352   4.652  1.1017  1.3154 -1.8953
 7387TIP3   OH243651   3.430   6.448  10.550  0.7188  0.0522  0.2250
 7387TIP3    H143652   3.372   6.479  10.620  1.6211 -0.6079  1.2900
 7387TIP3    H243653   3.506   6.506  10.554  1.2899 -0.6885  0.5842
 7388TIP3   OH243654   5.913   2.981  13.711  0.1967  0.1979 -0.3092
 7388TIP3    H143655   5.931   3.028  13.792 -1.4836  0.6986 -0.1803
 7388TIP3    H243656   5.942   2.891  13.728 -2.2260 -0.3032  1.7468
 7389TIP3   OH243657   4.177   5.185   1.568  0.2122  0.1021  0.5853
 7389TIP3    H143658   4.098   5.238   1.574 -0.3647 -0.2702 -2.2327
 7389TIP3    H243659   4.150   5.099   1.600 -0.2542  0.2558  0.6150
 7390TIP3   OH243660   3.104   6.468   4.765  0.3914 -0.6497 -0.2922
 7390TIP3    H143661   3.085   6.422   4.683  1.6081 -0.5152 -0.6771
 7390TIP3    H243662   3.136   6.400   4.824  2.1157 -0.3790 -0.8362
 7391TIP3   OH243663   2.555   3.557   1.417  0.7376  0.2414  0.1293
 7391TIP3    H143664   2.613   3.599   1.354  1.5556  1.3424  1.5492
 7391TIP3    H243665   2.598   3.571   1.502  0.7099 -2.8734  0.7948
 7392TIP3   OH243666   1.589   4.482  15.454  0.7219 -0.1892  0.4453
 7392TIP3    H143667   1.571   4.534  15.532  0.4228 -0.1687  0.3640
 7392TIP3    H243668   1.678   4.450  15.467  0.6783 -0.1769  0.7906
 7393TIP3   OH243669   3.359   6.710   1.756 -0.1194  0.0924  0.2942
 7393TIP3    H143670   3.338   6.654   1.681 -0.0340 -2.5073  2.0636
 7393TIP3    H243671   3.294   6.686   1.822  0.1505  1.8863  1.2770
 7394TIP3   OH243672   2.207   2.123   3.544 -0.1177  0.4474  0.3469
 7394TIP3    H143673   2.114   2.106   3.528 -0.1668 -0.6841  1.6904
 7394TIP3    H243674   2.208   2.210   3.583 -0.7381  0.0243  1.3419
 7395TIP3   OH243675   4.356   2.861   0.364 -0.2141 -0.1974 -0.2531
 7395TIP3    H143676   4.450   2.843   0.363 -0.0542  0.5983  0.2018
 7395TIP3    H243677   4.317   2.780   0.332  0.6764 -0.1917 -1.4193
 7396TIP3   OH243678   6.463   2.961  11.186  0.0314 -0.3974  0.1632
 7396TIP3    H143679   6.387   2.904  11.197 -0.1361 -0.3304 -0.5923
 7396TIP3    H243680   6.461   3.019  11.262 -0.9888 -0.0355 -0.1271
 7397TIP3   OH243681   1.189   0.590  14.435  0.0039 -0.0685 -0.2647
 7397TIP3    H143682   1.155   0.515  14.484 -1.1234  0.2158 -0.5721
 7397TIP3    H243683   1.134   0.663  14.463  1.8598  0.9202  0.9372
 7398TIP3   OH243684   4.184   2.810  11.617  0.2693 -0.0054  0.3571
 7398TIP3    H143685   4.107   2.855  11.582 -3.0646 -4.0863  1.7282
 7398TIP3    H243686   4.199   2.852  11.701 -0.1236  1.1479 -0.1206
 7399TIP3   OH243687   3.696   6.019  11.972  0.1643  0.0524  0.3403
 7399TIP3    H143688   3.706   6.007  11.877  0.4590 -0.4876  0.4297
 7399TIP3    H243689   3.701   5.930  12.007  1.1260  0.3294  0.9524
 7400TIP3   OH243690   5.590   4.604  14.006  0.0526  0.0783  0.3453
 7400TIP3    H143691   5.540   4.523  13.995  0.0203 -0.0405  1.2220
 7400TIP3    H243692   5.527   4.674  13.989 -0.2342 -0.0769  0.7368
 7401TIP3   OH243693   3.891   0.717   5.689 -0.9953  0.3723 -0.4671
 7401TIP3    H143694   3.892   0.802   5.645 -2.0905  1.4374  1.4234
 7401TIP3    H243695   3.898   0.739   5.782 -0.2214 -1.6941  0.0113
 7402TIP3   OH243696   4.573   1.227  15.039 -0.4830  0.1019  0.5360
 7402TIP3    H143697   4.552   1.254  15.128  1.7948 -2.3239  1.9550
 7402TIP3    H243698   4.531   1.141  15.029 -0.1172  0.0240 -0.4660
 7403TIP3   OH243699   4.785   6.618  12.678  0.4095 -0.0958  0.0385
 7403TIP3    H143700   4.771   6.531  12.642  0.9056 -0.0786 -0.2018
 7403TIP3    H243701   4.870   6.613  12.723  0.8831  0.5095 -0.7693
 7404TIP3   OH243702   3.191   1.433   1.494 -0.4244  0.0845  0.8971
 7404TIP3    H143703   3.213   1.352   1.539 -2.4898 -1.9949 -1.5650
 7404TIP3    H243704   3.275   1.468   1.465  0.4183 -2.6676 -0.3020
 7405TIP3   OH243705   4.202   6.252  15.211 -0.2367  0.0604  0.7695
 7405TIP3    H143706   4.201   6.217  15.122  0.4032  2.4376 -0.2568
 7405TIP3    H243707   4.294   6.247  15.237 -0.4265 -0.6598  1.3552
 7406TIP3   OH243708   1.231   1.392  13.596  0.0505  0.0490 -0.3481
 7406TIP3    H143709   1.250   1.365  13.686 -0.7789  0.4512 -0.0424
 7406TIP3    H243710   1.317   1.396  13.554  0.3337 -1.5331  0.0132
 7407TIP3   OH243711   6.414   1.109  14.625  0.5127 -0.1418  0.1021
 7407TIP3    H143712   6.475   1.175  14.658  0.1337  0.5523 -0.5719
 7407TIP3    H243713   6.450   1.083  14.540  0.2933 -0.3055  0.0589
 7408TIP3   OH243714   6.597   3.104   1.896 -1.0887 -0.5294  0.2376
 7408TIP3    H143715   6.605   3.114   1.991 -0.8154  0.1087  0.1497
 7408TIP3    H243716   6.687   3.090   1.866 -1.0340  0.4175 -0.0545
 7409TIP3   OH243717   0.994   5.082  14.628  0.3910  0.3561 -0.5908
 7409TIP3    H143718   0.932   5.149  14.656  0.9618  1.5325 -2.0465
 7409TIP3    H243719   1.038   5.056  14.709 -0.5975  0.9220  0.1612
 7410TIP3   OH243720   3.451   4.125  13.684 -0.2196  0.1028  0.8209
 7410TIP3    H143721   3.476   4.126  13.592 -0.3140  0.2496  0.7962
 7410TIP3    H243722   3.531   4.100  13.731 -0.6777 -2.1237  0.5472
 7411TIP3   OH243723   3.226   4.227  10.573  0.1364 -0.1202  0.0136
 7411TIP3    H143724   3.188   4.178  10.501  1.1710 -0.0964 -0.5689
 7411TIP3    H243725   3.243   4.161  10.641  3.4275 -1.0734 -1.5266
 7412TIP3   OH243726   0.575   2.838   0.178  0.4438  0.4250 -0.1525
 7412TIP3    H143727   0.605   2.772   0.116  0.4487 -0.4656  0.7595
 7412TIP3    H243728   0.572   2.919   0.128  1.6369 -0.0210 -0.9826
 7413TIP3   OH243729   6.783   6.027   0.698 -0.1242 -0.3935 -0.3090
 7413TIP3    H143730   6.711   6.080   0.664  0.7659  1.7209  0.8847
 7413TIP3    H243731   6.843   6.016   0.624  0.6997  2.2053 -0.1329
 7414TIP3   OH243732   1.195   4.374   2.135  0.0622  0.2481  0.0217
 7414TIP3    H143733   1.271   4.364   2.192  0.1565  0.3956 -0.0800
 7414TIP3    H243734   1.224   4.340   2.050 -0.7981 -2.3144  0.6318
 7415TIP3   OH243735   2.307   2.267   1.867 -0.2180 -0.2087  0.7065
 7415TIP3    H143736   2.348   2.342   1.909 -1.1431 -0.0598  1.3625
 7415TIP3    H243737   2.269   2.302   1.787  1.5413 -0.4919 -0.3156
 7416TIP3   OH243738   4.408   6.033   2.818 -0.4381 -0.2831  0.1026
 7416TIP3    H143739   4.494   6.012   2.781 -0.0277 -0.0618  0.8917
 7416TIP3    H243740   4.424   6.038   2.913 -0.9915  1.3193  0.1394
 7417TIP3   OH243741   0.603   1.200   1.180  0.0033 -0.2414  0.0888
 7417TIP3    H143742   0.563   1.179   1.096  2.1689 -0.3554 -0.9764
 7417TIP3    H243743   0.579   1.291   1.197  1.0124  0.3867 -1.6039
 7418TIP3   OH243744   5.018   1.435   1.498 -0.1010 -0.2523  0.3561
 7418TIP3    H143745   5.100   1.389   1.514  0.4168 -0.4959 -2.3671
 7418TIP3    H243746   5.040   1.528   1.506  0.6782 -0.2853 -0.9821
 7419TIP3   OH243747   3.241   1.290  13.973 -0.8127  0.0414 -0.1471
 7419TIP3    H143748   3.276   1.273  14.061 -2.2153  0.2333  0.4752
 7419TIP3    H243749   3.175   1.358  13.986 -1.2524 -0.1390 -1.3104
 7420TIP3   OH243750   3.806   2.750   3.003  0.3788  0.5778 -0.0105
 7420TIP3    H143751   3.815   2.747   2.908  0.5641  2.3688 -0.0693
 7420TIP3    H243752   3.773   2.662   3.026 -1.0234  0.5485 -1.8683
 7421TIP3   OH243753   5.628   0.303  16.113  0.5041 -0.1495  0.1838
 7421TIP3    H143754   5.550   0.359  16.120  1.4424  1.3127 -0.5374
 7421TIP3    H243755   5.611   0.231  16.174 -0.5522  1.1946  1.5846
 7422TIP3   OH243756   2.215   2.842  14.071 -0.1858 -0.2909 -0.0115
 7422TIP3    H143757   2.185   2.808  14.155 -0.1505 -2.2955 -0.7570
 7422TIP3    H243758   2.137   2.838  14.015  0.2978 -0.9433 -0.6400
 7423TIP3   OH243759   2.125   1.655  11.485  0.8143  0.2723  0.1979
 7423TIP3    H143760   2.074   1.633  11.407 -0.7714  0.8640  1.0308
 7423TIP3    H243761   2.111   1.748  11.498  0.7281  0.1118  1.4039
 7424TIP3   OH243762   0.455   3.402   4.474 -0.0516 -0.0594  0.4227
 7424TIP3    H143763   0.478   3.375   4.386  0.8190 -0.0542  0.6382
 7424TIP3    H243764   0.462   3.322   4.527  0.2538  0.1035  0.6345
 7425TIP3   OH243765   3.996   1.855   0.771  0.1921  0.7886 -0.2004
 7425TIP3    H143766   4.041   1.832   0.690  0.4120 -1.0145  0.3964
 7425TIP3    H243767   4.033   1.797   0.837 -0.1751  2.0307  1.1645
 7426TIP3   OH243768   0.793   5.061  16.267  0.6604 -0.4344 -0.2395
 7426TIP3    H143769   0.772   4.987  16.211  1.7224 -0.5071 -0.5805
 7426TIP3    H243770   0.756   5.137  16.222  1.2433 -0.5330 -0.9113
 7427TIP3   OH243771   2.058   4.269  16.079  0.2457 -0.0849 -0.5930
 7427TIP3    H143772   2.050   4.254  15.985 -1.8197  0.1728 -0.4924
 7427TIP3    H243773   1.969   4.258  16.113  0.6006  1.6764  1.0539
 7428TIP3   OH243774   2.425   1.456   3.031 -0.3017  0.0252 -0.1404
 7428TIP3    H143775   2.349   1.422   2.984 -1.6325  0.2696  1.7431
 7428TIP3    H243776   2.499   1.404   2.997 -1.2604 -0.2067 -2.0124
 7429TIP3   OH243777   6.165   4.984   0.390 -0.4816 -0.7443  0.0727
 7429TIP3    H143778   6.182   4.895   0.360 -2.6330 -1.4479  0.7457
 7429TIP3    H243779   6.194   5.040   0.318  1.1313 -1.9464 -0.2649
 7430TIP3   OH243780   2.585   0.203  10.603  0.5386 -0.0953 -0.6001
 7430TIP3    H143781   2.546   0.235  10.684 -0.0443 -1.1814 -0.4333
 7430TIP3    H243782   2.557   0.266  10.536 -0.2502 -0.0378 -0.2246
 7431TIP3   OH243783   5.585   5.294  14.102 -0.4935  0.2107  0.0893
 7431TIP3    H143784   5.576   5.207  14.140 -0.2815  0.3459  0.4554
 7431TIP3    H243785   5.576   5.354  14.177  1.5318  0.4278  0.2121
 7432TIP3   OH243786   6.572   4.149   1.998 -0.3156  0.2653  0.2739
 7432TIP3    H143787   6.557   4.241   2.020 -0.1878 -0.0675  1.9165
 7432TIP3    H243788   6.484   4.111   1.994 -0.4036  0.5710 -1.0400
 7433TIP3   OH243789   4.935   2.974  12.589 -0.2264  0.3698 -0.1198
 7433TIP3    H143790   4.915   3.023  12.509  0.6512  0.1133 -0.4966
 7433TIP3    H243791   4.926   2.882  12.564 -0.7635  0.3057  0.2957
 7434TIP3   OH243792   5.263   3.380   0.032 -0.1035  0.0087  0.1119
 7434TIP3    H143793   5.197   3.358  -0.035 -0.5513  1.8897 -0.1033
 7434TIP3    H243794   5.239   3.326   0.107 -1.6132  0.3010 -0.1325
 7435TIP3   OH243795   4.289   1.610  11.462 -0.2019  0.1787 -0.2306
 7435TIP3    H143796   4.302   1.595  11.556 -1.1121  0.4201 -0.0547
 7435TIP3    H243797   4.361   1.668  11.437 -0.5321  0.9672  0.5618
 7436TIP3   OH243798   1.477   2.601   3.032  0.1288 -0.6646  0.0757
 7436TIP3    H143799   1.446   2.612   3.122  0.7495 -1.3092  0.3790
 7436TIP3    H243800   1.513   2.687   3.009  2.0741 -1.0938  1.2932
 7437TIP3   OH243801   1.933   2.150   5.357  0.1404  0.4854  0.4745
 7437TIP3    H143802   1.900   2.060   5.353 -2.2277  1.3143 -0.4777
 7437TIP3    H243803   1.937   2.178   5.266  3.0867  0.6770  0.5710
 7438TIP3   OH243804   5.463   0.868   5.312 -0.0493  0.3707  0.8026
 7438TIP3    H143805   5.525   0.941   5.308  1.2611 -0.7586 -1.3437
 7438TIP3    H243806   5.517   0.793   5.337 -0.5302 -0.6067 -0.9560
 7439TIP3   OH243807   0.311   3.653   6.122 -0.1284  0.4589 -0.4001
 7439TIP3    H143808   0.333   3.604   6.202 -1.9534 -0.1921 -0.2401
 7439TIP3    H243809   0.395   3.686   6.090  0.8405 -0.6132  0.9104
 7440TIP3   OH243810   6.534   1.251  13.958  0.0043  0.3840 -0.2396
 7440TIP3    H143811   6.463   1.294  13.910 -0.7484 -0.6648 -0.1031
 7440TIP3    H243812   6.612   1.299  13.934 -0.4342  0.2327 -2.0902
 7441TIP3   OH243813   3.209   3.424  10.882 -0.0782  0.3066  0.5990
 7441TIP3    H143814   3.194   3.336  10.847 -1.6707  0.1343  1.5825
 7441TIP3    H243815   3.296   3.448  10.851 -0.2872 -0.9302 -1.1042
 7442TIP3   OH243816   2.392   3.294  13.586  0.4561 -0.1526 -0.5581
 7442TIP3    H143817   2.353   3.268  13.670  0.4880 -0.7602 -0.7261
 7442TIP3    H243818   2.343   3.372  13.560 -0.2507 -0.5618 -0.4742
 7443TIP3   OH243819   3.813   3.035   2.112 -0.3501  0.0742 -0.4306
 7443TIP3    H143820   3.890   3.090   2.127  0.5961 -1.0368 -1.0170
 7443TIP3    H243821   3.759   3.047   2.190  1.2440 -0.4303  0.8067
 7444TIP3   OH243822   4.731   3.225  14.709  0.0631  0.5175 -0.4034
 7444TIP3    H143823   4.801   3.282  14.679 -0.8751  1.9091 -0.0159
 7444TIP3    H243824   4.729   3.236  14.804  0.2076 -0.5883 -0.2483
 7445TIP3   OH243825   0.474   3.754  14.547 -0.2432  0.2867 -0.4085
 7445TIP3    H143826   0.413   3.691  14.585 -2.7468  1.2058 -2.6271
 7445TIP3    H243827   0.444   3.766  14.457  2.7601  1.4457 -1.3744
 7446TIP3   OH243828   5.163   4.306  13.126 -0.1782 -0.5505 -0.2303
 7446TIP3    H143829   5.230   4.373  13.111 -0.0562 -0.5522  0.2942
 7446TIP3    H243830   5.085   4.356  13.152 -0.6424 -0.4817 -1.6242
 7447TIP3   OH243831   6.112   1.183   3.850  0.4381 -0.4955  0.1529
 7447TIP3    H143832   6.085   1.274   3.859  0.2283 -0.6457  1.1172
 7447TIP3    H243833   6.035   1.139   3.813  0.0062 -0.5564  1.0988
 7448TIP3   OH243834   2.435   5.358  13.033  0.0322 -0.1417 -0.0432
 7448TIP3    H143835   2.358   5.314  12.998 -0.4330 -0.1422  0.9357
 7448TIP3    H243836   2.508   5.299  13.012 -0.5182 -1.1898  0.8452
 7449TIP3   OH243837   3.934   2.664  11.607 -0.4311 -0.1272 -0.7379
 7449TIP3    H143838   3.902   2.574  11.603  0.0317 -0.4302  1.1575
 7449TIP3    H243839   3.917   2.700  11.521 -0.2888 -2.1483 -1.6662
 7450TIP3   OH243840   0.174   2.199  10.402 -0.0598  0.2424  0.1417
 7450TIP3    H143841   0.251   2.147  10.427  0.2771  1.7323  2.4360
 7450TIP3    H243842   0.207   2.261  10.337  0.3409 -0.0587  0.0534
 7451TIP3   OH243843   0.982   0.414   0.302 -0.2869 -0.2720 -0.2490
 7451TIP3    H143844   0.927   0.488   0.328  0.0892 -0.6437  1.8103
 7451TIP3    H243845   1.048   0.408   0.371 -0.9273 -3.1450  0.2491
 7452TIP3   OH243846   5.340   1.700  15.375  0.3198 -0.0892 -0.5539
 7452TIP3    H143847   5.341   1.774  15.314 -0.8160 -0.0041 -0.4856
 7452TIP3    H243848   5.398   1.636  15.335  0.0075  0.1767 -1.4641
 7453TIP3   OH243849   5.079   4.700  15.152 -0.5928  0.3716 -0.0882
 7453TIP3    H143850   5.153   4.755  15.177 -0.3307  0.5031 -1.1251
 7453TIP3    H243851   5.005   4.736  15.201 -0.0244  0.3816  0.7801
 7454TIP3   OH243852   2.783   4.501  11.086  0.0794  0.0678  0.1014
 7454TIP3    H143853   2.801   4.577  11.141  0.0499 -0.4858  0.8924
 7454TIP3    H243854   2.868   4.458  11.076 -0.2398 -0.9334  1.4028
 7455TIP3   OH243855   1.990   6.096  10.448 -0.0031 -0.3195  0.0288
 7455TIP3    H143856   2.012   6.126  10.537 -1.2020 -0.6184  0.4418
 7455TIP3    H243857   2.065   6.042  10.422 -0.4327 -1.7702  1.6082
 7456TIP3   OH243858   4.860   3.269   3.995  0.3751 -0.7263 -0.0172
 7456TIP3    H143859   4.797   3.286   4.064  1.5120 -0.6897  1.0372
 7456TIP3    H243860   4.833   3.185   3.958 -0.0778 -0.8874  0.6617
 7457TIP3   OH243861   5.047   0.347  11.694  0.1943  0.4159 -0.2743
 7457TIP3    H143862   5.005   0.323  11.612  1.2956  1.2352 -1.1028
 7457TIP3    H243863   5.066   0.264  11.737  4.2919 -0.4833 -3.2419
 7458TIP3   OH243864   3.815   1.361  16.423 -0.1612  0.0461  0.0339
 7458TIP3    H143865   3.897   1.313  16.436  0.1770  0.1690 -1.4805
 7458TIP3    H243866   3.747   1.300  16.451  0.4301 -0.0826  1.2478
 7459TIP3   OH243867   2.662   4.175   2.005  0.3079  0.2132  0.7745
 7459TIP3    H143868   2.716   4.171   2.083  1.2658  1.4073  0.2098
 7459TIP3    H243869   2.572   4.177   2.037  0.5346 -1.9998  1.7254
 7460TIP3   OH243870   4.240   4.634   0.314  0.4489 -0.4263  0.6741
 7460TIP3    H143871   4.330   4.669   0.315  0.6476 -0.9382  1.1941
 7460TIP3    H243872   4.238   4.577   0.237 -0.8006  2.9980 -2.1357
 7461TIP3   OH243873   6.280   0.614   6.532  0.9708 -0.2663  1.1765
 7461TIP3    H143874   6.206   0.636   6.476  1.5000  0.8752  0.9013
 7461TIP3    H243875   6.287   0.687   6.592  1.3252 -0.7967  1.7888
 7462TIP3   OH243876   4.279   1.901   1.430 -0.4700 -0.6085  0.0082
 7462TIP3    H143877   4.277   1.814   1.390  2.0869 -1.2758  1.0890
 7462TIP3    H243878   4.342   1.892   1.503 -0.4274  2.0390  0.3869
 7463TIP3   OH243879   6.276   3.373  16.582  0.2837 -0.4213 -0.4240
 7463TIP3    H143880   6.235   3.409  16.503  0.9821 -0.5609 -0.8571
 7463TIP3    H243881   6.211   3.313  16.618 -0.2164 -0.0180 -0.6390
 7464TIP3   OH243882   6.430   3.889   4.689 -0.2251 -0.1766 -0.1243
 7464TIP3    H143883   6.349   3.873   4.640 -0.3138 -0.1452  0.0120
 7464TIP3    H243884   6.450   3.981   4.672 -0.0583 -0.2595 -0.3942
 7465TIP3   OH243885   5.063   0.953   1.335 -0.5743 -0.1734  0.0317
 7465TIP3    H143886   5.148   0.958   1.379 -0.8149  1.8258  0.3969
 7465TIP3    H243887   5.083   0.924   1.247  0.6578  1.2303 -0.1986
 7466TIP3   OH243888   5.594   6.212   4.694  0.0217  0.0446 -0.0530
 7466TIP3    H143889   5.672   6.232   4.745 -0.2768 -2.1781  1.3955
 7466TIP3    H243890   5.626   6.159   4.621 -0.0769 -0.7370  0.4568
 7467TIP3   OH243891   1.825   3.619  13.025 -0.2276  0.0594 -0.3234
 7467TIP3    H143892   1.876   3.538  13.020  0.7998  0.5661  1.1157
 7467TIP3    H243893   1.870   3.680  12.966 -0.2865 -0.0638 -0.4949
 7468TIP3   OH243894   6.124   1.094  12.206 -0.2821 -0.1342 -0.0251
 7468TIP3    H143895   6.038   1.059  12.227  0.0161 -0.1014  1.3162
 7468TIP3    H243896   6.155   1.134  12.287  1.2788 -0.7358 -0.2864
 7469TIP3   OH243897   0.010   1.315   0.751 -0.1285 -0.1419 -0.2500
 7469TIP3    H143898   0.017   1.402   0.712  2.8959  0.1287  0.6389
 7469TIP3    H243899   0.016   1.255   0.676 -1.7837  0.3423 -0.8197
 7470TIP3   OH243900   6.012   0.635   1.063 -0.1604 -0.0850  0.2520
 7470TIP3    H143901   6.034   0.554   1.110 -0.4211 -0.1528  0.2596
 7470TIP3    H243902   6.033   0.705   1.125 -2.5090 -0.2386  1.3303
 7471TIP3   OH243903   6.752   2.976   1.567  0.2125  0.0599  0.4869
 7471TIP3    H143904   6.794   2.981   1.653  0.0250  1.9275  0.5166
 7471TIP3    H243905   6.752   3.066   1.535  0.7889 -0.6658 -1.7495
 7472TIP3   OH243906   2.496   5.335  16.656 -0.1351  0.0035 -0.3042
 7472TIP3    H143907   2.541   5.416  16.681 -2.5755  0.8901  1.6219
 7472TIP3    H243908   2.522   5.272  16.722  1.7052 -0.8646 -1.7641
 7473TIP3   OH243909   4.300   3.409   5.699 -0.2752  0.1532  0.1473
 7473TIP3    H143910   4.300   3.468   5.623  0.0884  0.9616  0.7635
 7473TIP3    H243911   4.210   3.412   5.732  0.0125  1.2794  0.8649
 7474TIP3   OH243912   5.409   2.130   4.591 -0.0569 -0.3288  0.4034
 7474TIP3    H143913   5.473   2.101   4.526 -0.6950 -0.1789 -0.2925
 7474TIP3    H243914   5.331   2.079   4.574 -0.0976 -0.6052  1.3422
 7475TIP3   OH243915   5.448   3.150  15.678 -0.1075 -0.3669  0.3833
 7475TIP3    H143916   5.375   3.130  15.618 -0.6831  0.0814  0.9166
 7475TIP3    H243917   5.526   3.118  15.633 -0.2988  1.4859 -1.3927
 7476TIP3   OH243918   4.846   0.716   3.298 -0.0158  0.1653 -0.3019
 7476TIP3    H143919   4.755   0.735   3.321  0.3587  0.8332  0.7347
 7476TIP3    H243920   4.892   0.718   3.382  1.2465  1.5783 -0.9863
 7477TIP3   OH243921   6.684   0.021   0.170  0.2092 -0.0874 -0.3154
 7477TIP3    H143922   6.730  -0.035   0.107 -0.9904 -1.3814 -0.1068
 7477TIP3    H243923   6.700  -0.021   0.255  0.7949  0.9360  0.0875
 7478TIP3   OH243924   5.788   5.309   4.037  0.5064 -0.3170  0.1373
 7478TIP3    H143925   5.869   5.350   4.008  0.2089  0.1923 -0.0034
 7478TIP3    H243926   5.721   5.376   4.022  0.4732  0.4229  3.0074
 7479TIP3   OH243927   4.677   3.804   6.153 -0.0756 -0.5142 -0.0036
 7479TIP3    H143928   4.748   3.859   6.183 -0.5794 -0.2577  0.7599
 7479TIP3    H243929   4.615   3.803   6.226 -1.2143 -0.0982 -0.9374
 7480TIP3   OH243930   3.924   6.548  12.669  0.0701 -0.2556 -0.7863
 7480TIP3    H143931   3.913   6.530  12.575  2.1684  0.7041 -1.2651
 7480TIP3    H243932   3.978   6.476  12.700  2.3543  1.2312 -1.1320
 7481TIP3   OH243933   4.839   1.856  14.894 -0.4196 -0.9690  0.4480
 7481TIP3    H143934   4.878   1.930  14.848  0.2419 -1.5881 -0.0182
 7481TIP3    H243935   4.790   1.895  14.966  1.4782 -0.1528  1.3831
 7482TIP3   OH243936   2.241   6.160  15.636  0.3295 -0.1249 -0.2700
 7482TIP3    H143937   2.147   6.141  15.628  0.4334 -1.3478  1.0606
 7482TIP3    H243938   2.264   6.130  15.724  1.8712  0.6266 -0.3896
 7483TIP3   OH243939   6.655   6.609   6.358  0.0269 -0.0067  0.3076
 7483TIP3    H143940   6.613   6.554   6.424 -2.8670  0.1820 -1.2114
 7483TIP3    H243941   6.627   6.698   6.379  1.8130  0.4927  0.7137
 7484TIP3   OH243942   5.076   4.725   0.758 -0.0471 -0.4944  0.1605
 7484TIP3    H143943   5.095   4.818   0.745  0.1025 -0.4408  0.7487
 7484TIP3    H243944   5.020   4.701   0.684 -3.1038  0.9490  1.8433
 7485TIP3   OH243945   1.665   0.890  11.787  0.1881 -0.2992  0.4565
 7485TIP3    H143946   1.591   0.949  11.780 -0.9574 -1.1853  3.6470
 7485TIP3    H243947   1.636   0.810  11.744  0.4107  0.2288 -0.7313
 7486TIP3   OH243948   6.633   5.510  12.872 -0.3440 -0.3222 -0.0245
 7486TIP3    H143949   6.601   5.576  12.932  0.3884 -0.6126  0.7152
 7486TIP3    H243950   6.729   5.516  12.879 -0.1651  0.8683 -2.5344
 7487TIP3   OH243951   3.522   2.535   4.133 -0.5875 -0.2663  0.2552
 7487TIP3    H143952   3.505   2.575   4.047 -1.1984 -0.4387  0.2946
 7487TIP3    H243953   3.592   2.589   4.170 -0.3283 -0.1783 -0.3436
 7488TIP3   OH243954   6.551   5.745  13.989  0.4079 -0.5782 -0.0646
 7488TIP3    H143955   6.619   5.736  14.056  0.1348 -1.0132  0.1585
 7488TIP3    H243956   6.599   5.773  13.910  1.2653 -3.3494 -0.6248
 7489TIP3   OH243957   2.534   0.426   2.583  0.2407  0.1917 -0.6499
 7489TIP3    H143958   2.547   0.403   2.675 -0.2213  1.1520 -0.3216
 7489TIP3    H243959   2.462   0.490   2.585 -0.1133 -0.1514 -1.7295
 7490TIP3   OH243960   2.822   1.839   2.881  0.1368  0.6486  0.2685
 7490TIP3    H143961   2.875   1.892   2.941 -1.2175  2.6061 -0.1632
 7490TIP3    H243962   2.839   1.876   2.795 -0.2779 -0.1051 -0.1467
 7491TIP3   OH243963   6.707   5.225   0.046  0.4061  1.0078  0.0475
 7491TIP3    H143964   6.778   5.265  -0.005  1.8953 -0.0324  1.2065
 7491TIP3    H243965   6.752   5.168   0.109 -1.4926  0.0318  0.5966
 7492TIP3   OH243966   3.238   2.045   0.041 -0.0537 -0.6785 -0.3097
 7492TIP3    H143967   3.291   2.107  -0.010  0.6063 -1.0569 -0.0925
 7492TIP3    H243968   3.262   1.959   0.006  0.4676 -0.9530  0.6801
 7493TIP3   OH243969   2.852   5.327  16.987 -0.0992 -1.1795 -0.0093
 7493TIP3    H143970   2.912   5.253  16.990  0.8832 -0.3787  1.0480
 7493TIP3    H243971   2.833   5.347  17.078 -0.4323 -0.2154 -0.2732
 7494TIP3   OH243972   0.649   2.274  15.887  0.2420  0.1074 -0.2262
 7494TIP3    H143973   0.657   2.186  15.850  0.3881  0.9436 -2.3194
 7494TIP3    H243974   0.560   2.301  15.864  0.7460  1.1014 -1.0650
 7495TIP3   OH243975   1.060   1.709  12.778  0.2257 -0.4044 -0.2111
 7495TIP3    H143976   1.024   1.624  12.754 -0.3646 -0.7859  1.8656
 7495TIP3    H243977   1.153   1.703  12.755  0.8666 -2.7197  2.4550
 7496TIP3   OH243978   1.865   5.351  15.714  0.2052 -0.1069 -0.0452
 7496TIP3    H143979   1.824   5.424  15.669  1.2088 -0.0795 -0.9748
 7496TIP3    H243980   1.824   5.349  15.800 -0.4193  1.0286 -0.3001
 7497TIP3   OH243981   4.047   5.329  16.075  0.0689 -0.4762 -0.5536
 7497TIP3    H143982   4.110   5.283  16.020  1.4389 -0.6944  1.0830
 7497TIP3    H243983   3.978   5.265  16.093 -0.4465 -0.3636 -2.0512
 7498TIP3   OH243984   3.253   6.731  12.695 -0.1810  0.5160 -0.0761
 7498TIP3    H143985   3.185   6.711  12.631 -1.2403  2.9347  0.2067
 7498TIP3    H243986   3.317   6.660  12.685 -1.7503 -0.7553 -1.7208
 7499TIP3   OH243987   0.839   6.689  13.746  0.5034  0.1760  0.2694
 7499TIP3    H143988   0.760   6.636  13.737  0.3689  0.7113 -2.7836
 7499TIP3    H243989   0.823   6.743  13.823 -2.6010  0.9794 -0.7907
 7500TIP3   OH243990   0.586   3.334   0.803 -0.0361  0.5973 -0.4025
 7500TIP3    H143991   0.671   3.367   0.772 -0.2498  2.9308  1.2519
 7500TIP3    H243992   0.522   3.398   0.770 -0.6947  0.9173  1.3818
 7501TIP3   OH243993   1.426   0.887  16.446  0.0111 -0.3539 -0.3043
 7501TIP3    H143994   1.444   0.916  16.535 -2.4623 -0.1663  0.1931
 7501TIP3    H243995   1.373   0.808  16.456 -1.8167  0.6377 -1.5565
 7502TIP3   OH243996   1.921   1.877   6.120 -0.2038 -0.2080  0.2691
 7502TIP3    H143997   1.829   1.887   6.144 -0.0607 -0.3091  0.8918
 7502TIP3    H243998   1.932   1.783   6.105  0.4273 -0.6727  3.0365
 7503TIP3   OH243999   0.176   1.557  14.936  0.4683  0.5572 -0.3529
 7503TIP3    H144000   0.190   1.541  15.029  0.3628  0.5094 -0.3453
 7503TIP3    H244001   0.116   1.487  14.908  1.8415 -0.4869 -0.8440
 7504TIP3   OH244002   4.506   4.743   0.550  0.0899  0.1703  0.2794
 7504TIP3    H144003   4.485   4.736   0.457  0.8121  0.9749  0.0437
 7504TIP3    H244004   4.423   4.765   0.592  0.3191  3.3041 -0.6309
 7505TIP3   OH244005   6.546   5.389   0.229 -0.8075  0.1127 -0.3000
 7505TIP3    H144006   6.560   5.348   0.315 -0.1364 -1.4182 -1.0976
 7505TIP3    H244007   6.616   5.354   0.175 -0.8554  1.5397 -1.3340
 7506TIP3   OH244008   5.736   3.760  16.031 -0.1927  0.1680  0.3708
 7506TIP3    H144009   5.823   3.795  16.012 -0.0181  0.4844  1.6893
 7506TIP3    H244010   5.749   3.666  16.043 -0.0601  0.1901  0.3993
 7507TIP3   OH244011   3.497   0.534  16.578  0.7229  0.0668  0.0963
 7507TIP3    H144012   3.477   0.448  16.541 -0.6064  1.3969 -2.6197
 7507TIP3    H244013   3.461   0.532  16.666 -0.3441 -1.7781 -0.3358
 7508TIP3   OH244014   6.197   5.932  15.763  0.0543  0.1060 -0.1051
 7508TIP3    H144015   6.209   5.923  15.857  1.0727  0.4163 -0.1929
 7508TIP3    H244016   6.139   5.859  15.739 -1.1628  0.6991  0.9186
 7509TIP3   OH244017   0.035   0.215  15.639 -0.3094 -0.2467 -0.0058
 7509TIP3    H144018  -0.025   0.270  15.690  0.4011 -0.4286  1.0603
 7509TIP3    H244019  -0.007   0.205  15.554 -2.3042 -1.2418  1.0408
 7510TIP3   OH244020   4.273   6.542   0.234 -0.3500  0.0496 -0.2390
 7510TIP3    H144021   4.183   6.570   0.251 -0.5905 -0.0642 -1.2450
 7510TIP3    H244022   4.307   6.607   0.173 -0.2138 -0.6652 -0.9401
 7511TIP3   OH244023   0.839   2.567   3.770  0.1615 -0.0157  0.1225
 7511TIP3    H144024   0.930   2.581   3.743  0.1666  1.2506  0.7029
 7511TIP3    H244025   0.843   2.563   3.866 -0.3920  0.1130  0.1546
 7512TIP3   OH244026   2.516   4.432   0.706  0.1181  0.1410  0.0766
 7512TIP3    H144027   2.521   4.436   0.611  0.5518 -0.0030  0.0910
 7512TIP3    H244028   2.422   4.437   0.725  0.0563  0.6025 -0.3324
 7513TIP3   OH244029   5.484   0.702   3.975 -0.4158 -0.4897 -0.0557
 7513TIP3    H144030   5.478   0.703   4.071  3.0741 -0.5468  0.2990
 7513TIP3    H244031   5.515   0.789   3.952  1.0618 -1.1923 -0.8454
 7514TIP3   OH244032   4.775   3.139  10.640 -0.5953 -0.3099 -0.8375
 7514TIP3    H144033   4.868   3.119  10.633 -1.0896 -2.9222 -1.0219
 7514TIP3    H244034   4.743   3.083  10.711 -2.0360  0.5477 -0.7566
 7515TIP3   OH244035   1.420   3.674  15.094 -0.0451  0.1316  0.0318
 7515TIP3    H144036   1.345   3.672  15.154 -1.0339 -1.4993 -1.1707
 7515TIP3    H244037   1.406   3.753  15.042 -1.2216 -0.3862 -0.4803
 7516TIP3   OH244038   6.468   2.662   5.860 -0.9695 -0.6679 -0.0321
 7516TIP3    H144039   6.381   2.622   5.869 -0.6729 -1.2265  0.4423
 7516TIP3    H244040   6.527   2.587   5.851 -0.4885 -0.3055  0.0897
 7517TIP3   OH244041   4.253   6.207  13.563 -0.9661 -0.5773 -0.7240
 7517TIP3    H144042   4.201   6.263  13.505  1.7172  0.1093 -2.6705
 7517TIP3    H244043   4.258   6.123  13.517  1.8593  0.2095 -2.1248
 7518TIP3   OH244044   0.027   1.009   4.641  0.3806  0.1215 -0.1810
 7518TIP3    H144045   0.101   1.061   4.673 -0.7289  0.4565  2.0314
 7518TIP3    H244046  -0.016   1.066   4.577  0.8648  0.7364  0.0274
 7519TIP3   OH244047   0.617   3.436   5.776 -0.8224  0.2704  0.5525
 7519TIP3    H144048   0.545   3.418   5.716  0.0023  1.9845 -1.0346
 7519TIP3    H244049   0.665   3.353   5.782 -0.3258  0.2974 -2.0316
 7520TIP3   OH244050   6.544   2.367   0.495 -0.4502 -0.1082  0.5417
 7520TIP3    H144051   6.601   2.431   0.539 -0.9595 -1.2467  3.0039
 7520TIP3    H244052   6.573   2.369   0.404  1.0449  2.0021  0.9722
 7521TIP3   OH244053   5.941   5.560   2.656 -0.2681  0.2686 -0.2128
 7521TIP3    H144054   5.860   5.533   2.700 -0.7037  0.7503 -0.6997
 7521TIP3    H244055   5.950   5.498   2.584  0.9570 -1.1160  1.0749
 7522TIP3   OH244056   6.480   6.486   3.915  0.0735  0.4787  0.0741
 7522TIP3    H144057   6.421   6.556   3.888  0.1541  0.4286 -0.2314
 7522TIP3    H244058   6.482   6.426   3.840 -0.9945 -0.5180  0.7920
 7523TIP3   OH244059   1.120   0.202   1.542  0.2700 -0.0478 -0.1825
 7523TIP3    H144060   1.173   0.248   1.476 -0.2094  0.0311 -0.5179
 7523TIP3    H244061   1.038   0.251   1.546  0.0889 -0.3688  0.0828
 7524TIP3   OH244062   1.966   2.598   5.371 -0.1660 -0.0958 -0.1432
 7524TIP3    H144063   1.920   2.681   5.364 -1.2239 -0.5594  0.8074
 7524TIP3    H244064   1.962   2.560   5.283  0.3432  0.8451 -0.5832
 7525TIP3   OH244065   4.280   1.633  13.609  0.4808 -0.4450  0.2894
 7525TIP3    H144066   4.306   1.637  13.517 -0.7979 -2.3355 -0.2186
 7525TIP3    H244067   4.327   1.557  13.644  1.3069  0.5213  1.3420
 7526TIP3   OH244068   0.155   6.032   2.646 -0.1302 -0.6950 -0.3818
 7526TIP3    H144069   0.094   6.046   2.718 -1.4525 -0.4600 -1.5090
 7526TIP3    H244070   0.237   6.006   2.688 -0.4084  0.9781  1.2724
 7527TIP3   OH244071   5.554   3.237   3.815 -0.4995 -0.0427 -0.4649
 7527TIP3    H144072   5.626   3.178   3.836  0.0224  0.0450 -1.9283
 7527TIP3    H244073   5.513   3.255   3.900  0.6008 -0.8449  0.2684
 7528TIP3   OH244074   6.162   4.337   1.499 -0.1094 -0.3240 -0.2113
 7528TIP3    H144075   6.103   4.412   1.508  0.6687  0.4635 -1.3610
 7528TIP3    H244076   6.172   4.326   1.405  0.8417 -1.0491 -0.0403
 7529TIP3   OH244077   0.732   3.470  11.578  0.2830 -0.1377  0.4229
 7529TIP3    H144078   0.770   3.473  11.490  0.6653  1.0916  0.6083
 7529TIP3    H244079   0.751   3.382  11.610 -0.8728 -1.0019 -1.1489
 7530TIP3   OH244080   2.376   5.631  15.258 -0.2518  0.3662 -0.1511
 7530TIP3    H144081   2.366   5.577  15.337 -0.1782  0.1850 -0.2651
 7530TIP3    H244082   2.465   5.666  15.265  0.0049 -0.2044 -0.4973
 7531TIP3   OH244083   6.269   3.368   3.078 -0.3228 -0.6884  0.1034
 7531TIP3    H144084   6.234   3.457   3.070  0.2775 -0.5293 -1.0016
 7531TIP3    H244085   6.202   3.320   3.126 -1.8377 -0.2710 -1.4622
 7532TIP3   OH244086   2.572   4.860   1.102  0.2806 -0.0996  0.2892
 7532TIP3    H144087   2.480   4.883   1.115  0.3311  0.2296  0.0866
 7532TIP3    H244088   2.587   4.787   1.162 -0.4806 -1.1113 -0.7208
 7533TIP3   OH244089   2.417   1.354  13.548  0.0059 -0.1165  0.2825
 7533TIP3    H144090   2.337   1.389  13.509  0.3612  0.6343  0.2061
 7533TIP3    H244091   2.436   1.275  13.497 -0.2334  0.1511 -0.2325
 7534TIP3   OH244092   6.328   3.170  11.656  0.0786  0.1421 -0.3162
 7534TIP3    H144093   6.318   3.102  11.722  2.3199  0.3357  0.3073
 7534TIP3    H244094   6.408   3.217  11.682 -0.1789  1.5969 -1.9634
 7535TIP3   OH244095   1.416   4.975  11.932 -0.7294 -0.1195  0.6560
 7535TIP3    H144096   1.396   5.023  11.852 -3.4656 -1.9446  0.0784
 7535TIP3    H244097   1.341   4.993  11.989 -0.5399 -1.5827  1.4074
 7536TIP3   OH244098   6.443   6.463  15.228  0.2001 -0.1340  0.5168
 7536TIP3    H144099   6.444   6.437  15.136 -1.8551 -0.7611  0.6179
 7536TIP3    H244100   6.464   6.382  15.276 -3.3132 -1.0836  0.7110
 7537TIP3   OH244101   1.543   1.094  15.998 -0.2458  0.1972  1.0365
 7537TIP3    H144102   1.574   1.004  16.007 -0.7310  0.0190  0.9493
 7537TIP3    H244103   1.447   1.086  15.997 -0.3031  0.7553  1.5067
 7538TIP3   OH244104   1.663   2.464  13.071  0.1019  0.2399  0.1277
 7538TIP3    H144105   1.718   2.445  12.995 -0.8427 -1.5318 -0.1512
 7538TIP3    H244106   1.675   2.389  13.129  1.2100  1.7889  2.0239
 7539TIP3   OH244107   4.609   2.188  16.467 -0.0770  0.8754 -0.0659
 7539TIP3    H144108   4.608   2.255  16.399 -0.4918  0.7824 -0.1501
 7539TIP3    H244109   4.588   2.107  16.421  4.4377 -0.1653 -0.8442
 7540TIP3   OH244110   3.949   4.562   0.158  0.3340  0.5946 -0.4138
 7540TIP3    H144111   3.918   4.615   0.231  0.1219 -0.7294  0.4940
 7540TIP3    H244112   3.902   4.595   0.082 -1.3246  0.3785  0.4830
 7541TIP3   OH244113   1.209   6.509  13.798 -0.2288 -0.3117 -0.6015
 7541TIP3    H144114   1.263   6.551  13.864  1.1329 -1.2707 -1.0650
 7541TIP3    H244115   1.160   6.580  13.758 -0.8341  0.3392  1.1707
 7542TIP3   OH244116   0.076   4.346  16.891 -0.2142 -0.1654  0.3131
 7542TIP3    H144117   0.043   4.377  16.976 -1.1954 -0.5381  0.0838
 7542TIP3    H244118   0.035   4.405  16.827 -1.6816 -1.5508 -0.0862
 7543TIP3   OH244119   1.449   2.468  11.844  0.5085  0.2479 -0.1440
 7543TIP3    H144120   1.448   2.505  11.756  0.3646 -1.3619 -0.8494
 7543TIP3    H244121   1.517   2.400  11.841  1.3963  0.9974  1.3636
 7544TIP3   OH244122   3.062   3.653   3.558 -0.1498  0.3174 -0.2883
 7544TIP3    H144123   3.059   3.599   3.479 -1.2637  2.1934 -1.6000
 7544TIP3    H244124   3.003   3.610   3.619  1.1161 -1.4457 -0.2286
 7545TIP3   OH244125   1.924   4.722  11.276  0.3144 -0.0774  0.0694
 7545TIP3    H144126   2.007   4.716  11.323 -0.6298  1.3705  2.1279
 7545TIP3    H244127   1.944   4.698  11.186  2.9850  0.3889  0.4733
 7546TIP3   OH244128   5.431   5.957  15.022  0.4622  0.7270 -0.0861
 7546TIP3    H144129   5.372   6.030  15.007 -1.2716 -0.2067  1.7480
 7546TIP3    H244130   5.446   5.957  15.117 -2.3867 -3.1846  0.6157
 7547TIP3   OH244131   5.379   4.203   6.470 -0.4459 -0.5823 -0.4528
 7547TIP3    H144132   5.390   4.286   6.424 -0.6782 -0.1765  0.2160
 7547TIP3    H244133   5.448   4.203   6.537 -0.6571 -0.7730 -0.2330
 7548TIP3   OH244134   3.395   1.586  13.599  0.0608  0.1856  0.5613
 7548TIP3    H144135   3.310   1.543  13.608  0.2016  0.1325  1.8578
 7548TIP3    H244136   3.444   1.531  13.538  0.8546 -2.5808  3.4409
 7549TIP3   OH244137   2.694   2.126   2.952 -0.6020 -0.2194 -0.3303
 7549TIP3    H144138   2.692   2.049   3.010 -1.4675  0.7853  1.0354
 7549TIP3    H244139   2.602   2.140   2.928 -0.6430  1.1220  0.4909
 7550TIP3   OH244140   0.734   6.230  13.690 -0.3344 -0.2989  0.8080
 7550TIP3    H144141   0.738   6.220  13.785 -1.7731 -0.9005  0.8189
 7550TIP3    H244142   0.681   6.156  13.660  2.4777 -1.8289 -0.7846
 7551TIP3   OH244143   4.625   0.264  16.840 -0.4085  0.0309  0.0581
 7551TIP3    H144144   4.594   0.175  16.822  1.3714 -0.3320 -1.4844
 7551TIP3    H244145   4.600   0.314  16.762  0.9912  0.2077 -0.2937
 7552TIP3   OH244146   2.091   0.377  14.436 -0.4643 -0.3707  0.5462
 7552TIP3    H144147   2.063   0.402  14.524 -1.5859 -0.8786  0.3427
 7552TIP3    H244148   2.024   0.412  14.377  0.3665  0.1192 -0.1352
 7553TIP3   OH244149   0.186   1.759   2.665  0.4761 -0.1216  0.2314
 7553TIP3    H144150   0.155   1.809   2.589 -0.9763 -0.2789  0.6971
 7553TIP3    H244151   0.123   1.687   2.674  0.8387 -0.3183  1.3642
 7554TIP3   OH244152   1.517   1.655  13.982  0.2863  0.2461  0.2577
 7554TIP3    H144153   1.570   1.657  13.902  0.7581  2.4726  0.5613
 7554TIP3    H244154   1.452   1.724  13.969  0.0413  0.2754  1.5732
 7555TIP3   OH244155   5.952   3.406   4.748  0.0809 -1.0580 -0.0069
 7555TIP3    H144156   5.877   3.429   4.693 -0.3316  0.0728  0.9603
 7555TIP3    H244157   5.972   3.487   4.795  1.3889 -1.5793  0.3686
 7556TIP3   OH244158   4.049   1.488   4.198 -0.0640  0.5423 -0.3087
 7556TIP3    H144159   4.075   1.510   4.288 -1.0345  0.4331  0.0150
 7556TIP3    H244160   3.962   1.449   4.208 -0.2039  0.5835 -1.3107
 7557TIP3   OH244161   4.552   4.248  16.870  0.4096  0.0306  0.2810
 7557TIP3    H144162   4.614   4.182  16.838 -0.7979 -0.9235 -0.1894
 7557TIP3    H244163   4.467   4.203  16.870 -0.4477  1.5670  0.0041
 7558TIP3   OH244164   1.750   4.998  12.762  0.4901  0.4349 -0.2751
 7558TIP3    H144165   1.740   5.029  12.672  0.1643  0.1606 -0.3388
 7558TIP3    H244166   1.683   5.045  12.812  0.7691  0.6968 -0.1476
 7559TIP3   OH244167   3.904   5.649   0.698 -0.0527 -0.0930  0.1670
 7559TIP3    H144168   3.862   5.648   0.612 -0.0036 -0.1407  0.1435
 7559TIP3    H244169   3.908   5.742   0.722  2.2306  0.1870 -1.0044
 7560TIP3   OH244170   2.553   3.988  17.073 -0.1055  0.2067 -0.0080
 7560TIP3    H144171   2.568   3.909  17.021  2.5098  1.1464 -0.8812
 7560TIP3    H244172   2.468   3.975  17.114 -0.3359 -2.4673 -1.1516
 7561TIP3   OH244173   2.776   5.710  12.003 -0.1596  0.2942  0.1429
 7561TIP3    H144174   2.706   5.711  11.937 -0.9094  0.6514  0.9158
 7561TIP3    H244175   2.731   5.686  12.084  1.0480 -2.0065  0.2084
 7562TIP3   OH244176   6.838   5.177   6.580  0.2653  0.2980  1.0380
 7562TIP3    H144177   6.852   5.119   6.654 -0.6485  2.3999  2.9758
 7562TIP3    H244178   6.918   5.230   6.574 -0.3190  1.3047  1.7059
 7563TIP3   OH244179   5.782   1.820   3.987  0.8869  0.1832  0.0470
 7563TIP3    H144180   5.874   1.832   3.966  0.9494  0.4628  0.4681
 7563TIP3    H244181   5.778   1.737   4.035  0.5972 -1.0194 -1.9546
 7564TIP3   OH244182   1.281   4.403   1.271 -0.0574  0.4480  0.6813
 7564TIP3    H144183   1.278   4.454   1.352 -0.5052 -0.1020  1.0192
 7564TIP3    H244184   1.285   4.312   1.300 -0.9494  0.2082  0.0924
 7565TIP3   OH244185   3.579   4.870  15.036  0.0208 -0.0252  0.4093
 7565TIP3    H144186   3.609   4.814  14.964  0.0612  0.5278 -0.0181
 7565TIP3    H244187   3.653   4.871  15.097  1.5994  2.5243 -1.3305
 7566TIP3   OH244188   0.804   6.624  13.426  0.0192  0.1181  0.3810
 7566TIP3    H144189   0.899   6.636  13.433 -0.0809  0.4662  1.2780
 7566TIP3    H244190   0.781   6.569  13.501 -0.1134 -2.4453 -1.3890
 7567TIP3   OH244191   3.368   0.032   5.219 -0.1462  0.3108 -0.0212
 7567TIP3    H144192   3.388  -0.044   5.273  1.8128  0.6209 -0.2430
 7567TIP3    H244193   3.362   0.104   5.281  3.1702  0.8730 -0.1397
 7568TIP3   OH244194   3.808   1.351  15.968 -0.3867  0.1424  0.6406
 7568TIP3    H144195   3.733   1.337  16.025 -0.6302 -1.6000 -0.0501
 7568TIP3    H244196   3.783   1.310  15.885  1.1402 -0.0641  0.2480
 7569TIP3   OH244197   5.178   2.655  15.520  0.1448 -0.4042  0.9054
 7569TIP3    H144198   5.205   2.707  15.444 -1.6285  0.9385  1.1343
 7569TIP3    H244199   5.190   2.564  15.491  1.3465  0.0767 -0.2518
 7570TIP3   OH244200   6.621   4.658  14.815  0.1561 -0.1292  0.2486
 7570TIP3    H144201   6.536   4.677  14.854  0.5010  0.4646  0.7509
 7570TIP3    H244202   6.640   4.568  14.840  0.2905  0.1875  1.3499
 7571TIP3   OH244203   5.155   4.341  16.127 -0.4232 -0.1658 -0.0751
 7571TIP3    H144204   5.093   4.352  16.055 -1.3371  0.2447  0.7414
 7571TIP3    H244205   5.100   4.339  16.206  0.6949  2.1503  0.8633
 7572TIP3   OH244206   3.615   1.821   1.145 -0.5775 -0.3747  0.4148
 7572TIP3    H144207   3.642   1.911   1.166  0.2435 -0.1379 -1.4232
 7572TIP3    H244208   3.525   1.815   1.177 -1.7299  2.1030 -1.8454
 7573TIP3   OH244209   5.253   0.774  11.495  0.4904 -0.5549 -0.1606
 7573TIP3    H144210   5.224   0.811  11.579  1.5163 -4.6270  2.2907
 7573TIP3    H244211   5.173   0.739  11.456  0.1303  0.6727 -0.5825
 7574TIP3   OH244212   2.555   4.545   0.972 -0.3948  0.4390 -0.7309
 7574TIP3    H144213   2.471   4.557   1.016 -0.3384 -3.6952  0.9731
 7574TIP3    H244214   2.531   4.512   0.885 -0.4330  2.2061 -1.4469
 7575TIP3   OH244215   0.074   3.251   2.361  0.0924 -0.5213 -0.1938
 7575TIP3    H144216   0.053   3.236   2.453  1.2904 -0.9531  0.0225
 7575TIP3    H244217   0.030   3.334   2.340  2.0896  1.1164  1.5908
 7576TIP3   OH244218   2.450   6.332   1.865 -0.1366 -0.4352 -0.0706
 7576TIP3    H144219   2.428   6.271   1.935  0.1573 -0.0237  0.3883
 7576TIP3    H244220   2.436   6.283   1.784 -0.4486 -0.9238  0.2806
 7577TIP3   OH244221   1.420   5.056  11.391  0.1161  0.1731 -0.7915
 7577TIP3    H144222   1.475   5.127  11.358 -0.0027  0.9255  0.5605
 7577TIP3    H244223   1.331   5.090  11.383  0.0134 -0.1033 -0.8044
 7578TIP3   OH244224   6.363   4.796   3.272  0.0711  0.2162 -0.1693
 7578TIP3    H144225   6.384   4.866   3.334 -1.0361  1.1407 -0.7999
 7578TIP3    H244226   6.281   4.825   3.231 -0.0173 -1.1135 -0.9596
 7579TIP3   OH244227   5.737   2.679   4.718 -0.3908  0.1420  0.0980
 7579TIP3    H144228   5.698   2.597   4.748  2.1164 -1.0619  0.2311
 7579TIP3    H244229   5.716   2.742   4.787  0.8483 -1.3321  1.9013
 7580TIP3   OH244230   5.999   5.562   1.173  0.5173 -0.4340 -0.3827
 7580TIP3    H144231   5.926   5.513   1.136 -0.2964  0.2887  0.2151
 7580TIP3    H244232   6.069   5.497   1.185 -0.0252 -1.1296 -0.9720
 7581TIP3   OH244233   0.481   4.057   5.115 -0.2581 -0.1492  0.4900
 7581TIP3    H144234   0.515   4.079   5.202  0.5450  0.4147  0.0434
 7581TIP3    H244235   0.501   3.964   5.104 -0.0214 -0.1320  0.7594
 7582TIP3   OH244236   1.240   1.983   3.711  0.3975  0.3936 -0.4783
 7582TIP3    H144237   1.334   1.997   3.723  0.5234 -0.1790 -0.7752
 7582TIP3    H244238   1.234   1.900   3.665 -0.2143  0.8844 -1.3172
 7583TIP3   OH244239   2.116   3.709   4.928 -0.1954  0.2422  0.0412
 7583TIP3    H144240   2.089   3.732   5.016 -1.3106 -3.5983  0.8698
 7583TIP3    H244241   2.208   3.737   4.923 -0.0274  0.3397  2.4965
 7584TIP3   OH244242   0.366   1.992  16.029  0.1711  0.1815  0.4544
 7584TIP3    H144243   0.274   1.968  16.036 -0.0321  1.0613  0.9053
 7584TIP3    H244244   0.383   2.045  16.107  0.7840  0.8783 -0.1418
 7585TIP3   OH244245   6.658   6.681   1.803 -0.5262 -0.5162  0.1021
 7585TIP3    H144246   6.592   6.631   1.851  0.2817 -0.6922  1.0467
 7585TIP3    H244247   6.741   6.643   1.829  0.0372  0.5933 -0.0180
 7586TIP3   OH244248   0.577   5.278  14.555 -1.1621  0.1250 -0.3542
 7586TIP3    H144249   0.597   5.285  14.462 -0.9782 -0.2201 -0.3395
 7586TIP3    H244250   0.662   5.266  14.597 -1.2552  0.1754 -0.1512
 7587TIP3   OH244251   6.317   6.667   5.041 -0.3886 -0.3157 -0.1879
 7587TIP3    H144252   6.332   6.708   5.126 -1.7761 -0.5582  0.1931
 7587TIP3    H244253   6.387   6.602   5.033 -0.0426 -0.0533  0.6155
 7588TIP3   OH244254   5.330   2.078   5.682 -0.3420  0.2129  0.3404
 7588TIP3    H144255   5.298   2.162   5.716  1.4120  0.5831  1.1807
 7588TIP3    H244256   5.421   2.096   5.658 -0.5194 -0.9719 -1.2942
 7589TIP3   OH244257   0.962   5.278  13.832  0.0940  0.8013 -0.1984
 7589TIP3    H144258   0.885   5.319  13.872  1.6497  2.0526  1.7055
 7589TIP3    H244259   1.000   5.225  13.901  0.3890 -0.6640 -1.4396
 7590TIP3   OH244260   3.771   5.610  11.213  0.2961  0.1503  0.2390
 7590TIP3    H144261   3.765   5.694  11.168  0.5776  0.2783  0.4395
 7590TIP3    H244262   3.686   5.568  11.198  0.5014  0.0439 -0.6889
 7591TIP3   OH244263   1.866   0.313   0.179 -0.1996  0.5429 -0.1734
 7591TIP3    H144264   1.871   0.247   0.110 -2.0026  0.1283  0.0341
 7591TIP3    H244265   1.836   0.264   0.256  0.0969  1.3073  0.4325
 7592TIP3   OH244266   1.624   1.560   1.964 -0.1839  0.4221  0.1203
 7592TIP3    H144267   1.575   1.479   1.949 -2.1196  1.6206 -0.2979
 7592TIP3    H244268   1.612   1.610   1.883  0.8372  1.2309  0.4478
 7593TIP3   OH244269   3.533   5.865  16.100 -0.2693 -0.2662  0.1034
 7593TIP3    H144270   3.484   5.795  16.057 -1.3233  1.2294 -1.2606
 7593TIP3    H244271   3.466   5.918  16.142  0.3803  0.5950  0.0801
 7594TIP3   OH244272   1.882   5.581   0.619 -0.1372 -0.2767  0.0506
 7594TIP3    H144273   1.804   5.534   0.648 -0.6467 -0.5222 -1.5716
 7594TIP3    H244274   1.867   5.672   0.644  0.5464 -0.8000  2.6024
 7595TIP3   OH244275   5.437   1.973   2.625  0.3789  0.3493 -0.1344
 7595TIP3    H144276   5.427   2.010   2.713  0.5140  0.6565 -0.2489
 7595TIP3    H244277   5.439   2.048   2.567 -0.6069  0.1060 -0.4923
 7596TIP3   OH244278   3.623   1.342  13.691  0.0727 -0.0129  0.1195
 7596TIP3    H144279   3.653   1.275  13.630  0.8379 -1.2292  1.7462
 7596TIP3    H244280   3.568   1.296  13.754  0.0073  1.0165  0.8549
 7597TIP3   OH244281   3.727   4.848   3.330  0.2401 -0.3994  0.1430
 7597TIP3    H144282   3.796   4.819   3.389  1.8949 -1.0691 -1.9808
 7597TIP3    H244283   3.675   4.769   3.313 -0.7996 -0.0065  1.3490
 7598TIP3   OH244284   5.990   5.077  14.153 -0.0644  0.4566 -0.2746
 7598TIP3    H144285   6.062   5.121  14.199 -0.5137  0.3112  0.5788
 7598TIP3    H244286   6.003   4.984  14.172 -1.7655  0.5822  1.8088
 7599TIP3   OH244287   2.918   4.223  11.709 -0.2275  0.1381 -0.7071
 7599TIP3    H144288   2.971   4.178  11.774 -0.3304  0.1465 -0.6181
 7599TIP3    H244289   2.907   4.312  11.743  0.5493  0.4433 -1.2044
 7600TIP3   OH244290   0.130   2.306  14.216  0.0191 -0.5774 -0.2848
 7600TIP3    H144291   0.074   2.340  14.146 -1.4149 -0.0777  1.0428
 7600TIP3    H244292   0.098   2.218  14.233 -0.4232 -0.2817  0.4949
 7601TIP3   OH244293   4.812   1.037   5.018 -0.7031  0.6141  0.1629
 7601TIP3    H144294   4.898   1.073   5.041 -0.3942  0.5152 -0.7880
 7601TIP3    H244295   4.771   1.107   4.966 -0.3754 -0.0946 -1.1080
 7602TIP3   OH244296   0.318   6.753   1.640  0.4285 -0.1490 -0.4341
 7602TIP3    H144297   0.384   6.763   1.571 -0.7741  0.0000 -1.6005
 7602TIP3    H244298   0.301   6.842   1.669  1.3559 -0.2549  0.5018
 7603TIP3   OH244299   4.667   0.531  12.339 -0.0587  0.2410 -0.1550
 7603TIP3    H144300   4.709   0.449  12.366  0.0207  0.3295 -0.0011
 7603TIP3    H244301   4.595   0.542  12.401  0.3112  0.6019  0.2200
 7604TIP3   OH244302   1.166   1.114  12.646 -0.4089 -0.4362  0.3154
 7604TIP3    H144303   1.082   1.150  12.674  0.2818  2.1048 -0.6518
 7604TIP3    H244304   1.227   1.136  12.717 -0.6330 -3.0210  1.4236
 7605TIP3   OH244305   2.035   4.184   5.648  0.2108 -0.0935 -0.1868
 7605TIP3    H144306   1.975   4.212   5.578 -1.0821 -0.3465  0.7911
 7605TIP3    H244307   1.978   4.150   5.716  1.4761 -0.1318  0.8835
 7606TIP3   OH244308   3.929   6.029   0.077  0.0507 -0.6777  0.1423
 7606TIP3    H144309   3.958   6.064  -0.007 -0.4340  3.6600  1.5466
 7606TIP3    H244310   4.009   5.996   0.117  0.9702  0.5125 -0.6250
 7607TIP3   OH244311   1.988   5.980  15.388 -0.2713  0.4728  0.0567
 7607TIP3    H144312   2.078   5.947  15.383  0.4552  2.2171  0.8999
 7607TIP3    H244313   1.954   5.969  15.300  0.2243 -1.6092  0.0573
 7608TIP3   OH244314   3.115   0.334   4.383 -0.5009 -0.4414  0.3470
 7608TIP3    H144315   3.047   0.298   4.441 -0.6387 -2.2474 -0.8798
 7608TIP3    H244316   3.082   0.421   4.360 -0.3736  0.4265  3.0283
 7609TIP3   OH244317   4.588   2.411  11.954  0.5301  0.6620  0.6763
 7609TIP3    H144318   4.646   2.435  11.882 -0.4238 -1.2951 -0.8565
 7609TIP3    H244319   4.503   2.397  11.912  0.2578 -1.9235  1.8864
 7610TIP3   OH244320   1.370   1.449  14.089 -0.0194  0.7950  0.0254
 7610TIP3    H144321   1.419   1.506  14.029  0.4095 -0.4920 -0.9035
 7610TIP3    H244322   1.308   1.507  14.132  1.8303  2.3623  0.7265
 7611TIP3   OH244323   0.590   3.744  13.542 -0.0204 -0.1781 -0.3329
 7611TIP3    H144324   0.576   3.686  13.617  1.5114  0.1442  0.2312
 7611TIP3    H244325   0.502   3.776  13.520 -0.5368 -0.4971  1.1367
 7612TIP3   OH244326   3.103   2.840   1.855 -0.1558  0.0726  0.2744
 7612TIP3    H144327   3.096   2.827   1.760  0.8335  1.6494 -0.0642
 7612TIP3    H244328   3.169   2.909   1.864  1.9061 -2.0014  2.2563
 7613TIP3   OH244329   2.764   6.607   3.997  0.3151 -0.1459  0.0400
 7613TIP3    H144330   2.835   6.624   4.059  1.1568 -1.7564 -0.4213
 7613TIP3    H244331   2.806   6.561   3.925 -1.1161 -0.6904 -0.4826
 7614TIP3   OH244332   5.437   4.418  12.778  0.1084  0.1396 -0.5458
 7614TIP3    H144333   5.418   4.486  12.714 -0.1989  0.8810  0.3100
 7614TIP3    H244334   5.531   4.427  12.796  0.4714 -0.9112 -1.8239
 7615TIP3   OH244335   0.899   2.728  16.550 -0.0157  0.0873 -0.1001
 7615TIP3    H144336   0.972   2.672  16.576  0.0193 -0.1978 -0.7853
 7615TIP3    H244337   0.832   2.667  16.519 -1.5759  0.1210  2.8065
 7616TIP3   OH244338   2.898   5.473  14.987 -0.0014  0.5653  0.2627
 7616TIP3    H144339   2.808   5.501  15.006 -0.2003 -0.6583  1.2865
 7616TIP3    H244340   2.912   5.498  14.896 -0.8959  1.9753  0.4845
 7617TIP3   OH244341   1.922   3.235   1.604  0.2100  0.3573 -0.5843
 7617TIP3    H144342   1.832   3.236   1.571  0.3127 -1.7912 -1.0534
 7617TIP3    H244343   1.966   3.169   1.551  1.8865  0.8291  0.1577
 7618TIP3   OH244344   2.657   2.811  12.310 -0.0007 -0.1877  0.2532
 7618TIP3    H144345   2.586   2.815  12.375 -1.0661 -0.5860 -0.8381
 7618TIP3    H244346   2.623   2.754  12.241  1.6257 -0.8387 -0.0539
 7619TIP3   OH244347   5.441   0.428  12.911  0.0638  0.0719  0.4534
 7619TIP3    H144348   5.396   0.351  12.944 -0.4355  0.3209  0.3622
 7619TIP3    H244349   5.530   0.398  12.891 -0.6275 -0.9154 -1.2942
 7620TIP3   OH244350   4.632   1.522  15.579 -0.2504 -0.0035 -0.0460
 7620TIP3    H144351   4.705   1.580  15.557  0.0551  0.6164  2.3623
 7620TIP3    H244352   4.663   1.435  15.552  0.4206  0.5406 -1.1236
 7621TIP3   OH244353   3.315   6.812   0.230  0.0064 -0.0661  0.3415
 7621TIP3    H144354   3.228   6.778   0.207 -0.0100  0.8504 -1.1187
 7621TIP3    H244355   3.299   6.903   0.256  0.6101  0.4354 -0.9576
 7622TIP3   OH244356   6.721   2.145  11.488  0.3145  0.1855 -0.1335
 7622TIP3    H144357   6.634   2.185  11.477 -1.4715 -2.7370  1.9573
 7622TIP3    H244358   6.754   2.182  11.570  0.1808 -0.0738  0.0398
 7623TIP3   OH244359   6.166   4.698   1.583 -0.2430  0.5730 -0.1252
 7623TIP3    H144360   6.256   4.665   1.586 -0.6191 -0.4920 -0.0650
 7623TIP3    H244361   6.164   4.768   1.647  0.3171 -0.0052  0.5397
 7624TIP3   OH244362   2.861   4.779  11.182  0.3932 -0.1101 -0.3347
 7624TIP3    H144363   2.842   4.864  11.143 -1.3635 -0.2920  0.0702
 7624TIP3    H244364   2.931   4.743  11.127 -1.3829  0.0087 -2.8195
 7625TIP3   OH244365   3.428   3.717   2.622 -0.8130  0.1305 -0.7770
 7625TIP3    H144366   3.346   3.672   2.642  1.1723 -4.2293 -1.3574
 7625TIP3    H244367   3.453   3.683   2.536  1.0486  2.3091 -1.1892
 7626TIP3   OH244368   5.527   3.802  12.032  0.3446  0.2875 -0.0169
 7626TIP3    H144369   5.606   3.833  12.074  2.3609 -2.3985 -1.4624
 7626TIP3    H244370   5.547   3.805  11.938 -2.1494  1.6028 -0.5877
 7627TIP3   OH244371   6.712   4.120  17.012  0.1007 -0.0565 -0.2455
 7627TIP3    H144372   6.628   4.125  17.057  0.0297 -0.7939 -0.2917
 7627TIP3    H244373   6.694   4.073  16.931  0.5344 -0.1031 -0.3210
 7628TIP3   OH244374   1.175   5.939   4.292 -0.3928 -0.9324 -0.1631
 7628TIP3    H144375   1.108   5.887   4.248  0.3260 -1.8581 -0.1998
 7628TIP3    H244376   1.158   6.029   4.265 -0.6807 -1.3468 -1.4048
 7629TIP3   OH244377   1.641   0.578   5.347  0.5652 -0.4945 -0.8067
 7629TIP3    H144378   1.589   0.536   5.416 -2.6189  0.9024 -2.1387
 7629TIP3    H244379   1.676   0.505   5.296 -0.3940 -1.5484 -0.0173
 7630TIP3   OH244380   0.558   1.233   2.519 -0.5601  0.1693 -0.0595
 7630TIP3    H144381   0.603   1.260   2.439 -0.7675  1.1882  0.1427
 7630TIP3    H244382   0.510   1.312   2.546 -1.2586 -0.4525  0.5373
 7631TIP3   OH244383   0.548   5.528  14.002  0.1223  0.9016  0.6946
 7631TIP3    H144384   0.468   5.520  14.053  0.2141  2.1899  1.0729
 7631TIP3    H244385   0.605   5.459  14.036 -1.7924 -2.1180 -1.6171
 7632TIP3   OH244386   1.492   1.365  12.069 -0.7489 -0.1266  0.2111
 7632TIP3    H144387   1.417   1.378  12.011 -1.7715 -0.1025  1.5001
 7632TIP3    H244388   1.465   1.404  12.152  1.3882  1.5301  0.2204
 7633TIP3   OH244389   3.984   5.121  12.436  0.0644  0.0777  0.0190
 7633TIP3    H144390   4.040   5.048  12.460 -0.0927 -1.0552 -2.6617
 7633TIP3    H244391   4.045   5.191  12.411  0.2261  0.1453  0.5879
 7634TIP3   OH244392   5.203   1.408   1.006  0.2165 -0.4446 -0.4051
 7634TIP3    H144393   5.205   1.321   1.047  2.8930  0.5991  1.9927
 7634TIP3    H244394   5.128   1.452   1.046 -0.2232 -1.1290 -0.4622
 7635TIP3   OH244395   6.680   4.167  13.082  0.2545  0.0190  0.4528
 7635TIP3    H144396   6.607   4.188  13.024  0.1517  1.8828  1.1994
 7635TIP3    H244397   6.664   4.077  13.110 -0.8448 -0.1583 -0.7062
 7636TIP3   OH244398   1.163   1.105   3.490  0.3626 -0.7838  0.0654
 7636TIP3    H144399   1.141   1.127   3.580  0.3397  0.9873 -0.3334
 7636TIP3    H244400   1.218   1.028   3.497 -0.3121 -1.1711  1.5289
 7637TIP3   OH244401   5.121   2.819  13.986  0.2942 -0.1450  0.4169
 7637TIP3    H144402   5.147   2.892  14.042  1.0449 -0.2266  0.1890
 7637TIP3    H244403   5.120   2.855  13.897  0.3653 -0.3302  0.3392
 7638TIP3   OH244404   0.960   6.773   1.472 -0.6157 -0.0831  0.2420
 7638TIP3    H144405   0.934   6.860   1.503  0.8813  0.4352  0.1273
 7638TIP3    H244406   1.022   6.742   1.538 -0.7875 -0.8803  0.0434
 7639TIP3   OH244407   4.503   3.725  13.762 -0.0742  0.3477 -0.2435
 7639TIP3    H144408   4.584   3.735  13.711  0.1886 -1.0267 -0.1291
 7639TIP3    H244409   4.435   3.713  13.696  0.4354 -2.6419 -0.3402
 7640TIP3   OH244410   2.901   0.727   2.844 -0.5561 -0.4919  0.3844
 7640TIP3    H144411   2.965   0.765   2.904 -0.6813 -1.3545  1.0889
 7640TIP3    H244412   2.878   0.798   2.785 -0.1081  0.2583  1.0986
 7641TIP3   OH244413   5.852   0.438   1.728 -0.6556 -0.5929 -0.2960
 7641TIP3    H144414   5.889   0.365   1.777  1.4216  1.7612  1.9452
 7641TIP3    H244415   5.769   0.456   1.771  0.9320  1.1473  2.3484
 7642TIP3   OH244416   4.837   2.825  10.502  0.1985 -0.3123 -0.4835
 7642TIP3    H144417   4.917   2.877  10.496 -1.2854  2.0037 -1.9230
 7642TIP3    H244418   4.792   2.860  10.579 -0.3131 -0.1886 -0.8309
 7643TIP3   OH244419   1.300   1.008   4.032  0.4395  0.1612  0.4043
 7643TIP3    H144420   1.369   0.944   4.050  0.5636  0.6593  1.8960
 7643TIP3    H244421   1.219   0.959   4.043  0.5349  0.2141  1.4408
 7644TIP3   OH244422   2.055   2.608   1.498  0.1650  0.0325  0.3276
 7644TIP3    H144423   1.977   2.581   1.449 -0.0534  1.0580  0.0887
 7644TIP3    H244424   2.021   2.658   1.572  0.5384 -0.7840  1.0723
 7645TIP3   OH244425   3.577   0.622   6.418 -0.0078 -0.4482  0.4827
 7645TIP3    H144426   3.558   0.705   6.463  2.3937 -0.5909  1.9529
 7645TIP3    H244427   3.667   0.632   6.386 -0.0080 -2.1488 -0.1461
 7646TIP3   OH244428   6.205   3.230   1.728 -0.1728  0.4309  0.1730
 7646TIP3    H144429   6.148   3.267   1.660 -0.8565  0.0859  0.5514
 7646TIP3    H244430   6.278   3.292   1.733  0.3499  0.0070 -1.4894
 7647TIP3   OH244431   4.082   4.910  16.200  0.1617  0.9654  0.5291
 7647TIP3    H144432   4.088   4.824  16.158 -0.9039 -0.4053  2.9426
 7647TIP3    H244433   4.030   4.963  16.140 -0.2707 -0.4984 -0.4404
 7648TIP3   OH244434   3.602   4.540  16.479 -0.2204 -0.4068 -0.2896
 7648TIP3    H144435   3.633   4.606  16.540 -0.0315 -0.4613 -0.3269
 7648TIP3    H244436   3.574   4.467  16.534  0.1442 -0.5392 -0.2749
 7649TIP3   OH244437   5.268   1.723   2.321 -0.1640  0.2761 -0.6140
 7649TIP3    H144438   5.325   1.719   2.398  1.3977 -1.1712 -1.7709
 7649TIP3    H244439   5.217   1.803   2.333  0.1927  0.2050  1.7902
 7650TIP3   OH244440   4.231   2.566  14.524  0.2194 -0.3977 -0.1024
 7650TIP3    H144441   4.307   2.605  14.480 -0.3217 -0.9488 -1.5515
 7650TIP3    H244442   4.158   2.622  14.501  0.1008 -0.0239  1.0789
 7651TIP3   OH244443   4.902   1.834   5.620 -0.0251 -0.2237 -0.2990
 7651TIP3    H144444   4.878   1.742   5.633 -1.6117 -0.2280 -2.7237
 7651TIP3    H244445   4.993   1.831   5.590  0.4315 -0.8490  1.0565
 7652TIP3   OH244446   1.653   0.485  13.834  0.2795 -0.1274  0.3256
 7652TIP3    H144447   1.652   0.465  13.928  1.0902  1.2986  0.6537
 7652TIP3    H244448   1.570   0.448  13.802  0.7099 -2.0748  1.2586
 7653TIP3   OH244449   1.498   2.612  15.716  0.1512 -0.4491 -0.1703
 7653TIP3    H144450   1.484   2.707  15.715 -1.0152 -0.5634 -2.7684
 7653TIP3    H244451   1.592   2.602  15.701  0.2307  0.3016 -0.2465
 7654TIP3   OH244452   1.036   2.175  15.637  0.4069 -0.0325 -0.2426
 7654TIP3    H144453   1.108   2.232  15.666  1.4054 -0.7884 -1.1855
 7654TIP3    H244454   1.002   2.218  15.558  0.8552 -0.4843 -0.6873
 7655TIP3   OH244455   1.604   3.661  15.298 -0.3150  0.2941 -0.4669
 7655TIP3    H144456   1.558   3.646  15.215  0.2177 -1.7787 -0.4252
 7655TIP3    H244457   1.534   3.681  15.360 -1.0857 -1.3782 -0.7321
 7656TIP3   OH244458   0.941   0.099   2.149  0.3164  0.3610  0.4259
 7656TIP3    H144459   0.992   0.071   2.225  1.6865 -0.0697 -0.6161
 7656TIP3    H244460   0.953   0.194   2.145  0.0895  0.4099  0.8445
 7657TIP3   OH244461   4.771   0.938  15.163  0.5444  0.4054  0.0254
 7657TIP3    H144462   4.790   0.959  15.072  2.0671  1.2256  0.4934
 7657TIP3    H244463   4.802   1.015  15.212  2.3575 -1.1538  1.4575
 7658TIP3   OH244464   0.966   5.354   4.889  0.1531 -0.5245 -0.8620
 7658TIP3    H144465   1.032   5.350   4.959  1.7026 -0.9132 -2.2853
 7658TIP3    H244466   0.995   5.424   4.832 -1.9931  0.9058 -0.3341
 7659TIP3   OH244467   5.652   2.159   3.848 -0.2400  0.7725 -0.6135
 7659TIP3    H144468   5.590   2.192   3.783 -1.3542 -2.8857 -1.6443
 7659TIP3    H244469   5.736   2.157   3.803  0.0788  2.8281 -0.2214
 7660TIP3   OH244470   0.524   0.245  13.999 -0.6566  0.0214 -0.0405
 7660TIP3    H144471   0.526   0.328  13.952 -1.7510  1.8497  2.8926
 7660TIP3    H244472   0.582   0.259  14.073 -1.4346 -1.5891  0.9146
 7661TIP3   OH244473   3.138   3.147   2.042  0.4512  0.1200  0.1383
 7661TIP3    H144474   3.180   3.229   2.067  2.9622 -1.3442  1.0920
 7661TIP3    H244475   3.071   3.173   1.978  1.6034  2.8033 -0.1180
 7662TIP3   OH244476   4.219   6.139  16.420  0.5677 -0.2588  0.6616
 7662TIP3    H144477   4.133   6.115  16.456 -0.5113 -0.1379 -1.6479
 7662TIP3    H244478   4.250   6.059  16.378  0.5665  0.2776 -0.3721
 7663TIP3   OH244479   4.078   0.075  12.951  0.6364  0.5665 -0.1852
 7663TIP3    H144480   4.029   0.068  13.033  0.9359 -0.2138 -0.0647
 7663TIP3    H244481   4.052  -0.002  12.901  1.5802  0.2413 -0.1959
 7664TIP3   OH244482   3.937   3.593  10.568  0.3951 -0.3804  0.2154
 7664TIP3    H144483   3.846   3.583  10.541  0.0223 -0.4143  1.4335
 7664TIP3    H244484   3.985   3.532  10.513  0.1786  1.9043 -2.7504
 7665TIP3   OH244485   5.309   6.429   5.015  0.2459 -0.1376  0.2812
 7665TIP3    H144486   5.392   6.384   4.998 -0.0196 -0.1143 -1.1954
 7665TIP3    H244487   5.246   6.387   4.955 -0.2634  1.4408 -0.3267
 7666TIP3   OH244488   5.867   6.436   6.061  0.1615 -0.5656  0.1200
 7666TIP3    H144489   5.778   6.403   6.071 -0.5493  1.0363 -0.4404
 7666TIP3    H244490   5.873   6.461   5.969  1.1919 -0.6525  0.1522
 7667TIP3   OH244491   2.064   4.030   4.743  0.5328 -0.1645 -0.3127
 7667TIP3    H144492   2.046   4.122   4.724  0.4702 -0.5068 -2.0706
 7667TIP3    H244493   2.099   4.030   4.832  1.1650  1.6347 -0.5318
 7668TIP3   OH244494   6.670   6.482  16.650  0.0482  0.1018  0.0367
 7668TIP3    H144495   6.626   6.547  16.596  0.0693  1.8430  1.9953
 7668TIP3    H244496   6.699   6.530  16.728  1.1610 -1.9996  1.0186
 7669TIP3   OH244497   2.103   0.859   0.797  0.7215  0.2043  0.1030
 7669TIP3    H144498   2.107   0.919   0.870  0.4649 -0.7674  0.9431
 7669TIP3    H244499   2.109   0.914   0.719 -0.3396  1.3708  0.8297
 7670TIP3   OH244500   2.376   0.772   4.139 -0.3197 -0.0732  0.3241
 7670TIP3    H144501   2.364   0.754   4.046 -0.3797 -0.2702  0.3705
 7670TIP3    H244502   2.461   0.815   4.145  0.1753 -1.0286  0.3053
 7671TIP3   OH244503   6.720   5.645  12.082 -0.9013 -0.6293 -0.3216
 7671TIP3    H144504   6.713   5.728  12.035  0.4708 -0.2448  0.1046
 7671TIP3    H244505   6.746   5.581  12.015 -1.0591 -0.5284 -0.4785
 7672TIP3   OH244506   4.718   2.774  12.304  0.0901 -0.3217  0.0526
 7672TIP3    H144507   4.798   2.728  12.330  0.6743  1.2895  1.2993
 7672TIP3    H244508   4.710   2.845  12.367 -3.0237 -1.1312  0.7195
 7673TIP3   OH244509   5.265   6.800  13.993  0.4172  0.4104 -0.0801
 7673TIP3    H144510   5.339   6.850  13.960  1.5203 -1.5693 -0.7347
 7673TIP3    H244511   5.300   6.751  14.068  0.3798 -2.0403 -1.5549
 7674TIP3   OH244512   5.483   0.962  15.114  0.3583 -0.0244 -1.2147
 7674TIP3    H144513   5.481   1.054  15.090 -2.1368  0.3995  0.3052
 7674TIP3    H244514   5.450   0.915  15.037 -0.4373  0.5831 -1.2515
 7675TIP3   OH244515   4.434   1.811  12.491 -0.3177 -0.5852 -0.4888
 7675TIP3    H144516   4.475   1.890  12.527  1.2606 -1.1661 -0.9359
 7675TIP3    H244517   4.390   1.770  12.566 -1.3029  0.7794 -0.2894
 7676TIP3   OH244518   1.724   4.429  14.329  0.1595 -0.6538  0.1037
 7676TIP3    H144519   1.748   4.517  14.301  0.5078 -0.3385  1.3095
 7676TIP3    H244520   1.631   4.434  14.350  0.3447 -0.3693  0.8788
 7677TIP3   OH244521   4.235   6.073   2.367 -0.3784  0.3150  0.0378
 7677TIP3    H144522   4.326   6.103   2.363 -0.6102  1.2243  1.0986
 7677TIP3    H244523   4.192   6.137   2.424 -1.9016  0.4608 -1.2233
 7678TIP3   OH244524   1.008   4.600  13.971 -0.5281  0.2313  0.4666
 7678TIP3    H144525   0.999   4.549  14.051 -0.4922  2.0540  1.6732
 7678TIP3    H244526   0.929   4.581  13.921 -1.0539 -0.0972  1.4036
 7679TIP3   OH244527   2.605   2.361   0.079  0.1924 -0.0377  0.3398
 7679TIP3    H144528   2.627   2.274   0.045 -0.0770 -0.0691  0.2342
 7679TIP3    H244529   2.593   2.415   0.000  2.4989  0.6735  0.4031
 7680TIP3   OH244530   1.493   6.389   2.143 -0.0056 -0.5038  0.3230
 7680TIP3    H144531   1.573   6.369   2.192  0.3327 -0.8743 -0.3647
 7680TIP3    H244532   1.504   6.480   2.116 -0.2538 -0.2524  1.0232
 7681TIP3   OH244533   4.753   4.483   3.079  0.5930  0.2078  0.5726
 7681TIP3    H144534   4.829   4.527   3.040  0.5526 -0.6649 -0.5403
 7681TIP3    H244535   4.786   4.397   3.106 -0.1426 -0.4641 -0.5956
 7682TIP3   OH244536   1.358   5.936  14.625  0.1354  0.0162 -0.2017
 7682TIP3    H144537   1.333   5.923  14.534  0.0740  1.5966 -0.4487
 7682TIP3    H244538   1.454   5.932  14.624  0.1275 -0.1610 -0.2981
 7683TIP3   OH244539   3.311   0.117  11.052 -0.3787 -0.6183 -0.0087
 7683TIP3    H144540   3.337   0.207  11.031 -0.4041 -0.6791 -0.2978
 7683TIP3    H244541   3.231   0.103  11.002 -0.8474 -0.5129  0.7002
 7684TIP3   OH244542   2.620   3.775   3.987 -0.7370  0.1575 -0.1918
 7684TIP3    H144543   2.716   3.778   3.983 -0.6318 -1.1011  0.8839
 7684TIP3    H244544   2.594   3.726   3.910 -0.3919 -0.9708  0.3901
 7685TIP3   OH244545   0.137   2.403   5.794 -0.5234 -0.0247 -0.0159
 7685TIP3    H144546   0.179   2.486   5.818 -0.7797 -0.4249  1.9994
 7685TIP3    H244547   0.043   2.425   5.788 -0.2852  0.6389 -3.4857
 7686TIP3   OH244548   1.141   1.382  12.317  0.4338  0.3343 -0.1016
 7686TIP3    H144549   1.187   1.317  12.264  1.0323  0.0587  0.7408
 7686TIP3    H244550   1.050   1.378  12.286  0.4295 -1.0021  0.0303
 7687TIP3   OH244551   5.821   5.256  14.885 -0.3439  0.1634 -0.4936
 7687TIP3    H144552   5.888   5.318  14.913  1.3180 -1.3523 -0.8896
 7687TIP3    H244553   5.795   5.285  14.798 -1.3166  1.5957  0.2326
 7688TIP3   OH244554   0.704   4.039   1.992  0.0975  0.2430 -0.0047
 7688TIP3    H144555   0.788   4.084   1.984  1.2344 -1.9022 -1.1623
 7688TIP3    H244556   0.640   4.100   1.956  1.2325  1.7205  0.4247
 7689TIP3   OH244557   5.813   1.485  14.020 -0.2197 -0.0380  0.0776
 7689TIP3    H144558   5.809   1.439  14.104 -1.3146 -0.6613 -0.2900
 7689TIP3    H244559   5.726   1.473  13.983  0.3121  0.0578 -1.2373
 7690TIP3   OH244560   5.862   6.380   4.331 -0.0776  0.0790 -0.0341
 7690TIP3    H144561   5.782   6.432   4.335 -0.4703 -0.5555  0.6403
 7690TIP3    H244562   5.896   6.381   4.420 -0.4196 -1.2905  0.1397
 7691TIP3   OH244563   2.697   1.621  13.234 -0.3060  0.5284  0.3599
 7691TIP3    H144564   2.693   1.528  13.214  4.0031  0.6153 -2.3245
 7691TIP3    H244565   2.705   1.625  13.329  0.4858 -1.9659  0.4688
 7692TIP3   OH244566   2.815   0.472  14.541  0.9842  0.5708 -0.0633
 7692TIP3    H144567   2.812   0.460  14.636  2.1792  0.2463 -0.0492
 7692TIP3    H244568   2.882   0.540  14.528  1.0513  0.3852 -0.6856
 7693TIP3   OH244569   3.124   2.728  10.713  0.2595  0.1273  0.0934
 7693TIP3    H144570   3.131   2.657  10.649 -1.0401 -0.3207  0.3981
 7693TIP3    H244571   3.124   2.682  10.798  0.6047  0.5995  0.3513
 7694TIP3   OH244572   2.902   1.379  14.827  0.0588  0.3677 -0.3983
 7694TIP3    H144573   2.819   1.404  14.869  1.1534  1.5429  1.2236
 7694TIP3    H244574   2.886   1.292  14.792 -0.8535 -0.9970  3.0033
 7695TIP3   OH244575   6.632   2.357   3.279  0.0336  0.3149  0.6185
 7695TIP3    H144576   6.616   2.445   3.314  0.5538 -0.0980  1.9734
 7695TIP3    H244577   6.702   2.322   3.335  0.6824 -0.5146 -0.6663
 7696TIP3   OH244578   1.318   0.461  16.668 -0.0441  0.3295 -0.1311
 7696TIP3    H144579   1.391   0.420  16.622  0.7820  1.2046  0.3636
 7696TIP3    H244580   1.349   0.549  16.689 -1.2598  0.7331  0.0629
 7697TIP3   OH244581   5.067   5.730   1.384  0.2018  0.0491  0.1349
 7697TIP3    H144582   4.977   5.707   1.404 -0.2167 -0.1053 -1.7513
 7697TIP3    H244583   5.061   5.791   1.311  1.6475 -0.6137 -0.5774
 7698TIP3   OH244584   0.628   6.530  11.008 -0.0643  0.1322  0.1571
 7698TIP3    H144585   0.643   6.507  11.099  1.0875  0.4188  0.0512
 7698TIP3    H244586   0.617   6.446  10.963 -2.4301  0.0199  0.8165
 7699TIP3   OH244587   5.391   3.962  11.410  0.0325 -0.5529  0.2880
 7699TIP3    H144588   5.352   4.046  11.436  0.0973 -0.2297 -0.6043
 7699TIP3    H244589   5.484   3.981  11.401  0.0539 -0.7305  0.1233
 7700TIP3   OH244590   0.373   5.332   1.182 -0.1614 -0.0372  0.6077
 7700TIP3    H144591   0.280   5.340   1.202  0.1322  0.9439  1.6662
 7700TIP3    H244592   0.417   5.335   1.267  0.9194  0.7435  0.0549
 7701TIP3   OH244593   2.167   3.415   1.786  0.8444 -0.0080  0.1685
 7701TIP3    H144594   2.186   3.506   1.806  0.4141 -0.3457  2.2997
 7701TIP3    H244595   2.071   3.412   1.777  0.7315 -0.4239  1.2979
 7702TIP3   OH244596   3.030   6.106   5.198 -0.0373  0.2536 -0.1792
 7702TIP3    H144597   3.096   6.135   5.262 -1.1116  1.2595  0.5342
 7702TIP3    H244598   3.058   6.018   5.173  0.9898  0.2383  0.8940
 7703TIP3   OH244599   4.675   1.406   5.781 -0.3440  0.4300 -0.5391
 7703TIP3    H144600   4.631   1.371   5.704 -1.9802 -0.5142  0.7645
 7703TIP3    H244601   4.745   1.344   5.800  0.5777  1.0827 -1.6790
 7704TIP3   OH244602   3.827   3.934   0.954 -0.2121  0.5549 -0.0142
 7704TIP3    H144603   3.882   3.865   0.990  1.1537  2.7397  2.4836
 7704TIP3    H244604   3.774   3.964   1.028 -2.7851  0.4239 -1.6820
 7705TIP3   OH244605   0.360   5.464   6.791  0.0517  0.0479  0.0481
 7705TIP3    H144606   0.274   5.447   6.753  0.1549  0.4370 -0.3658
 7705TIP3    H244607   0.372   5.393   6.854 -0.3034 -0.3707 -0.3416
 7706TIP3   OH244608   4.544   5.045   0.638 -0.2764  0.2756 -0.2205
 7706TIP3    H144609   4.591   5.075   0.716  0.5417 -0.3677 -0.4473
 7706TIP3    H244610   4.575   4.956   0.625 -2.6611 -0.7236  0.4471
 7707TIP3   OH244611   2.545   0.354   2.273 -0.2352  0.5100 -0.4460
 7707TIP3    H144612   2.541   0.343   2.368  1.6452  0.5065 -0.3273
 7707TIP3    H244613   2.490   0.430   2.256  0.2420  1.1760  0.8039
 7708TIP3   OH244614   6.696   1.186   4.840 -0.2210 -0.0700 -0.3495
 7708TIP3    H144615   6.759   1.243   4.795  0.4899 -0.4513  0.1426
 7708TIP3    H244616   6.748   1.142   4.907 -1.3385  0.7773  1.1330
 7709TIP3   OH244617   1.948   2.538  16.630  0.3788 -0.1420  0.2062
 7709TIP3    H144618   1.911   2.523  16.717  0.3291 -0.8517  0.0623
 7709TIP3    H244619   2.036   2.571  16.647  0.3900 -0.3318  0.5213
 7710TIP3   OH244620   0.976   6.550  14.979  0.1112 -0.5557 -0.1884
 7710TIP3    H144621   1.017   6.467  14.954  0.3724 -0.2345 -0.8667
 7710TIP3    H244622   1.048   6.601  15.016  0.2241 -0.1767 -0.9180
 7711TIP3   OH244623   6.076   0.637  15.079 -1.2077  0.3379 -0.0882
 7711TIP3    H144624   6.078   0.587  14.998 -3.0244 -0.5667  0.3734
 7711TIP3    H244625   6.070   0.571  15.148 -0.5257  1.1196  0.7451
 7712TIP3   OH244626   3.633   4.597  15.461 -0.4571  0.2751 -1.2437
 7712TIP3    H144627   3.727   4.577  15.466 -0.6191 -0.0963  0.9357
 7712TIP3    H244628   3.620   4.625  15.370  1.6798 -0.0463 -1.7015
 7713TIP3   OH244629   4.510   2.669  10.692  0.3518  0.7189  0.7778
 7713TIP3    H144630   4.558   2.586  10.690  1.4231  1.3119  1.2960
 7713TIP3    H244631   4.430   2.651  10.642 -0.0433 -0.9889  1.9485
 7714TIP3   OH244632   5.883   0.420  10.563 -0.7212 -0.2311 -0.3303
 7714TIP3    H144633   5.824   0.351  10.530 -0.4891 -0.7681  0.3537
 7714TIP3    H244634   5.888   0.483  10.491 -2.2202 -0.1108 -0.3681
 7715TIP3   OH244635   4.020   5.759  15.255  0.3434  0.1258  0.3218
 7715TIP3    H144636   4.109   5.723  15.249  0.7328  1.1642 -0.3878
 7715TIP3    H244637   4.007   5.804  15.172 -0.8399  0.0325  0.4439
 7716TIP3   OH244638   2.515   2.584  14.606  0.1941 -0.2213 -0.4425
 7716TIP3    H144639   2.569   2.661  14.624  0.8269 -0.8577  0.4940
 7716TIP3    H244640   2.578   2.512  14.599 -0.4802 -0.8730  0.0499
 7717TIP3   OH244641   4.730   0.882  14.854  0.2145 -0.1090 -0.4559
 7717TIP3    H144642   4.753   0.827  14.779 -0.5208 -1.5862  0.3724
 7717TIP3    H244643   4.650   0.927  14.827 -0.2997 -0.9784 -0.3995
 7718TIP3   OH244644   3.192   1.070  14.599  0.1865 -0.2460 -0.0554
 7718TIP3    H144645   3.261   1.033  14.655 -0.9990 -1.7439  0.4812
 7718TIP3    H244646   3.155   0.994  14.554 -1.4973  0.4451  0.1051
 7719TIP3   OH244647   5.609   0.270   3.444  0.2719 -0.3800 -0.5681
 7719TIP3    H144648   5.579   0.186   3.409  0.0941 -0.2111 -0.8258
 7719TIP3    H244649   5.693   0.250   3.486 -0.5517 -1.0135  0.8501
 7720TIP3   OH244650   5.218   2.511  14.290 -0.3259 -0.0557  0.2816
 7720TIP3    H144651   5.246   2.541  14.204 -0.5353 -0.8576 -0.0761
 7720TIP3    H244652   5.239   2.584  14.349 -1.5639  1.1247 -0.6755
 7721TIP3   OH244653   5.148   4.067   3.399  0.4532  0.5676 -0.0838
 7721TIP3    H144654   5.162   4.074   3.305  1.7385 -0.2878  0.0306
 7721TIP3    H244655   5.236   4.058   3.437 -0.0628  0.4852  1.1647
 7722TIP3   OH244656   3.139   6.623  12.075 -0.3097 -0.0830  0.0896
 7722TIP3    H144657   3.181   6.674  12.005 -1.3169  0.8968  0.1689
 7722TIP3    H244658   3.045   6.638  12.062 -0.7286 -2.6938 -0.4467
 7723TIP3   OH244659   0.887   3.204   0.942 -0.1378 -0.8686 -0.3338
 7723TIP3    H144660   0.838   3.165   0.869 -0.8965 -1.0079  0.2409
 7723TIP3    H244661   0.957   3.141   0.960 -0.8143 -1.5391 -0.0028
 7724TIP3   OH244662   5.946   0.389   6.306  0.4117  0.4039  0.1304
 7724TIP3    H144663   5.923   0.297   6.319  0.9267  0.2311 -0.1468
 7724TIP3    H244664   5.890   0.418   6.234 -0.1429  0.4653  0.5810
 7725TIP3   OH244665   4.980   6.000  13.781  0.2157 -0.0944  0.3649
 7725TIP3    H144666   4.955   5.916  13.743 -2.1083  1.2379 -1.3416
 7725TIP3    H244667   4.980   5.985  13.876  1.0863 -2.2850  0.0546
 7726TIP3   OH244668   1.152   5.107  15.740 -0.0023 -0.7602  0.0555
 7726TIP3    H144669   1.131   5.174  15.805 -1.1798 -1.1228  0.0671
 7726TIP3    H244670   1.219   5.053  15.783 -0.8393 -1.0611  1.0287
 7727TIP3   OH244671   0.126   0.392   4.462 -0.4316  0.0111  0.1152
 7727TIP3    H144672   0.067   0.466   4.476 -0.5532 -0.0554 -0.0456
 7727TIP3    H244673   0.210   0.421   4.497 -0.9681 -0.5220  1.9783
 7728TIP3   OH244674   3.814   5.204   4.235 -0.6083 -0.8185 -0.0241
 7728TIP3    H144675   3.883   5.269   4.249 -0.1627 -1.5183  1.2308
 7728TIP3    H244676   3.745   5.251   4.189  0.0412  0.3182  0.1246
 7729TIP3   OH244677   1.991   1.006   3.168 -0.0717  0.0464 -0.0719
 7729TIP3    H144678   2.070   1.054   3.145 -0.4634  0.7065 -0.0654
 7729TIP3    H244679   1.926   1.033   3.103 -0.4916  0.0476  0.3430
 7730TIP3   OH244680   3.599   0.934  15.694 -0.1068 -0.2490 -0.2260
 7730TIP3    H144681   3.568   1.024  15.688 -1.7780 -0.8890 -2.1392
 7730TIP3    H244682   3.523   0.883  15.721  0.7380 -1.1625  0.5496
 7731TIP3   OH244683   1.862   6.358  16.729  0.0186  0.9892  0.2411
 7731TIP3    H144684   1.912   6.286  16.689 -0.4922 -0.7134  2.4828
 7731TIP3    H244685   1.929   6.424  16.750  0.9236 -0.0167  0.6243
 7732TIP3   OH244686   0.552   2.571  12.010 -0.1795 -0.0083 -0.3505
 7732TIP3    H144687   0.528   2.627  12.084  0.3993 -0.7453  0.4187
 7732TIP3    H244688   0.580   2.489  12.050 -0.4110 -0.6387 -1.4217
 7733TIP3   OH244689   2.527   3.783  11.391 -0.4591 -0.0460 -0.0839
 7733TIP3    H144690   2.432   3.792  11.389 -0.5677 -0.9697  0.2324
 7733TIP3    H244691   2.557   3.859  11.441 -1.0106  0.3249 -0.2973
 7734TIP3   OH244692   2.401   4.381  16.523 -0.2435  0.0869  0.0920
 7734TIP3    H144693   2.326   4.320  16.529 -0.7943  0.8006  0.5702
 7734TIP3    H244694   2.474   4.333  16.562 -0.5890 -0.4032  0.1521
 7735TIP3   OH244695   1.814   2.216  16.916 -0.0900  0.0544 -0.0083
 7735TIP3    H144696   1.739   2.250  16.964 -0.3678 -0.7363  0.1435
 7735TIP3    H244697   1.857   2.293  16.880 -0.5833  0.5647  0.4807
 7736TIP3   OH244698   6.603   6.615  16.364  0.6458  0.8172  0.5987
 7736TIP3    H144699   6.575   6.632  16.274 -0.1689 -1.2557  0.4129
 7736TIP3    H244700   6.695   6.644  16.367  0.6445  1.0253 -0.8446
 7737TIP3   OH244701   0.148   0.140   0.666 -0.1387 -0.0081  0.3921
 7737TIP3    H144702   0.209   0.108   0.732  0.6872  0.5830 -0.0635
 7737TIP3    H244703   0.180   0.103   0.584 -0.1834  0.5737  0.1059
 7738TIP3   OH244704   0.648   1.182  14.316  0.0626 -0.0983  0.5952
 7738TIP3    H144705   0.684   1.256  14.268  0.6338 -0.0618  1.0648
 7738TIP3    H244706   0.574   1.218  14.365  1.3377  0.5725  2.1336
 7739TIP3   OH244707   2.848   5.740  16.002  0.1573 -0.3620 -0.1029
 7739TIP3    H144708   2.808   5.693  16.075 -0.2888 -1.1898 -0.8693
 7739TIP3    H244709   2.775   5.764  15.945  0.1871  2.5246  0.9272
 7740TIP3   OH244710   4.846   1.064   5.855 -0.1161 -0.3914 -0.1260
 7740TIP3    H144711   4.914   1.124   5.886  0.6014 -1.2083 -0.0769
 7740TIP3    H244712   4.847   0.992   5.918  0.2434 -1.2908 -1.1280
 7741TIP3   OH244713   4.383   4.030  16.872  0.1951 -0.1086 -0.0144
 7741TIP3    H144714   4.297   4.052  16.909  0.0358  1.0646 -1.0316
 7741TIP3    H244715   4.363   3.962  16.807  0.3112 -1.2515  1.1178
 7742TIP3   OH244716   6.165   5.377  10.632 -0.6239  0.4581 -0.4725
 7742TIP3    H144717   6.134   5.331  10.554 -0.0677  0.3585 -0.6352
 7742TIP3    H244718   6.222   5.446  10.598 -0.3179  0.3654 -0.1455
 7743TIP3   OH244719   3.250   5.323   3.981  0.5907  0.2972 -0.3739
 7743TIP3    H144720   3.183   5.357   3.921 -0.2302 -0.9749 -0.2056
 7743TIP3    H244721   3.293   5.253   3.932 -0.1188 -0.7878  0.5006
 7744TIP3   OH244722   0.619   1.636  15.023  0.2247 -0.2815  0.0029
 7744TIP3    H144723   0.667   1.682  15.092  0.7167 -0.9655  0.1259
 7744TIP3    H244724   0.674   1.561  15.001 -0.5714 -0.8326 -0.1682
 7745TIP3   OH244725   6.183   6.098  11.499 -0.4837  0.5596 -0.3489
 7745TIP3    H144726   6.152   6.137  11.581  1.5650  2.1632 -0.2552
 7745TIP3    H244727   6.181   6.171  11.437  0.5950  0.0705 -0.9743
 7746TIP3   OH244728   5.900   1.440  14.951  0.0637 -0.2833 -0.1513
 7746TIP3    H144729   5.860   1.523  14.977 -0.7016  0.1972 -2.6346
 7746TIP3    H244730   5.832   1.375  14.968  0.9512 -0.6502  2.6000
 7747TIP3   OH244731   5.844   4.029   1.168  0.2930  0.1582 -0.3189
 7747TIP3    H144732   5.871   3.994   1.084 -0.4402  1.1932 -1.0025
 7747TIP3    H244733   5.916   4.087   1.193  0.4744 -0.0895 -0.2574
 7748TIP3   OH244734   6.505   3.903  17.145 -0.1769  0.1211  0.2686
 7748TIP3    H144735   6.471   3.866  17.064  2.9102 -1.4600 -0.4879
 7748TIP3    H244736   6.476   3.843  17.213  0.3529 -0.7049 -0.2214
 7749TIP3   OH244737   1.022   3.428  15.270  0.4944 -0.0112  0.4893
 7749TIP3    H144738   0.984   3.483  15.339  1.5862  1.8691 -0.3584
 7749TIP3    H244739   1.103   3.394  15.308  0.5463  0.1393  0.5136
 7750TIP3   OH244740   2.584   1.118  14.466  0.0743 -0.2008 -0.3499
 7750TIP3    H144741   2.652   1.127  14.400 -0.1792  0.2666 -0.5601
 7750TIP3    H244742   2.576   1.206  14.504  0.3805 -0.5198  0.4678
 7751TIP3   OH244743   6.525   5.760   3.172  0.1122  0.0182 -0.2855
 7751TIP3    H144744   6.530   5.680   3.120  1.1521 -0.1794  0.0940
 7751TIP3    H244745   6.615   5.778   3.197 -0.2398  0.7299  0.5180
 7752TIP3   OH244746   5.954   2.645  11.283  0.1493 -0.2131  0.4835
 7752TIP3    H144747   5.978   2.577  11.346 -0.1342  1.1824  2.1741
 7752TIP3    H244748   5.868   2.674  11.311 -0.1119  0.2619 -0.7437
 7753TIP3   OH244749   4.105   6.338  11.952 -0.9103  0.1416 -0.0491
 7753TIP3    H144750   4.065   6.265  12.000  0.1805 -0.6257 -0.2702
 7753TIP3    H244751   4.032   6.399  11.937 -1.5163 -0.1120  1.5759
 7754TIP3   OH244752   1.827   0.592  16.447  0.3296 -0.3012  0.1769
 7754TIP3    H144753   1.755   0.541  16.486 -1.3275 -0.5433 -2.8568
 7754TIP3    H244754   1.796   0.682  16.451  0.5561 -0.2271  0.2297
 7755TIP3   OH244755   5.806   5.022   1.994  0.1023  0.1375  0.0581
 7755TIP3    H144756   5.769   5.106   1.965  1.1153  0.5984  0.0400
 7755TIP3    H244757   5.812   5.030   2.089  0.1677  0.0755  0.0590
 7756TIP3   OH244758   0.118   5.133  11.877 -0.3647  0.7833 -0.4079
 7756TIP3    H144759   0.055   5.139  11.805 -1.0987  1.0285  0.2374
 7756TIP3    H244760   0.191   5.083  11.841 -1.6212 -0.9203 -0.7174
 7757TIP3   OH244761   3.509   1.313  14.682 -0.4643 -0.4507  0.6009
 7757TIP3    H144762   3.589   1.347  14.722 -0.0660  0.1196 -0.6442
 7757TIP3    H244763   3.440   1.372  14.713  0.0959  1.0487 -0.8888
 7758TIP3   OH244764   1.406   6.067   5.233 -0.2976  0.3468  0.3254
 7758TIP3    H144765   1.356   6.055   5.314 -0.2069  0.1882  0.3587
 7758TIP3    H244766   1.462   6.143   5.250 -1.0165  0.9497  0.0438
 7759TIP3   OH244767   1.401   2.369   3.427 -0.6616 -0.1986 -0.2885
 7759TIP3    H144768   1.487   2.349   3.464 -0.7091  0.6547  0.3060
 7759TIP3    H244769   1.339   2.333   3.490 -0.7507 -1.0898 -0.8728
 7760TIP3   OH244770   0.312   4.519  17.075 -0.2998  0.4095  0.3533
 7760TIP3    H144771   0.217   4.503  17.072 -0.7614  2.8707 -0.4793
 7760TIP3    H244772   0.330   4.541  17.166 -0.5444  0.0955  0.4816
 7761TIP3   OH244773   2.773   6.229   1.243  0.0587  0.4324 -0.0095
 7761TIP3    H144774   2.792   6.139   1.215  0.9046  0.9665 -1.2056
 7761TIP3    H244775   2.732   6.218   1.329  0.3876 -1.0825 -0.0080
 7762TIP3   OH244776   1.016   4.043  13.031  0.8518 -0.3676 -0.8868
 7762TIP3    H144777   1.084   4.083  13.085 -0.6281  2.3195 -0.8618
 7762TIP3    H244778   0.944   4.026  13.093 -0.3815  1.5797 -1.7038
 7763TIP3   OH244779   1.903   1.893  15.863  0.4711  0.3397 -0.0381
 7763TIP3    H144780   1.920   1.881  15.770  2.9199  3.1429 -0.1179
 7763TIP3    H244781   1.817   1.853  15.877  0.5894 -1.3587 -3.1563
 7764TIP3   OH244782   4.320   2.576   4.229  0.0631  0.3504  0.1738
 7764TIP3    H144783   4.358   2.621   4.154  0.3130  1.9181  1.1841
 7764TIP3    H244784   4.300   2.646   4.291  0.2161 -0.9198  1.7283
 7765TIP3   OH244785   6.530   0.061   1.704  0.2191  0.0951  0.0215
 7765TIP3    H144786   6.564  -0.025   1.730 -0.2543  0.7282  3.0843
 7765TIP3    H244787   6.579   0.124   1.757 -1.1419  1.5419 -0.3554
 7766TIP3   OH244788   5.839   2.499   1.441  0.4240  0.2105  0.4177
 7766TIP3    H144789   5.792   2.582   1.437  1.4366  0.7645 -2.0870
 7766TIP3    H244790   5.911   2.510   1.379  1.2567 -2.1505  0.8711
 7767TIP3   OH244791   3.988   6.006   2.243 -0.4617  0.4559  0.4028
 7767TIP3    H144792   4.076   6.020   2.277 -0.2777 -0.1586  0.1997
 7767TIP3    H244793   3.984   6.058   2.163 -0.1550  0.1963  0.2176
 7768TIP3   OH244794   6.007   2.918  14.810  0.1441  0.6847 -0.1238
 7768TIP3    H144795   5.990   2.854  14.741 -0.8891 -0.8578  1.4687
 7768TIP3    H244796   6.018   3.001  14.764 -0.8475 -0.2173 -2.1040
 7769TIP3   OH244797   5.957   1.202   3.594  0.4791  0.1151 -0.4093
 7769TIP3    H144798   5.944   1.284   3.546  0.9670  0.4378  0.0015
 7769TIP3    H244799   6.027   1.157   3.548 -0.4852 -0.5646 -1.2561
 7770TIP3   OH244800   1.158   4.259  15.563  0.0740  0.1680 -0.4024
 7770TIP3    H144801   1.125   4.323  15.625 -0.4426  1.6940 -2.1540
 7770TIP3    H244802   1.247   4.287  15.545  0.9622 -1.4965  1.1665
 7771TIP3   OH244803   3.002   6.074  13.895  0.2906 -0.2078 -0.0790
 7771TIP3    H144804   2.909   6.059  13.877 -0.2334  1.1674  1.2459
 7771TIP3    H244805   3.002   6.142  13.962  2.3120  1.9033 -2.0383
 7772TIP3   OH244806   4.105   1.408  13.947 -0.8289  0.4151 -0.2840
 7772TIP3    H144807   4.074   1.357  14.022 -1.9442 -1.1678 -1.7335
 7772TIP3    H244808   4.128   1.493  13.984 -0.2530 -0.6471  2.0205
 7773TIP3   OH244809   0.095   3.323   1.290 -0.0326 -0.2608 -0.4757
 7773TIP3    H144810   0.035   3.308   1.217  0.2449  0.5339 -0.8808
 7773TIP3    H244811   0.182   3.329   1.248  0.0834  0.5684 -0.1322
 7774TIP3   OH244812   5.109   6.064   5.114  0.1139 -0.0967  0.2049
 7774TIP3    H144813   5.198   6.046   5.147  0.2433 -1.2377 -0.6652
 7774TIP3    H244814   5.053   6.058   5.191  0.6532 -0.6231  0.5693
 7775TIP3   OH244815   5.960   2.079  13.646  0.2244  0.4914 -0.4520
 7775TIP3    H144816   6.051   2.073  13.677 -0.3506 -1.2085  1.1115
 7775TIP3    H244817   5.951   2.007  13.584  0.1729  1.2157 -1.2999
 7776TIP3   OH244818   3.643   1.376   2.123  0.6796 -0.7476 -0.0650
 7776TIP3    H144819   3.637   1.311   2.193  2.2536 -0.4852  0.3482
 7776TIP3    H244820   3.702   1.336   2.059  2.7164  0.7414  0.7829
 7777TIP3   OH244821   5.271   3.343  11.549 -0.3936 -0.4285 -0.3783
 7777TIP3    H144822   5.276   3.431  11.588 -0.4548 -0.7696  0.4154
 7777TIP3    H244823   5.181   3.336  11.518 -0.3057 -0.0992 -0.7113
 7778TIP3   OH244824   3.307   5.463  15.562 -0.5218  0.4635 -0.0449
 7778TIP3    H144825   3.384   5.425  15.605  0.0145 -0.1704 -1.5153
 7778TIP3    H244826   3.233   5.425  15.609  0.0353 -0.8810 -0.1902
 7779TIP3   OH244827   3.537   4.193  14.443  0.1942  0.6315 -0.0912
 7779TIP3    H144828   3.576   4.216  14.359  0.1819  1.0711  0.0244
 7779TIP3    H244829   3.587   4.116  14.472 -0.4472 -0.1337 -0.9588
 7780TIP3   OH244830   1.545   2.662  16.822 -0.7242  0.0874 -0.3210
 7780TIP3    H144831   1.576   2.753  16.814 -2.1338  0.7663  1.2765
 7780TIP3    H244832   1.471   2.668  16.882  0.3071 -2.3791  1.3617
 7781TIP3   OH244833   2.434   3.496   2.099 -0.0264  0.4519 -0.2837
 7781TIP3    H144834   2.348   3.468   2.132 -0.8659  0.7755 -2.0873
 7781TIP3    H244835   2.468   3.419   2.053 -0.1141  0.8398 -1.0052
 7782TIP3   OH244836   4.503   0.745  12.238  0.4482 -0.0879  0.0014
 7782TIP3    H144837   4.495   0.840  12.250  1.0165  0.2639 -2.0619
 7782TIP3    H244838   4.591   0.733  12.202  0.8788 -1.5595  1.4654
 7783TIP3   OH244839   2.539   3.668   2.295 -0.3436  0.5364  0.5271
 7783TIP3    H144840   2.627   3.673   2.259 -1.1421  0.8375 -1.5190
 7783TIP3    H244841   2.491   3.613   2.233 -1.8479  1.2267  1.0351
 7784TIP3   OH244842   3.484   2.360  15.299  0.6754  0.5393 -0.8992
 7784TIP3    H144843   3.444   2.306  15.230  1.7849  1.0056 -1.9437
 7784TIP3    H244844   3.499   2.444  15.257  0.1362  1.2749  0.3366
 7785TIP3   OH244845   6.006   3.571  14.732 -0.0821 -0.1735  0.3300
 7785TIP3    H144846   6.088   3.522  14.724  0.0606  0.1746 -0.4349
 7785TIP3    H244847   6.030   3.661  14.711 -0.6311 -0.0508  0.2215
 7786TIP3   OH244848   1.006   3.116   3.018  0.5288 -0.1591 -0.4043
 7786TIP3    H144849   1.061   3.194   3.005  0.0769  0.5171  1.4031
 7786TIP3    H244850   1.017   3.095   3.111 -1.5337 -0.5526 -0.2098
 7787TIP3   OH244851   6.734   2.507   5.500  0.0726 -0.5830 -0.6563
 7787TIP3    H144852   6.667   2.453   5.457  0.1402  0.4311 -2.1033
 7787TIP3    H244853   6.812   2.494   5.446  0.2715  0.4110 -0.6166
 7788TIP3   OH244854   2.710   3.553  13.038 -0.5807  0.0758 -0.2637
 7788TIP3    H144855   2.736   3.564  12.947  1.9527  1.4959  0.5159
 7788TIP3    H244856   2.678   3.463  13.043 -0.7478 -0.0400 -2.5267
 7789TIP3   OH244857   3.808   1.091  16.536 -0.1405 -0.0730 -0.2255
 7789TIP3    H144858   3.868   1.061  16.468  1.0691  1.3567  0.1658
 7789TIP3    H244859   3.858   1.084  16.617  0.7756  4.0704 -0.2282
 7790TIP3   OH244860   5.377   5.696   2.089  0.5186  0.7131  0.0127
 7790TIP3    H144861   5.310   5.753   2.127  0.2111  0.5505 -0.2815
 7790TIP3    H244862   5.429   5.754   2.033 -2.6894  0.0150 -4.2382
 7791TIP3   OH244863   3.369   0.320   2.865  0.6806  0.6601  0.1313
 7791TIP3    H144864   3.377   0.391   2.929 -0.1130 -0.1805  1.1954
 7791TIP3    H244865   3.443   0.263   2.882  0.3677  0.3396  0.4401
 7792TIP3   OH244866   3.351   3.438   1.295  0.4893  0.2319  0.0509
 7792TIP3    H144867   3.268   3.479   1.272  0.7403 -0.4018 -2.2838
 7792TIP3    H244868   3.329   3.375   1.364 -0.9422  0.1904 -0.4098
 7793TIP3   OH244869   3.947   5.386  12.067 -0.1439 -0.0720  0.2859
 7793TIP3    H144870   3.987   5.299  12.059 -0.0279 -0.1368  1.4638
 7793TIP3    H244871   3.856   5.372  12.040 -0.1893 -0.6153  0.6891
 7794TIP3   OH244872   2.588   3.043   2.504 -0.7939 -0.1157  0.4463
 7794TIP3    H144873   2.562   2.965   2.553 -0.5738  0.2172  1.1120
 7794TIP3    H244874   2.683   3.042   2.507 -0.7507 -0.5338 -0.7022
 7795TIP3   OH244875   1.109   4.562  13.608 -0.4340  0.1307  0.3888
 7795TIP3    H144876   1.175   4.582  13.541  0.1539  0.3310  1.0163
 7795TIP3    H244877   1.044   4.631  13.598  0.6877  1.3882  1.3596
 7796TIP3   OH244878   1.684   4.878  13.804  0.1535  0.1357  0.4904
 7796TIP3    H144879   1.666   4.808  13.740  0.7607  0.3673  0.0550
 7796TIP3    H244880   1.735   4.834  13.872 -0.1000 -0.0131  0.5836
 7797TIP3   OH244881   4.273   4.035  12.181 -0.8522 -0.3636 -0.0036
 7797TIP3    H144882   4.304   4.073  12.263 -2.0552  0.0930  0.2652
 7797TIP3    H244883   4.288   4.103  12.116 -1.4156 -0.0822  0.1548
 7798TIP3   OH244884   4.818   2.489  14.035 -0.3165 -0.2678  0.0273
 7798TIP3    H144885   4.822   2.505  13.941 -2.1452 -0.7932 -0.1791
 7798TIP3    H244886   4.726   2.503  14.058 -0.1013 -1.1246  1.5387
 7799TIP3   OH244887   0.482   6.392   5.526  0.0827  0.1808  0.9135
 7799TIP3    H144888   0.461   6.427   5.613 -0.2422  3.4352 -0.3203
 7799TIP3    H244889   0.577   6.401   5.518  0.0854  0.1087  0.8641
 7800TIP3   OH244890   0.456   1.805  15.694 -0.9286 -0.7551  0.1919
 7800TIP3    H144891   0.505   1.727  15.721 -0.8235 -1.1009 -0.9253
 7800TIP3    H244892   0.477   1.871  15.759  1.6590 -0.6580 -0.6468
 7801TIP3   OH244893   5.605   0.235  12.186 -0.4918  0.1993 -0.0203
 7801TIP3    H144894   5.642   0.315  12.224  0.2342  0.0615 -0.4043
 7801TIP3    H244895   5.592   0.177  12.261  1.2783 -0.2110  0.0131
 7802TIP3   OH244896   4.031   1.087  11.633  0.1155  0.0057  0.4252
 7802TIP3    H144897   4.084   1.144  11.577 -1.1589 -0.9597 -1.9240
 7802TIP3    H244898   3.954   1.141  11.653  0.3329  0.1734  0.8091
 7803TIP3   OH244899   4.491   4.014   1.053 -0.1227  0.4563  0.5197
 7803TIP3    H144900   4.460   3.933   1.012  0.9377  0.1996  0.1875
 7803TIP3    H244901   4.426   4.034   1.120  0.1214 -1.2508  1.3092
 7804TIP3   OH244902   6.262   4.516  10.535 -0.1807 -0.3136  0.2662
 7804TIP3    H144903   6.279   4.434  10.582  1.0836  0.1243  0.6283
 7804TIP3    H244904   6.257   4.582  10.603 -1.0159 -0.0561 -0.0395
 7805TIP3   OH244905   4.939   3.512  12.297 -0.1708  0.5271 -0.4031
 7805TIP3    H144906   5.009   3.485  12.357 -0.5193  0.5118 -0.0046
 7805TIP3    H244907   4.861   3.519  12.352 -0.3945  0.9503 -0.7701
 7806TIP3   OH244908   1.450   0.307   5.810 -0.2877 -0.2688 -0.0888
 7806TIP3    H144909   1.491   0.249   5.874 -1.6821  0.3507  1.4709
 7806TIP3    H244910   1.386   0.357   5.862  0.0602  1.8302 -1.5758
 7807TIP3   OH244911   3.766   2.679   5.031  0.1137 -0.6181 -0.1643
 7807TIP3    H144912   3.818   2.754   5.001 -0.4863  0.0133  0.3415
 7807TIP3    H244913   3.681   2.717   5.054 -0.3087 -1.5174 -0.2309
 7808TIP3   OH244914   1.987   0.502  14.679 -0.1535  0.5046  0.1305
 7808TIP3    H144915   2.022   0.573  14.626  2.3990  0.2572  1.3424
 7808TIP3    H244916   1.929   0.546  14.742  0.3218  1.3561 -0.0104
 7809TIP3   OH244917   2.297   0.822   1.093  0.2241  0.3202  0.1200
 7809TIP3    H144918   2.375   0.812   1.147  0.2052  1.0151  0.2805
 7809TIP3    H244919   2.294   0.742   1.041  0.6235 -0.0479  0.6515
 7810TIP3   OH244920   4.521   2.559  15.787 -0.1922 -0.2522  0.0418
 7810TIP3    H144921   4.448   2.518  15.742  0.6777 -1.7802 -0.0289
 7810TIP3    H244922   4.480   2.625  15.844 -1.6758 -1.4756  0.4452
 7811TIP3   OH244923   4.098   5.562   1.402  0.6559  0.0573  0.3955
 7811TIP3    H144924   4.183   5.601   1.422  1.3629  0.0276 -2.1688
 7811TIP3    H244925   4.119   5.484   1.350 -0.9059  0.2903 -0.6572
 7812TIP3   OH244926   4.878   0.713   0.616 -0.2164  0.1632  0.4742
 7812TIP3    H144927   4.800   0.693   0.668  0.6898 -0.4770  1.6477
 7812TIP3    H244928   4.897   0.805   0.636  0.8365 -0.4062  2.3357
 7813TIP3   OH244929   1.252   0.349  12.129 -0.2120 -0.2441  0.5197
 7813TIP3    H144930   1.271   0.391  12.213 -0.8794  1.4910 -0.1385
 7813TIP3    H244931   1.201   0.272  12.151 -1.2184  0.7158  1.6890
 7814TIP3   OH244932   1.775   3.113  11.473  0.0778 -0.5046 -0.1845
 7814TIP3    H144933   1.750   3.205  11.482  0.2712 -0.5550  0.9622
 7814TIP3    H244934   1.759   3.093  11.380 -1.6368  0.1813 -0.0772
 7815TIP3   OH244935   0.031   1.327  11.576  0.1124  0.1395  0.2357
 7815TIP3    H144936   0.110   1.293  11.620  0.8437  0.8143 -0.5392
 7815TIP3    H244937   0.053   1.328  11.483 -1.3404 -1.0327 -0.1609
 7816TIP3   OH244938   2.459   0.770  17.014 -0.5090  0.0482  0.0646
 7816TIP3    H144939   2.486   0.691  17.061  0.3368  0.7580  0.7984
 7816TIP3    H244940   2.520   0.776  16.941 -0.2604  0.2911  0.2915
 7817TIP3   OH244941   4.533   1.517  14.664  0.3162 -0.1543  0.8534
 7817TIP3    H144942   4.582   1.514  14.581  2.1146  0.7244  1.8094
 7817TIP3    H244943   4.468   1.586  14.651 -1.0948 -1.6615 -0.6099
 7818TIP3   OH244944   3.813   5.154  14.966  0.4025 -0.0373  0.0453
 7818TIP3    H144945   3.771   5.125  14.885  0.1105  1.2905 -0.3145
 7818TIP3    H244946   3.744   5.149  15.032  0.5509 -0.8106  0.1493
 7819TIP3   OH244947   0.142   2.252   4.140  0.9470 -0.7464  0.2876
 7819TIP3    H144948   0.172   2.327   4.089  1.9129 -2.2304 -1.4505
 7819TIP3    H244949   0.066   2.284   4.188  1.0672  1.2072 -0.7386
 7820TIP3   OH244950   4.224   5.906   3.635 -0.2108 -0.5166 -0.5210
 7820TIP3    H144951   4.212   5.934   3.544 -1.4169 -0.1968 -0.2930
 7820TIP3    H244952   4.278   5.827   3.629  0.1201 -0.2347 -1.4764
 7821TIP3   OH244953   5.457   5.173   6.230  0.0399  0.3930 -0.5814
 7821TIP3    H144954   5.467   5.248   6.172 -0.5918  0.7428 -0.2565
 7821TIP3    H244955   5.544   5.158   6.267  0.2340  0.7700 -0.8898
 7822TIP3   OH244956   4.589   4.483   3.358 -0.1486  0.4564  0.3024
 7822TIP3    H144957   4.578   4.472   3.263 -1.0212 -2.5115  0.6528
 7822TIP3    H244958   4.501   4.469   3.394  0.7326 -2.2557  1.7131
 7823TIP3   OH244959   0.318   1.524  15.542 -0.1189  0.1006  0.1103
 7823TIP3    H144960   0.307   1.606  15.493  1.8807  0.0539 -0.5226
 7823TIP3    H244961   0.357   1.552  15.625 -0.1104 -0.1381  0.1854
 7824TIP3   OH244962   4.187   0.900  14.781  0.5300  0.2547  0.5041
 7824TIP3    H144963   4.139   0.907  14.698 -0.8570 -0.3512  1.2396
 7824TIP3    H244964   4.227   0.813  14.777 -0.9127 -0.4724  1.1592
 7825TIP3   OH244965   1.591   4.506   6.630 -0.1562 -0.5821 -0.0211
 7825TIP3    H144966   1.584   4.433   6.692 -0.4825 -1.3413 -0.9321
 7825TIP3    H244967   1.592   4.465   6.544 -1.2324  0.5436 -0.5980
 7826TIP3   OH244968   6.740   5.701   1.080  0.2764 -0.0535  0.7906
 7826TIP3    H144969   6.754   5.700   1.175 -0.6948  0.3560  0.9494
 7826TIP3    H244970   6.762   5.613   1.052 -0.1551 -0.4077  1.5187
 7827TIP3   OH244971   6.646   6.693  13.279 -0.1071 -0.2709 -0.7752
 7827TIP3    H144972   6.675   6.760  13.217  0.3705  1.9854  1.7169
 7827TIP3    H244973   6.629   6.741  13.360 -0.9897 -3.0215  0.7897
 7828TIP3   OH244974   0.072   3.393   2.071  0.3649  0.2688 -0.2606
 7828TIP3    H144975   0.091   3.422   1.982  0.5827  0.7304 -0.0684
 7828TIP3    H244976  -0.013   3.430   2.091  0.1069 -0.2132 -0.4334
 7829TIP3   OH244977   3.503   5.020  15.977 -0.2838  0.2416  0.8284
 7829TIP3    H144978   3.566   4.958  15.940 -0.8593  0.1632 -0.0416
 7829TIP3    H244979   3.471   4.977  16.057 -1.3187 -1.0144 -0.2055
 7830TIP3   OH244980   1.940   1.004   5.173 -0.5818 -0.0900  0.1626
 7830TIP3    H144981   1.924   1.020   5.266  1.4672  0.6464  0.4539
 7830TIP3    H244982   1.997   0.927   5.172  0.9823  1.0352 -0.3172
 7831TIP3   OH244983   5.910   2.803   4.352 -0.5459 -0.0969 -0.4604
 7831TIP3    H144984   5.945   2.770   4.270 -1.0564 -0.5155 -0.5155
 7831TIP3    H244985   5.973   2.774   4.418  0.0846  0.6016 -0.7432
 7832TIP3   OH244986   4.362   4.308   4.577  0.7579  0.2245 -0.3110
 7832TIP3    H144987   4.323   4.367   4.512 -0.9239 -1.8357 -1.2865
 7832TIP3    H244988   4.297   4.239   4.589  2.9644 -1.9073  0.1338
 7833TIP3   OH244989   1.509   4.019   2.816  0.2721 -0.3143  0.3385
 7833TIP3    H144990   1.435   4.052   2.867  0.1439 -0.7024  0.4068
 7833TIP3    H244991   1.518   3.927   2.843 -0.6771 -0.9499 -1.3079
 7834TIP3   OH244992   0.648   6.815   3.425 -0.0188  0.1521 -0.1424
 7834TIP3    H144993   0.684   6.863   3.351  1.0500  1.6182  1.2715
 7834TIP3    H244994   0.724   6.797   3.481 -0.7453 -1.2522  0.4411
 7835TIP3   OH244995   0.155   6.602  13.914 -0.4032  0.4817 -0.5479
 7835TIP3    H144996   0.158   6.508  13.929  1.6370  0.5498 -0.1584
 7835TIP3    H244997   0.150   6.640  14.002  0.2215  0.7471 -0.6225
 7836TIP3   OH244998   6.649   4.073  11.780  0.6296  0.1861  0.3849
 7836TIP3    H144999   6.556   4.060  11.800  0.5157 -0.1192 -0.2852
 7836TIP3    H245000   6.676   4.145  11.836 -0.4780  1.4741 -0.6522
 7837TIP3   OH245001   0.982   4.287   3.847 -0.5091 -0.1788  0.1102
 7837TIP3    H145002   1.063   4.335   3.827 -1.2342  0.8787 -0.3602
 7837TIP3    H245003   0.994   4.202   3.806  0.5701 -0.2249  0.4730
 7838TIP3   OH245004   2.279   2.911  16.150 -0.0727 -0.1045 -0.1336
 7838TIP3    H145005   2.374   2.907  16.162 -0.1322  0.0284  0.3792
 7838TIP3    H245006   2.268   2.956  16.066  0.3201 -0.3161 -0.3029
 7839TIP3   OH245007   3.239   4.632  15.518  0.1284  0.0926  0.3280
 7839TIP3    H145008   3.310   4.674  15.567 -0.0200  1.2753 -0.4078
 7839TIP3    H245009   3.223   4.550  15.563  1.2513  0.2973  1.1343
 7840TIP3   OH245010   2.937   6.291   2.726  0.2233 -0.4536 -0.1016
 7840TIP3    H145011   2.909   6.342   2.802 -1.1053 -1.8016  0.3813
 7840TIP3    H245012   3.011   6.239   2.758  0.8076  0.2514 -0.2634
 7841TIP3   OH245013   2.867   3.292   3.626 -0.1774  0.8243  0.7241
 7841TIP3    H145014   2.900   3.228   3.563 -0.8544  0.2691  0.9205
 7841TIP3    H245015   2.945   3.328   3.667  0.2061 -0.4320  1.1558
 7842TIP3   OH245016   6.009   6.230  12.214 -0.2717  0.2183 -0.5483
 7842TIP3    H145017   5.950   6.251  12.142  0.0791  0.1026 -0.8730
 7842TIP3    H245018   5.971   6.153  12.256 -0.8386  0.6852 -0.1899
 7843TIP3   OH245019   5.226   4.883  11.505  0.1871  0.0158  0.3794
 7843TIP3    H145020   5.201   4.880  11.598 -1.0481  0.0880  0.0661
 7843TIP3    H245021   5.185   4.806  11.466 -2.7397  2.0253 -0.8599
 7844TIP3   OH245022   5.991   6.281  14.810 -0.2887  0.1283  0.3045
 7844TIP3    H145023   6.014   6.364  14.769  1.2542 -0.1238  0.5960
 7844TIP3    H245024   6.047   6.216  14.767 -2.6657 -1.1035 -1.1325
 7845TIP3   OH245025   4.449   0.416  13.026  0.4626 -0.4293 -0.0038
 7845TIP3    H145026   4.369   0.433  13.075  0.3736 -1.9729  0.4305
 7845TIP3    H245027   4.425   0.346  12.965  1.3386 -0.5230 -0.2525
 7846TIP3   OH245028   4.057   2.477  11.383  0.0513  0.8644  0.2851
 7846TIP3    H145029   3.985   2.437  11.432  0.5657 -0.5776 -0.0610
 7846TIP3    H245030   4.058   2.429  11.299  0.5932  1.7511 -0.2312
 7847TIP3   OH245031   3.091   5.401   0.127  1.2048  0.4614  0.2122
 7847TIP3    H145032   3.103   5.475   0.187  1.8102  0.7197 -0.2274
 7847TIP3    H245033   3.165   5.406   0.067  0.4068  0.4277 -0.8038
 7848TIP3   OH245034   4.963   0.095   5.811 -0.0791 -0.0280  0.0579
 7848TIP3    H145035   4.997   0.158   5.874  1.4056 -1.2809  0.5511
 7848TIP3    H245036   5.033   0.084   5.747 -0.6282 -0.5967 -0.4607
 7849TIP3   OH245037   6.187   5.434  15.873  0.3865 -0.3929  0.5859
 7849TIP3    H145038   6.125   5.414  15.803  1.6177  1.3143 -1.1183
 7849TIP3    H245039   6.237   5.353  15.885 -0.5404 -1.0299  0.2273
 7850TIP3   OH245040   5.017   1.192  16.600 -0.1821 -0.8610  0.0164
 7850TIP3    H145041   4.973   1.268  16.562  0.3183 -0.1581  0.8208
 7850TIP3    H245042   4.945   1.137  16.632 -0.5494 -0.7723 -0.6376
 7851TIP3   OH245043   0.586   2.654  16.728 -0.0997  0.7539  0.4076
 7851TIP3    H145044   0.613   2.563  16.716 -0.4496  0.9525 -2.8416
 7851TIP3    H245045   0.492   2.648  16.748  0.4668  0.3741  3.3121
 7852TIP3   OH245046   0.891   4.725  15.263  0.0816  0.3352  0.5448
 7852TIP3    H145047   0.906   4.630  15.263  0.8045  0.4264  1.8617
 7852TIP3    H245048   0.978   4.763  15.274 -0.0485  1.2229 -1.1333
 7853TIP3   OH245049   1.967   4.898  14.103  0.4207 -0.2417  0.0883
 7853TIP3    H145050   2.031   4.843  14.150  0.6794  0.5315  0.6589
 7853TIP3    H245051   1.918   4.836  14.049  0.9070 -0.9987  0.4901
 7854TIP3   OH245052   4.878   2.372  16.392 -0.0953  0.1084 -0.6868
 7854TIP3    H145053   4.907   2.285  16.364 -1.3674 -1.3118  1.9793
 7854TIP3    H245054   4.784   2.362  16.407 -0.0546  1.5517  0.8558
 7855TIP3   OH245055   4.712   1.854  11.924 -0.9040 -0.3205 -0.1969
 7855TIP3    H145056   4.766   1.902  11.988 -0.1694 -0.5472 -0.6323
 7855TIP3    H245057   4.671   1.785  11.976  0.0637 -0.7987 -0.0322
 7856TIP3   OH245058   4.537   1.032  12.316  0.1280  0.4233 -0.5696
 7856TIP3    H145059   4.632   1.039  12.306  0.4118 -2.7144 -0.8741
 7856TIP3    H245060   4.522   1.042  12.410  0.7853  0.5063 -0.4673
 7857TIP3   OH245061   4.618   6.835  14.821  0.3370 -0.0688  0.1928
 7857TIP3    H145062   4.603   6.818  14.728  0.8738  4.4198 -0.9581
 7857TIP3    H245063   4.713   6.830  14.831  0.2785 -0.5593  0.5301
 7858TIP3   OH245064   6.096   1.538   1.374  0.1074 -0.3866 -0.2355
 7858TIP3    H145065   6.045   1.563   1.452 -0.0150 -0.7535 -0.1962
 7858TIP3    H245066   6.149   1.616   1.355 -1.5444  0.5693 -1.1713
 7859TIP3   OH245067   0.426   6.225   4.804 -0.0650  0.2804 -0.0453
 7859TIP3    H145068   0.510   6.244   4.763  0.6736 -1.8335  0.3631
 7859TIP3    H245069   0.368   6.205   4.731  0.4873 -0.7068 -0.2354
 7860TIP3   OH245070   4.174   1.375   3.976  0.0502 -0.7540  0.1837
 7860TIP3    H145071   4.129   1.393   4.059  0.2008 -2.4627  0.6627
 7860TIP3    H245072   4.155   1.452   3.922  0.3129  0.6062  1.9368
 7861TIP3   OH245073   2.494   2.742   0.550  0.6457  0.5390 -0.4094
 7861TIP3    H145074   2.577   2.772   0.512  0.5664  0.6700 -0.4799
 7861TIP3    H245075   2.427   2.775   0.491  0.4875  1.1810  0.1235
 7862TIP3   OH245076   2.681   6.435   2.078 -0.3707  0.3795 -0.1811
 7862TIP3    H145077   2.748   6.442   2.010 -2.3848 -0.5987 -2.4245
 7862TIP3    H245078   2.705   6.356   2.127 -0.1726 -0.3189 -1.3558
 7863TIP3   OH245079   5.911   5.628  16.607 -0.4097  0.0211  0.2251
 7863TIP3    H145080   5.986   5.572  16.629  0.1867  1.0325  0.8124
 7863TIP3    H245081   5.906   5.692  16.678 -1.4570  0.3565 -0.1262
 7864TIP3   OH245082   5.383   3.410   1.851  0.0957 -0.5129 -0.2412
 7864TIP3    H145083   5.321   3.350   1.892 -1.1792  0.3963 -0.7578
 7864TIP3    H245084   5.451   3.423   1.917 -2.3591  1.6907  2.1157
 7865TIP3   OH245085   6.091   6.246   4.921  0.8849 -0.0401 -0.5962
 7865TIP3    H145086   6.120   6.286   5.003  0.4914 -0.3023 -0.3267
 7865TIP3    H245087   6.155   6.276   4.856  0.2652  1.5097 -0.5281
 7866TIP3   OH245088   0.488   2.375   3.747  0.0740  0.0857 -0.0689
 7866TIP3    H145089   0.569   2.336   3.714 -0.8363 -1.0901 -1.0336
 7866TIP3    H245090   0.426   2.367   3.674 -1.4540 -0.7836  1.2491
 7867TIP3   OH245091   2.444   1.062   4.634  0.5142  0.0262 -0.2959
 7867TIP3    H145092   2.512   1.117   4.673  1.3495 -0.5675 -0.8974
 7867TIP3    H245093   2.455   1.073   4.540 -0.1533 -0.1746 -0.4038
 7868TIP3   OH245094   2.990   0.516  15.559 -0.1070 -0.1736 -0.9375
 7868TIP3    H145095   2.994   0.600  15.604  0.8684 -0.6320 -0.1413
 7868TIP3    H245096   3.064   0.519  15.497  2.4009 -1.8572  1.7077
 7869TIP3   OH245097   4.398   1.361  15.514  0.1234 -0.2371  0.4263
 7869TIP3    H145098   4.395   1.298  15.587  1.2877  0.4115  1.0728
 7869TIP3    H245099   4.442   1.438  15.551 -0.2513  0.5251 -0.6686
 7870TIP3   OH245100   2.080   3.513  13.238 -0.2865 -0.1874  0.0685
 7870TIP3    H145101   2.031   3.432  13.224  0.7013 -0.8069  0.1123
 7870TIP3    H245102   2.107   3.508  13.330 -0.2525  0.2097  0.0786
 7871TIP3   OH245103   2.485   0.373  14.845  0.4010 -0.1499 -0.0418
 7871TIP3    H145104   2.443   0.376  14.759  1.0898  2.3570 -0.3650
 7871TIP3    H245105   2.427   0.318  14.898 -0.4895 -1.0393 -1.8405
 7872TIP3   OH245106   5.618   3.812   1.308 -0.2186  0.2089 -0.0053
 7872TIP3    H145107   5.679   3.748   1.345 -1.6774  0.2337  2.6688
 7872TIP3    H245108   5.547   3.759   1.271 -0.7368  0.2288  0.9383
 7873TIP3   OH245109   5.484   1.375  11.476  0.0312  0.2170 -0.1384
 7873TIP3    H145110   5.455   1.466  11.474  0.7909  0.4774  0.3526
 7873TIP3    H245111   5.564   1.376  11.529 -0.5890 -0.9195  0.8742
 7874TIP3   OH245112   0.839   3.368  11.023  0.3075  0.3844  0.7965
 7874TIP3    H145113   0.836   3.281  10.982 -0.9031 -0.2678  2.1865
 7874TIP3    H245114   0.886   3.354  11.105  0.9723  1.2713  0.5839
 7875TIP3   OH245115   4.937   6.662  13.627 -0.3478  0.2746 -0.0266
 7875TIP3    H145116   4.967   6.748  13.658  0.3038 -0.0653  0.3055
 7875TIP3    H245117   5.015   6.606  13.634  0.2362  0.4526 -3.4815
 7876TIP3   OH245118   5.139   3.623   3.590 -0.6424 -0.2531 -0.0285
 7876TIP3    H145119   5.076   3.690   3.561 -1.2046 -0.6610  0.2242
 7876TIP3    H245120   5.111   3.601   3.679  0.3927  0.1845  0.4225
 7877TIP3   OH245121   4.165   2.604  15.400  0.0300  0.2231  0.5490
 7877TIP3    H145122   4.251   2.646  15.400 -0.8043  2.0361  1.0313
 7877TIP3    H245123   4.125   2.630  15.483 -0.4119 -1.8902  1.0540
 7878TIP3   OH245124   6.049   2.980  13.262 -0.1367  0.2933  0.4296
 7878TIP3    H145125   5.992   3.049  13.296  0.2475  0.0203  1.6890
 7878TIP3    H245126   6.067   2.925  13.338  0.7740 -0.3424 -0.2282
 7879TIP3   OH245127   0.689   1.456  14.567  0.0783 -0.0700  0.8472
 7879TIP3    H145128   0.672   1.547  14.544  0.7564 -0.0584  0.3388
 7879TIP3    H245129   0.616   1.407  14.529  0.5765  0.0824 -0.3631
 7880TIP3   OH245130   3.932   3.320  14.731 -0.4777  0.5036  0.1361
 7880TIP3    H145131   3.924   3.226  14.715 -2.3479  0.0831  2.9074
 7880TIP3    H245132   3.861   3.359  14.680 -0.3381  0.3156 -0.2038
 7881TIP3   OH245133   4.637   5.600   0.865 -0.1250  0.2252 -0.6550
 7881TIP3    H145134   4.566   5.607   0.802 -1.4282 -0.2162  0.7094
 7881TIP3    H245135   4.675   5.688   0.869 -0.6465  0.4863 -1.3400
 7882TIP3   OH245136   0.397   6.227   2.608  0.6995 -0.1555 -0.0216
 7882TIP3    H145137   0.400   6.153   2.547 -0.6254 -0.9022  0.7909
 7882TIP3    H245138   0.419   6.302   2.554  1.7101 -1.0754 -0.9533
 7883TIP3   OH245139   0.896   5.213   2.613  0.6489  0.2943  1.0529
 7883TIP3    H145140   0.905   5.149   2.683  1.3631 -0.6367  0.1329
 7883TIP3    H245141   0.985   5.234   2.587  0.4261 -0.8751 -0.8813
 7884TIP3   OH245142   3.759   2.611  15.591  0.3203  0.1410 -0.0841
 7884TIP3    H145143   3.727   2.695  15.557  3.9499  1.8200  0.1414
 7884TIP3    H245144   3.813   2.576  15.520 -4.3005 -4.4128 -1.9643
 7885TIP3   OH245145   5.320   3.691   4.830 -0.1164  0.7740  0.1234
 7885TIP3    H145146   5.397   3.745   4.813  0.0959  0.4595  0.0827
 7885TIP3    H245147   5.253   3.726   4.770  1.0362 -1.2471 -2.5900
 7886TIP3   OH245148   0.587   3.783  12.722  0.0344 -0.5394 -0.2921
 7886TIP3    H145149   0.556   3.742  12.803  1.4332 -1.2706 -0.0902
 7886TIP3    H245150   0.674   3.745  12.708  0.7413  1.2176 -0.9647
 7887TIP3   OH245151   0.994   1.559  17.092  0.3041 -0.5501  0.2720
 7887TIP3    H145152   0.930   1.528  17.027  0.3112  0.6442 -0.3442
 7887TIP3    H245153   1.068   1.499  17.083  0.1278 -0.6688 -0.5377
 7888TIP3   OH245154   4.320   3.721  14.279  0.0647  0.2104  0.4706
 7888TIP3    H145155   4.342   3.695  14.189  0.5927 -0.6714  0.8352
 7888TIP3    H245156   4.362   3.806  14.290  0.9825 -0.1883  0.2331
 7889TIP3   OH245157   4.992   5.136   2.239  0.3200  0.1854  0.1776
 7889TIP3    H145158   4.950   5.130   2.153 -2.1041  1.2371  1.1856
 7889TIP3    H245159   4.950   5.068   2.291 -0.4714  1.5016  1.3230
 7890TIP3   OH245160   3.317   3.011   1.877 -0.0996  0.2460  0.0892
 7890TIP3    H145161   3.402   3.020   1.919 -0.6619 -0.2564  1.4033
 7890TIP3    H245162   3.258   3.066   1.930 -0.6498  0.3177 -0.5881
 7891TIP3   OH245163   3.676   0.783  13.282 -0.3808 -0.3282  0.2054
 7891TIP3    H145164   3.590   0.745  13.267 -0.9524  1.2256 -0.6642
 7891TIP3    H245165   3.712   0.733  13.355 -1.0651 -2.5056 -0.8658
 7892TIP3   OH245166   4.301   0.095  11.683 -0.1347 -0.2631 -0.3457
 7892TIP3    H145167   4.252   0.046  11.617 -0.0281 -1.1795  0.2405
 7892TIP3    H245168   4.393   0.081  11.659  0.0231 -2.4581  1.2140
 7893TIP3   OH245169   4.943   3.372  16.355  0.6871 -0.1717  0.3300
 7893TIP3    H145170   4.981   3.348  16.270 -0.4972 -0.5398 -0.1212
 7893TIP3    H245171   4.897   3.454  16.338  1.1288  0.1802  0.8207
 7894TIP3   OH245172   4.414   5.790   3.071 -0.4198  0.5127  0.8038
 7894TIP3    H145173   4.367   5.873   3.081 -2.0248 -0.3717  1.0823
 7894TIP3    H245174   4.354   5.735   3.020  0.6380 -0.4467  0.5608
 7895TIP3   OH245175   6.510   4.769  11.151  0.3639 -0.0218  0.9739
 7895TIP3    H145176   6.468   4.707  11.091 -0.3430  0.5381  0.8737
 7895TIP3    H245177   6.599   4.736  11.162  0.5955  0.0314 -0.6050
 7896TIP3   OH245178   1.740   6.755  15.927 -0.7693 -0.0308  0.0979
 7896TIP3    H145179   1.648   6.775  15.943 -0.7226  1.4312 -1.1987
 7896TIP3    H245180   1.787   6.805  15.994 -0.8734 -0.1176  0.2371
 7897TIP3   OH245181   2.090   2.694  14.255  0.0749  0.5606 -0.0122
 7897TIP3    H145182   2.056   2.731  14.337  1.7504 -0.0473  1.0244
 7897TIP3    H245183   2.106   2.602  14.275  2.5826  0.8603 -0.2522
 7898TIP3   OH245184   3.146   3.696  16.766 -0.2139  0.0398  0.2092
 7898TIP3    H145185   3.105   3.771  16.724 -0.1927  0.1194  0.3301
 7898TIP3    H245186   3.078   3.660  16.823 -0.0020  0.3919  0.6905
 7899TIP3   OH245187   0.335   5.933  14.276 -0.1902 -0.5642  0.2336
 7899TIP3    H145188   0.338   5.889  14.190  3.6320  0.3870 -0.2706
 7899TIP3    H245189   0.291   6.016  14.258  0.9525 -0.1782 -0.9653
 7900TIP3   OH245190   4.428   1.257  14.673  0.1658  0.4984 -0.1956
 7900TIP3    H145191   4.516   1.294  14.663  0.6069 -0.2298  0.8525
 7900TIP3    H245192   4.369   1.327  14.645  1.0688  0.9613 -1.0226
 7901TIP3   OH245193   3.304   6.122  12.317 -0.2071  0.0915  0.6567
 7901TIP3    H145194   3.209   6.116  12.329 -0.1719  0.3419  1.0829
 7901TIP3    H245195   3.321   6.074  12.236 -0.4922 -1.4073  1.4377
 7902TIP3   OH245196   6.726   5.606   3.639  0.2582  0.3405 -0.0379
 7902TIP3    H145197   6.809   5.652   3.633  0.0508  0.6985 -0.2471
 7902TIP3    H245198   6.663   5.674   3.665  0.1120 -0.0200  0.5771
 7903TIP3   OH245199   5.477   5.750   0.258  0.1082  0.2725  0.2443
 7903TIP3    H145200   5.567   5.757   0.226  0.3561 -0.9715  0.5880
 7903TIP3    H245201   5.454   5.658   0.243 -0.3440  0.0454  2.0736
 7904TIP3   OH245202   5.013   2.889  10.922 -0.3480 -0.0396  0.1711
 7904TIP3    H145203   4.986   2.946  10.850 -0.2610 -1.5718 -1.1272
 7904TIP3    H245204   5.108   2.895  10.924 -0.3525  0.0309  0.1888
 7905TIP3   OH245205   1.677   6.164  14.009  0.3113 -0.2760 -0.0296
 7905TIP3    H145206   1.674   6.216  13.929  0.4315  0.6025  0.5208
 7905TIP3    H245207   1.692   6.074  13.979  0.4372  0.0527 -0.9812
 7906TIP3   OH245208   3.205   5.596  14.061  0.5766 -0.2755 -0.1981
 7906TIP3    H145209   3.140   5.635  14.002  0.3665  1.6934  1.2186
 7906TIP3    H245210   3.289   5.628  14.028  0.4930  0.4462  0.2572
 7907TIP3   OH245211   3.505   1.995  11.693 -0.2690 -0.1121 -0.0794
 7907TIP3    H145212   3.410   1.992  11.704 -0.5166 -0.0086 -1.8908
 7907TIP3    H245213   3.526   1.913  11.649  0.5894 -0.4445  0.9218
 7908TIP3   OH245214   2.271   1.556   4.144  0.6747  0.2206 -0.2515
 7908TIP3    H145215   2.288   1.528   4.234 -1.1861 -1.8590 -0.4701
 7908TIP3    H245216   2.182   1.591   4.147  0.5094 -0.0873 -1.3210
 7909TIP3   OH245217   4.055   2.628  15.644 -0.2263 -0.2334  0.3450
 7909TIP3    H145218   4.038   2.535  15.663 -2.3300 -0.4093 -1.9357
 7909TIP3    H245219   3.997   2.676  15.703 -0.5616 -0.4664  0.2103
 7910TIP3   OH245220   3.288   1.822  14.048 -0.5299  0.2419 -0.1632
 7910TIP3    H145221   3.342   1.767  13.993 -0.6985  0.2030 -0.2906
 7910TIP3    H245222   3.350   1.868  14.105 -0.4542 -0.9472  0.7479
 7911TIP3   OH245223   1.313   2.045  13.393 -0.4670  0.7419  0.1015
 7911TIP3    H145224   1.228   2.009  13.368  0.0420 -0.2973 -0.1959
 7911TIP3    H245225   1.312   2.045  13.489 -1.2521  1.8853  0.1162
 7912TIP3   OH245226   2.055   6.471  12.530 -0.1515 -0.5118 -0.1467
 7912TIP3    H145227   2.014   6.442  12.611  0.7371 -2.5561 -0.3686
 7912TIP3    H245228   1.989   6.456  12.462 -0.5205  0.2282  0.0346
 7913TIP3   OH245229   3.616   1.199  12.483 -0.5435 -0.2956 -0.4777
 7913TIP3    H145230   3.569   1.280  12.502  0.2873  0.2463 -0.6558
 7913TIP3    H245231   3.557   1.129  12.510 -0.7118  0.3952  1.0386
 7914TIP3   OH245232   5.509   1.597  11.263  0.5962 -0.6829 -0.3367
 7914TIP3    H145233   5.473   1.618  11.350  0.0051  0.4456 -0.8239
 7914TIP3    H245234   5.529   1.682  11.225 -1.2427 -0.9819 -2.1602
 7915TIP3   OH245235   3.384   3.677  13.132 -0.8832  0.0127 -0.2147
 7915TIP3    H145236   3.465   3.638  13.165  0.0310  2.1803  0.2931
 7915TIP3    H245237   3.318   3.608  13.143  0.8201 -1.7381 -0.4326
 7916TIP3   OH245238   1.476   1.725  10.894  0.0099 -0.2176 -0.2795
 7916TIP3    H145239   1.451   1.634  10.876 -0.3864  0.1310 -1.6008
 7916TIP3    H245240   1.425   1.777  10.832 -2.1973  1.2343  2.5318
 7917TIP3   OH245241   1.393   6.797  15.198  0.3428 -0.0035  0.1937
 7917TIP3    H145242   1.482   6.763  15.185  0.9575  0.6249  2.3672
 7917TIP3    H245243   1.399   6.850  15.277 -1.8788  0.4841  0.0986
 7918TIP3   OH245244   1.788   3.699  11.016  0.2436  0.3527  0.6718
 7918TIP3    H145245   1.865   3.751  11.039 -0.5597  1.8364  0.1017
 7918TIP3    H245246   1.818   3.640  10.948  1.2203 -0.0882  1.4585
 7919TIP3   OH245247   2.518   3.192  13.968 -0.3909  0.3367  0.3696
 7919TIP3    H145248   2.423   3.196  13.977 -0.3910 -2.3892  3.4724
 7919TIP3    H245249   2.551   3.247  14.040  0.2377 -1.2498  1.3604
 7920TIP3   OH245250   0.240   4.473  11.447 -0.0269 -0.9422  0.0129
 7920TIP3    H145251   0.239   4.555  11.398  1.1191 -1.8414 -1.5926
 7920TIP3    H245252   0.153   4.467  11.485 -0.4134  0.5925 -0.5535
 7921TIP3   OH245253   1.568   5.408   2.690  0.7186 -0.0815 -0.0308
 7921TIP3    H145254   1.602   5.484   2.737 -0.1715  0.1737  0.2266
 7921TIP3    H245255   1.476   5.402   2.718  0.8625 -1.4377  0.1953
 7922TIP3   OH245256   6.833   0.905  14.139  0.0910 -0.0990 -0.4611
 7922TIP3    H145257   6.802   0.993  14.118  0.8705  0.3911  0.3784
 7922TIP3    H245258   6.755   0.850  14.133 -0.6506  0.8494  0.1478
 7923TIP3   OH245259   4.573   3.379  15.895 -0.6766  0.5936 -0.4140
 7923TIP3    H145260   4.582   3.448  15.961 -1.6881  2.3328 -1.9770
 7923TIP3    H245261   4.638   3.402  15.828 -1.8166  0.7396 -1.5053
 7924TIP3   OH245262   5.511   0.963  14.735 -0.7491 -0.7493  0.1681
 7924TIP3    H145263   5.458   1.042  14.751 -1.6022 -1.7436  2.7015
 7924TIP3    H245264   5.601   0.992  14.748 -0.9380  0.0876 -0.2704
 7925TIP3   OH245265   0.766   5.359  12.614  0.2003 -0.0551  0.5462
 7925TIP3    H145266   0.730   5.444  12.588  0.6768  0.3296  1.1199
 7925TIP3    H245267   0.783   5.314  12.530  0.4881  0.6467  0.2219
 7926TIP3   OH245268   1.971   0.493  14.190  0.1193  0.2018  0.2651
 7926TIP3    H145269   1.920   0.567  14.224 -0.7587  1.2088 -2.8664
 7926TIP3    H245270   2.062   0.519  14.201 -0.0111 -0.2156  3.0330
 7927TIP3   OH245271   4.382   1.085  14.157  0.6553  0.4424 -0.0651
 7927TIP3    H145272   4.360   1.001  14.197  0.4487  0.7153  0.3949
 7927TIP3    H245273   4.368   1.150  14.226  2.6647  0.6705  0.1928
 7928TIP3   OH245274   5.462   1.363  16.205  0.1121 -0.3134  0.2662
 7928TIP3    H145275   5.534   1.412  16.246  0.4708  0.0953 -0.8045
 7928TIP3    H245276   5.506   1.288  16.164 -0.2960 -0.9457  0.9570
 7929TIP3   OH245277   2.920   2.791  11.141 -0.3214  0.2723  0.8953
 7929TIP3    H145278   2.861   2.861  11.169  0.1736  1.2851 -0.4786
 7929TIP3    H245279   2.862   2.717  11.124 -1.1136  0.9466  0.5183
 7930TIP3   OH245280   0.547   5.916  14.697 -0.5611  0.4917 -0.0227
 7930TIP3    H145281   0.618   5.883  14.752  0.0506  0.3049 -0.9160
 7930TIP3    H245282   0.564   5.879  14.610 -1.4865  0.8238 -0.3539
 7931TIP3   OH245283   2.723   0.605   2.287 -0.1574 -0.1395 -0.7124
 7931TIP3    H145284   2.655   0.627   2.224  0.6822  1.5831 -1.0768
 7931TIP3    H245285   2.697   0.649   2.368 -0.4682 -1.1052 -0.2795
 7932TIP3   OH245286   4.550   5.873   5.438 -0.2817  0.3047  0.1370
 7932TIP3    H145287   4.550   5.893   5.344 -0.1709  0.1513  0.1031
 7932TIP3    H245288   4.635   5.903   5.469 -0.0946 -0.1593  0.0749
 7933TIP3   OH245289   2.253   1.777   1.610 -0.6119  0.5995 -0.2981
 7933TIP3    H145290   2.201   1.814   1.681 -0.7161  0.1499 -0.1377
 7933TIP3    H245291   2.279   1.853   1.557 -0.1736  0.9845  0.4517
 7934TIP3   OH245292   1.393   4.811   1.371 -0.4286  0.6270  0.3078
 7934TIP3    H145293   1.403   4.823   1.465  0.9558 -0.3676  0.3121
 7934TIP3    H245294   1.408   4.898   1.333  1.4356  0.5749  0.8524
 7935TIP3   OH245295   4.537   2.263   1.777 -0.6388  0.2783 -0.2904
 7935TIP3    H145296   4.623   2.302   1.760 -1.3165  1.6913 -0.6019
 7935TIP3    H245297   4.543   2.232   1.868  0.5044 -0.5473 -0.6134
 7936TIP3   OH245298   6.500   2.411  12.386 -0.0616  0.0878 -0.6674
 7936TIP3    H145299   6.556   2.478  12.425  0.9491  1.3317 -3.8964
 7936TIP3    H245300   6.556   2.334  12.378 -0.7289 -0.7007  1.5234
 7937TIP3   OH245301   6.239   0.681  15.938 -0.6336  0.0771  0.2023
 7937TIP3    H145302   6.263   0.709  16.026  0.8697  0.6853 -0.3741
 7937TIP3    H245303   6.277   0.747  15.880 -0.1821 -1.1892 -1.0027
 7938TIP3   OH245304   1.696   3.722  12.044  0.0961 -0.2198 -0.0073
 7938TIP3    H145305   1.651   3.801  12.074  2.7128  1.8522 -1.1957
 7938TIP3    H245306   1.711   3.736  11.951  0.0133 -2.4781 -0.4199
 7939TIP3   OH245307   0.414   1.951  14.231 -0.0133  0.5353  0.3705
 7939TIP3    H145308   0.353   1.921  14.298 -0.3657 -0.1468 -0.2341
 7939TIP3    H245309   0.498   1.956  14.275 -0.2282  0.0377  0.8465
 7940TIP3   OH245310   0.590   4.286  14.706 -0.0358  0.2449 -0.6402
 7940TIP3    H145311   0.554   4.355  14.650 -1.5503  2.3597  2.6161
 7940TIP3    H245312   0.536   4.209  14.687 -0.3746  0.8279 -2.1665
 7941TIP3   OH245313   2.888   0.645   5.697  0.0205 -0.6764 -0.0337
 7941TIP3    H145314   2.817   0.707   5.682  1.4387  1.3393  1.0992
 7941TIP3    H245315   2.935   0.641   5.614  1.3117  1.7543  0.4623
 7942TIP3   OH245316   6.547   5.690  13.091  0.8131  0.2617  0.0611
 7942TIP3    H145317   6.498   5.772  13.091 -1.1934 -0.8508 -0.3379
 7942TIP3    H245318   6.579   5.680  13.180 -0.6389  0.5289  0.6312
 7943TIP3   OH245319   4.676   4.391   1.149  0.0117 -0.2310 -0.1320
 7943TIP3    H145320   4.594   4.404   1.100 -0.5479 -0.2819  0.7614
 7943TIP3    H245321   4.737   4.355   1.085  0.0184  1.8190 -1.3619
 7944TIP3   OH245322   3.101   2.819   6.174 -0.5113  0.3864  0.1545
 7944TIP3    H145323   3.151   2.740   6.193  0.2541  0.4801 -1.2839
 7944TIP3    H245324   3.143   2.888   6.227 -1.4585 -0.2066  1.7499
 7945TIP3   OH245325   0.638   1.061   3.157 -0.2731  0.4417  0.0537
 7945TIP3    H145326   0.583   1.027   3.228  2.2032  0.3026  2.0295
 7945TIP3    H245327   0.689   0.986   3.128  0.6805  1.0942  0.0201
 7946TIP3   OH245328   5.485   3.355   1.580  0.3525 -0.4139  0.0784
 7946TIP3    H145329   5.436   3.397   1.509  2.5609  0.5941 -0.9489
 7946TIP3    H245330   5.431   3.370   1.658  0.3776  3.4027 -0.4178
 7947TIP3   OH245331   0.970   0.067  14.176  0.0143  0.5591 -0.0804
 7947TIP3    H145332   0.953   0.092  14.085 -1.1555  0.5515  0.1155
 7947TIP3    H245333   0.929   0.137  14.228 -0.6343 -0.1971  0.4451
 7948TIP3   OH245334   0.570   1.023  13.904 -0.1555  0.3540 -0.6008
 7948TIP3    H145335   0.507   0.961  13.867  0.6344 -0.5713 -0.4242
 7948TIP3    H245336   0.610   0.975  13.977  0.7570  0.9228 -0.7189
 7949TIP3   OH245337   3.951   3.858   2.364  0.6609  0.0824 -0.8337
 7949TIP3    H145338   4.039   3.893   2.376  0.8132 -0.5661  0.0879
 7949TIP3    H245339   3.920   3.898   2.283  0.4325  3.1566  0.6267
 7950TIP3   OH245340   1.841   4.131   5.821  0.4328  0.3320 -0.0870
 7950TIP3    H145341   1.837   4.142   5.916 -1.4309  2.4933 -0.3185
 7950TIP3    H245342   1.801   4.046   5.805 -1.2153  0.8531  0.9955
 7951TIP3   OH245343   6.584   0.715   0.358 -0.0023  0.5516 -0.2570
 7951TIP3    H145344   6.548   0.778   0.420 -0.3931  2.0411 -1.9167
 7951TIP3    H245345   6.537   0.633   0.376  0.4842  0.6936  1.9041
 7952TIP3   OH245346   3.059   5.042  14.291 -0.2974  0.1079  0.8470
 7952TIP3    H145347   3.125   5.081  14.348  0.2023  0.0119  0.3510
 7952TIP3    H245348   3.041   4.956  14.329  0.4960 -0.2121  0.5165
 7953TIP3   OH245349   1.207   6.589   2.333 -0.1653  0.4005 -0.0678
 7953TIP3    H145350   1.289   6.588   2.383  0.2110  0.9135 -0.6506
 7953TIP3    H245351   1.164   6.507   2.356  1.2336 -0.6263 -0.9183
 7954TIP3   OH245352   4.186   0.625  15.063 -0.7897 -0.3340 -0.4195
 7954TIP3    H145353   4.159   0.716  15.072 -0.9217 -0.4084 -0.0165
 7954TIP3    H245354   4.240   0.608  15.140 -0.9196 -0.6439 -0.3927
 7955TIP3   OH245355   3.038   2.251   0.068  0.0416  0.1262  0.6852
 7955TIP3    H145356   3.094   2.173   0.062  1.7591  1.3609 -0.7415
 7955TIP3    H245357   2.990   2.253  -0.015  0.6951  1.0216  0.3027
 7956TIP3   OH245358   6.601   5.027   4.500 -0.6225  0.3694 -0.5521
 7956TIP3    H145359   6.538   5.029   4.428 -0.2312  0.7526 -0.8900
 7956TIP3    H245360   6.593   5.113   4.541 -0.2969  0.4308 -0.6155
 7957TIP3   OH245361   6.787   4.432   3.074 -0.2566  0.5550 -0.3248
 7957TIP3    H145362   6.815   4.488   3.002  2.2801  0.6060  0.6262
 7957TIP3    H245363   6.856   4.440   3.140 -0.7233 -2.2046  0.6392
 7958TIP3   OH245364   5.755   2.930  12.789 -0.2793  0.6683 -0.1214
 7958TIP3    H145365   5.840   2.890  12.771 -0.0929  1.0662 -0.1379
 7958TIP3    H245366   5.768   3.024  12.772 -0.4094  0.8976  0.9526
 7959TIP3   OH245367   1.853   6.209   2.735  0.0925 -0.5960  0.4612
 7959TIP3    H145368   1.929   6.151   2.738  0.8382  0.0648 -2.4289
 7959TIP3    H245369   1.879   6.279   2.676 -1.9281  0.9917  1.3437
 7960TIP3   OH245370   4.337   4.812  13.480 -0.0404 -0.1957 -0.0893
 7960TIP3    H145371   4.324   4.902  13.448  0.2335  0.2843  1.0795
 7960TIP3    H245372   4.314   4.817  13.573 -2.5329 -1.9299 -0.5190
 7961TIP3   OH245373   2.292   2.591   3.143  0.2977 -0.0901 -0.1652
 7961TIP3    H145374   2.279   2.499   3.121 -2.0459 -0.3680  1.9372
 7961TIP3    H245375   2.224   2.638   3.094 -0.6018  0.0812  1.2030
 7962TIP3   OH245376   2.324   3.654   2.953 -0.0860 -0.3577 -0.3245
 7962TIP3    H145377   2.280   3.587   2.901 -1.9914  0.6284 -0.0986
 7962TIP3    H245378   2.280   3.651   3.037 -0.0779  1.0374 -0.2542
 7963TIP3   OH245379   4.390   6.179  12.657 -0.2083  0.0213 -0.6381
 7963TIP3    H145380   4.422   6.224  12.578  2.4454 -0.7824 -0.1461
 7963TIP3    H245381   4.419   6.089  12.647 -0.3774 -0.2479  0.9440
 7964TIP3   OH245382   1.207   5.359   3.485  0.3816 -0.9131 -0.2431
 7964TIP3    H145383   1.248   5.382   3.401  1.7379 -0.5153  0.5104
 7964TIP3    H245384   1.113   5.362   3.466  0.6453 -0.4751 -1.6589
 7965TIP3   OH245385   1.541   0.327   2.651  0.0041 -0.2808  0.1296
 7965TIP3    H145386   1.503   0.357   2.734  0.4669 -0.0239  0.2481
 7965TIP3    H245387   1.524   0.398   2.590 -0.7795 -0.6759 -0.1333
 7966TIP3   OH245388   2.108   1.674  12.189 -0.2574 -0.5883  0.7496
 7966TIP3    H145389   2.023   1.645  12.157  0.5387 -0.6147 -1.4651
 7966TIP3    H245390   2.106   1.770  12.181  0.3817 -0.6672 -0.6451
 7967TIP3   OH245391   2.693   0.990  11.317 -0.4910  0.5867  0.0331
 7967TIP3    H145392   2.691   0.991  11.221  0.3011 -0.6210 -0.0164
 7967TIP3    H245393   2.705   0.897  11.340 -0.5580  0.8717  1.2997
 7968TIP3   OH245394   6.126   5.739  15.192  0.3379  0.2214 -0.2723
 7968TIP3    H145395   6.044   5.742  15.143  1.8892 -1.3356 -3.3079
 7968TIP3    H245396   6.178   5.811  15.157  0.6396  0.5992  0.9058
 7969TIP3   OH245397   2.197   0.060  14.360 -0.0648 -0.3279  0.3241
 7969TIP3    H145398   2.279   0.064  14.311 -0.7097  1.0163 -0.7044
 7969TIP3    H245399   2.171  -0.032  14.357  0.7315 -0.5310 -0.4752
 7970TIP3   OH245400   4.429   3.208  13.875  0.0647 -0.3920 -0.0134
 7970TIP3    H145401   4.361   3.275  13.888  0.4333  0.1831 -0.9925
 7970TIP3    H245402   4.385   3.125  13.895  0.0120  0.2114  2.7979
 7971TIP3   OH245403   6.730   6.021  15.645  0.4639 -0.7646 -0.2581
 7971TIP3    H145404   6.637   6.035  15.665  0.6630  1.9156 -0.8522
 7971TIP3    H245405   6.775   6.049  15.725  0.8473  1.2721 -1.1190
 7972TIP3   OH245406   2.682   4.752   4.358 -0.0692 -0.2537  0.3684
 7972TIP3    H145407   2.725   4.680   4.311 -0.6660 -0.7311  0.5441
 7972TIP3    H245408   2.605   4.773   4.305  0.1360  0.2958  0.2883
 7973TIP3   OH245409   3.140   3.819   2.205  0.0123 -0.7995 -0.5971
 7973TIP3    H145410   3.163   3.774   2.123  1.0459 -2.5626  0.5816
 7973TIP3    H245411   3.186   3.903   2.199  0.2237 -0.9716 -1.7428
 7974TIP3   OH245412   0.453   4.122   4.312  0.3107 -0.3021 -0.5148
 7974TIP3    H145413   0.392   4.163   4.250  0.4885 -0.3896 -0.7516
 7974TIP3    H245414   0.511   4.070   4.257  0.6098 -0.2091 -0.2934
 7975TIP3   OH245415   4.145   1.244   5.616  1.0488  0.3809  0.0888
 7975TIP3    H145416   4.142   1.263   5.710  0.7609  0.6582  0.0246
 7975TIP3    H245417   4.106   1.157   5.608  2.4014 -0.2930  0.3875
 7976TIP3   OH245418   0.170   1.291  15.472  0.1616  0.1548  0.1602
 7976TIP3    H145419   0.076   1.292  15.452 -0.7043  0.6277  3.6252
 7976TIP3    H245420   0.193   1.383  15.482  1.3147  0.1065 -1.5697
 7977TIP3   OH245421   4.156   3.933   5.373 -0.8273 -0.1746 -0.6574
 7977TIP3    H145422   4.201   3.898   5.450  0.3663  1.9546 -0.2948
 7977TIP3    H245423   4.064   3.917   5.390 -0.4970 -0.8571  0.6330
 7978TIP3   OH245424   5.962   6.726   2.458  0.4486 -0.8388  0.0481
 7978TIP3    H145425   5.938   6.805   2.410 -0.7410  0.0854  2.0409
 7978TIP3    H245426   5.989   6.664   2.390 -0.8885  0.4695 -1.7761
 7979TIP3   OH245427   1.556   2.252  14.734  0.2887 -0.3852  0.5324
 7979TIP3    H145428   1.577   2.248  14.641 -1.4820  0.9866  0.0117
 7979TIP3    H245429   1.467   2.217  14.739 -0.3483  1.2569  1.4103
 7980TIP3   OH245430   3.817   3.709  15.331  0.4897 -0.2121  0.0469
 7980TIP3    H145431   3.725   3.687  15.349  0.3888  0.8072  0.8643
 7980TIP3    H245432   3.846   3.642  15.269 -1.4242  0.6693 -1.9429
 7981TIP3   OH245433   4.490   6.147  11.429  0.2430 -0.2253 -0.2670
 7981TIP3    H145434   4.412   6.177  11.475  0.4656  0.4271 -0.2909
 7981TIP3    H245435   4.458   6.089  11.360 -0.1345 -0.7680  0.3626
 7982TIP3   OH245436   0.786   6.233   6.120  0.0252  0.0575  0.1423
 7982TIP3    H145437   0.690   6.242   6.126  0.2306  2.1174  1.2118
 7982TIP3    H245438   0.808   6.166   6.185 -0.5214  1.2993  1.6776
 7983TIP3   OH245439   6.054   4.884  15.067  0.0858  0.1285  0.0984
 7983TIP3    H145440   5.981   4.861  15.125 -0.4734  0.4482 -0.4694
 7983TIP3    H245441   6.132   4.857  15.116 -0.3711  0.3793  0.9960
 7984TIP3   OH245442   3.221   1.852   0.626  0.4983  0.7519 -0.2710
 7984TIP3    H145443   3.143   1.799   0.608  1.0188 -0.5458  1.1211
 7984TIP3    H245444   3.284   1.791   0.664  1.4412  2.1953  0.5977
 7985TIP3   OH245445   5.818   2.549  12.816 -0.5293  0.1110  0.5682
 7985TIP3    H145446   5.791   2.594  12.896 -1.9793  0.0310  0.1648
 7985TIP3    H245447   5.897   2.501  12.840  1.6828  3.5606  0.7852
 7986TIP3   OH245448   5.703   2.311   4.069 -0.0336 -0.5603  0.3869
 7986TIP3    H145449   5.674   2.250   4.002 -2.0573  0.7298  0.0154
 7986TIP3    H245450   5.707   2.396   4.025  1.5757 -0.1755  1.1781
 7987TIP3   OH245451   1.720   0.027   1.176  0.4470  0.0307  0.1325
 7987TIP3    H145452   1.676  -0.053   1.206  0.0079  0.8296  1.7086
 7987TIP3    H245453   1.814   0.005   1.181  0.3729 -0.1044  1.5262
 7988TIP3   OH245454   2.717   0.080  11.545 -0.1078 -0.0015  0.4374
 7988TIP3    H145455   2.770   0.155  11.517 -0.4178 -0.2555 -0.9236
 7988TIP3    H245456   2.669   0.112  11.622 -0.4706  1.3196 -0.2886
 7989TIP3   OH245457   0.807   5.750   5.782  0.2560 -0.0471  0.0234
 7989TIP3    H145458   0.718   5.722   5.805 -0.6941 -0.3667 -3.4497
 7989TIP3    H245459   0.800   5.846   5.778 -0.1509 -0.0977 -0.8162
 7990TIP3   OH245460   4.720   0.879   6.321 -0.3624  0.5569  0.0364
 7990TIP3    H145461   4.626   0.883   6.338 -0.3748 -0.4725  0.2917
 7990TIP3    H245462   4.736   0.787   6.298  0.6498  0.6331  0.3923
 7991TIP3   OH245463   3.392   6.604   0.045  0.1002  0.4291 -0.1419
 7991TIP3    H145464   3.340   6.527   0.067  0.8136  0.1290  0.5561
 7991TIP3    H245465   3.364   6.670   0.108  0.7343  0.1800  0.4243
 7992TIP3   OH245466   4.984   5.621   5.856 -0.2308  0.0331 -0.3183
 7992TIP3    H145467   4.919   5.594   5.791 -1.4077 -1.5454  1.4023
 7992TIP3    H245468   5.007   5.711   5.832 -3.3908  0.8323 -0.7656
 7993TIP3   OH245469   3.900   0.928  11.456 -0.0895 -0.1187  0.3384
 7993TIP3    H145470   3.840   0.991  11.417 -0.6301  0.0568  1.4104
 7993TIP3    H245471   3.949   0.979  11.521  1.3657 -0.2181 -0.6294
 7994TIP3   OH245472   6.087   3.408   0.374 -0.1218 -0.0157 -0.1716
 7994TIP3    H145473   6.024   3.343   0.345 -2.5594  1.9262  0.4350
 7994TIP3    H245474   6.103   3.463   0.298  1.4317 -0.8514 -0.5041
 7995TIP3   OH245475   5.721   3.792  11.379 -0.2905  0.1379 -0.2962
 7995TIP3    H145476   5.701   3.785  11.286 -0.0957 -0.3941 -0.3038
 7995TIP3    H245477   5.796   3.734  11.391 -0.8075 -0.4239  0.3356
 7996TIP3   OH245478   1.455   1.075  11.234 -0.4286  0.0076  0.8106
 7996TIP3    H145479   1.452   0.994  11.283 -0.0884  0.0805  0.9565
 7996TIP3    H245480   1.364   1.105  11.230 -0.3677  0.4329  2.1163
 7997TIP3   OH245481   1.028   4.357   3.236  0.6489 -0.0629 -0.4521
 7997TIP3    H145482   0.992   4.393   3.155  0.0579  0.9172  0.2239
 7997TIP3    H245483   1.117   4.394   3.241  0.5624  0.1544 -0.4874
 7998TIP3   OH245484   2.282   0.250   5.114  0.6094  0.2414  0.5644
 7998TIP3    H145485   2.286   0.184   5.044 -0.3011 -1.7870  2.3312
 7998TIP3    H245486   2.373   0.271   5.133  0.8942  1.8242 -2.0244
 7999TIP3   OH245487   4.698   4.355  15.278  1.1494  0.1819  0.0377
 7999TIP3    H145488   4.737   4.286  15.333  0.1098 -0.1743  0.3633
 7999TIP3    H245489   4.692   4.315  15.191  0.5916 -0.1353  0.2153
 8000TIP3   OH245490   4.910   3.416  15.334 -0.1575  0.0567 -0.0591
 8000TIP3    H145491   4.974   3.355  15.297 -0.5638 -0.0750 -0.5439
 8000TIP3    H245492   4.844   3.359  15.375  0.5230  0.1948  1.3098
 8001TIP3   OH245493   2.709   2.453   4.426  0.1381  0.2904 -0.3366
 8001TIP3    H145494   2.692   2.547   4.419 -0.7429  0.1812  0.1871
 8001TIP3    H245495   2.777   2.445   4.493  0.5213  0.5713 -0.6824
 8002TIP3   OH245496   1.619   4.237   1.886 -0.0829 -0.5473  0.0381
 8002TIP3    H145497   1.633   4.205   1.797 -1.0425  0.0423 -0.3448
 8002TIP3    H245498   1.705   4.266   1.916  0.6074 -2.4184 -0.0055
 8003TIP3   OH245499   5.256   1.186  11.673 -0.1250 -0.1717 -0.5996
 8003TIP3    H145500   5.184   1.137  11.635  0.2724 -1.2214 -0.0537
 8003TIP3    H245501   5.229   1.277  11.667 -0.3116 -0.3262 -2.8488
 8004TIP3   OH245502   4.000   2.669  16.541 -0.0645 -0.2686 -0.2972
 8004TIP3    H145503   3.981   2.581  16.572 -0.9682 -0.3445 -1.0218
 8004TIP3    H245504   3.983   2.665  16.447  1.9848  0.1130 -0.7335
 8005TIP3   OH245505   2.500   4.304   3.295  0.5192 -0.0519  0.1236
 8005TIP3    H145506   2.493   4.210   3.315  0.8682 -0.0487  0.2695
 8005TIP3    H245507   2.535   4.306   3.205  1.2032 -0.0629  0.3846
 8006TIP3   OH245508   0.204   0.437   1.163  0.5040  0.3778  0.1101
 8006TIP3    H145509   0.235   0.525   1.141 -0.1509  0.5791 -0.0171
 8006TIP3    H245510   0.261   0.410   1.235  0.9341  0.7660 -0.0745
 8007TIP3   OH245511   2.955   1.879  12.216  0.2884 -0.0192  0.4080
 8007TIP3    H145512   3.006   1.925  12.283  1.4549 -3.3174  2.0266
 8007TIP3    H245513   3.008   1.886  12.137  1.5649 -0.4249  1.1946
 8008TIP3   OH245514   3.087   2.601  14.352 -0.0007 -0.3244 -0.0817
 8008TIP3    H145515   3.092   2.643  14.438  0.9711 -0.1922 -0.1950
 8008TIP3    H245516   3.036   2.522  14.368 -0.4537  0.0591  0.4651
 8009TIP3   OH245517   5.806   2.987   5.170 -0.1499 -0.6633  0.1331
 8009TIP3    H145518   5.895   2.954   5.156 -0.0368 -1.1807  1.8964
 8009TIP3    H245519   5.776   2.942   5.249 -1.5908  0.3157  0.1716
 8010TIP3   OH245520   0.591   0.201  15.712 -0.1227  0.6726  0.9537
 8010TIP3    H145521   0.579   0.108  15.731 -0.4828  0.6223  0.5145
 8010TIP3    H245522   0.502   0.235  15.704 -0.0087  0.6707 -0.6537
 8011TIP3   OH245523   3.691   6.379   2.673  0.0508 -0.3735  0.0905
 8011TIP3    H145524   3.718   6.331   2.751 -0.4000 -1.8797 -0.6395
 8011TIP3    H245525   3.709   6.319   2.601 -1.3376  0.2273 -0.7887
 8012TIP3   OH245526   2.697   2.760  14.737  0.5349  0.1634  0.4214
 8012TIP3    H145527   2.682   2.715  14.820 -2.0097  0.9553  0.4918
 8012TIP3    H245528   2.701   2.852  14.760  0.7653  0.3289 -0.2485
 8013TIP3   OH245529   1.636   1.679  16.570 -0.3690 -0.4979 -0.0530
 8013TIP3    H145530   1.714   1.624  16.571 -1.2549 -1.9313 -2.0998
 8013TIP3    H245531   1.651   1.740  16.498 -1.1050 -0.8038 -0.4821
 8014TIP3   OH245532   2.666   2.694  13.599 -0.0913 -0.4810 -0.1781
 8014TIP3    H145533   2.622   2.770  13.638  1.0776 -0.2627  0.7878
 8014TIP3    H245534   2.710   2.729  13.521  0.4762 -0.1287  0.2847
 8015TIP3   OH245535   5.844   1.438   0.031  0.1359 -0.4037 -0.7285
 8015TIP3    H145536   5.826   1.504   0.098  0.2393 -0.0689 -1.0248
 8015TIP3    H245537   5.783   1.367   0.050 -1.2957  0.5673 -1.5289
 8016TIP3   OH245538   5.168   6.348  15.563  0.0341  0.0941  0.0827
 8016TIP3    H145539   5.159   6.443  15.559 -1.2542 -0.0528 -0.9658
 8016TIP3    H245540   5.162   6.319  15.472 -1.1884 -1.1093  0.5124
 8017TIP3   OH245541   0.036   5.017  12.126  0.3293 -0.5297 -0.0206
 8017TIP3    H145542   0.124   4.992  12.151  0.9554  1.0182 -0.5534
 8017TIP3    H245543   0.046   5.057  12.040 -0.8989 -0.3738 -0.1127
 8018TIP3   OH245544   2.555   1.479   5.298  0.4835 -0.1285  0.0854
 8018TIP3    H145545   2.563   1.571   5.273 -0.1337  0.5900  2.3038
 8018TIP3    H245546   2.482   1.446   5.245  2.1909 -0.0508 -2.4491
 8019TIP3   OH245547   0.261   4.919  12.320  0.5416 -0.6598 -0.2667
 8019TIP3    H145548   0.305   4.903  12.236  0.3315 -2.3849 -0.0947
 8019TIP3    H245549   0.322   4.883  12.386  0.9024  1.0548  0.3966
 8020TIP3   OH245550   0.754   3.638   4.154  0.5403 -0.2872 -0.1134
 8020TIP3    H145551   0.693   3.706   4.126 -0.2568 -0.6032  0.8022
 8020TIP3    H245552   0.797   3.609   4.073 -2.1139 -1.5964 -1.1552
 8021TIP3   OH245553   1.084   6.830   2.381  0.2462  0.1990  0.1655
 8021TIP3    H145554   1.140   6.754   2.361  0.9153  0.9063 -0.7967
 8021TIP3    H245555   1.124   6.870   2.458  1.0598  0.6613 -0.4774
 8022TIP3   OH245556   2.816   2.820   3.586 -1.0801  0.1222  0.0937
 8022TIP3    H145557   2.890   2.781   3.538 -0.0193  0.4061  1.4214
 8022TIP3    H245558   2.815   2.773   3.669 -1.5675  1.0147  0.6069
 8023TIP3   OH245559   6.424   2.457  10.364 -0.5569 -0.0088  0.3836
 8023TIP3    H145560   6.388   2.510  10.294 -2.3208 -2.8303 -1.0295
 8023TIP3    H245561   6.398   2.502  10.445 -1.2199  1.6659 -0.7204
 8024TIP3   OH245562   3.703   0.531  14.704  0.1821 -0.2273  0.5370
 8024TIP3    H145563   3.792   0.549  14.676  0.0148 -2.3476 -1.7325
 8024TIP3    H245564   3.648   0.585  14.647 -0.0309  0.4184  1.3358
 8025TIP3   OH245565   6.711   6.755  12.710 -0.4096  0.4872 -0.3200
 8025TIP3    H145566   6.795   6.800  12.710  0.5428 -1.2305 -0.4172
 8025TIP3    H245567   6.658   6.803  12.774  1.0252  0.9137  0.5942
 8026TIP3   OH245568   1.163   4.109   4.171 -0.7814 -0.1369  0.0065
 8026TIP3    H145569   1.222   4.180   4.145 -0.3113 -1.0465 -1.5741
 8026TIP3    H245570   1.191   4.086   4.260  1.0335 -0.2580 -0.5374
 8027TIP3   OH245571   2.230   0.596  11.417 -0.0491 -0.2233 -0.0770
 8027TIP3    H145572   2.139   0.572  11.399 -0.6830 -0.0852  2.5833
 8027TIP3    H245573   2.242   0.679  11.370 -1.4347 -0.0524 -0.1718
 8028TIP3   OH245574   3.985   4.025   6.083 -0.2849  0.3820 -0.3576
 8028TIP3    H145575   3.909   4.081   6.065 -0.4390 -0.2068 -1.6878
 8028TIP3    H245576   3.996   3.973   6.003  1.8224  0.7875 -0.3819
 8029TIP3   OH245577   0.691   0.247  12.133  0.0760 -0.1252  0.7723
 8029TIP3    H145578   0.771   0.292  12.106 -0.0451  0.1389  0.8553
 8029TIP3    H245579   0.665   0.291  12.214  0.4169 -0.8876  1.3113
 8030TIP3   OH245580   6.828   6.764  11.458  0.0969  0.2028  0.4033
 8030TIP3    H145581   6.795   6.795  11.542 -0.5863  0.3078  0.1011
 8030TIP3    H245582   6.751   6.734  11.411  0.1394  2.1151 -1.0179
 8031TIP3   OH245583   6.693   4.325  15.838 -0.4632 -0.1290 -0.2709
 8031TIP3    H145584   6.760   4.257  15.834  0.2891  0.6481 -1.2810
 8031TIP3    H245585   6.625   4.295  15.778 -1.1185 -0.9902  0.8654
 8032TIP3   OH245586   0.867   3.440  12.840 -0.2304  0.0436 -0.0647
 8032TIP3    H145587   0.929   3.495  12.791  0.9268  0.2558  1.5524
 8032TIP3    H245588   0.922   3.379  12.888 -1.2500  0.3907  1.6114
 8033TIP3   OH245589   4.883   2.378  11.350 -0.3262  0.4819  0.4816
 8033TIP3    H145590   4.795   2.380  11.388  0.6050  3.0752  2.8426
 8033TIP3    H245591   4.932   2.319  11.408  0.0040  0.7986  0.5280
 8034TIP3   OH245592   2.498   3.443  17.142  0.4805  0.3537 -0.1595
 8034TIP3    H145593   2.476   3.421  17.233 -0.1433  5.5152  1.2747
 8034TIP3    H245594   2.592   3.428  17.136  0.4064 -0.7841  1.0755
 8035TIP3   OH245595   4.415   1.926   1.123  0.2881  0.4430 -0.1307
 8035TIP3    H145596   4.441   1.950   1.034 -1.0580 -0.5991 -0.8499
 8035TIP3    H245597   4.361   1.999   1.153 -1.4037 -0.2913 -1.2076
 8036TIP3   OH245598   2.993   6.426   0.653 -0.1863  0.5168 -0.1544
 8036TIP3    H145599   2.945   6.490   0.707 -0.8993  0.6119 -0.8765
 8036TIP3    H245600   2.979   6.342   0.697 -1.6760  0.4187 -0.7372
 8037TIP3   OH245601   3.303   4.552   0.272  0.1130  0.6472 -0.0599
 8037TIP3    H145602   3.257   4.523   0.350 -2.2115  0.2027 -1.4960
 8037TIP3    H245603   3.279   4.644   0.262  0.0640  0.5927 -0.4762
 8038TIP3   OH245604   5.638   0.825   0.620 -0.3213 -0.2695  0.2052
 8038TIP3    H145605   5.593   0.903   0.589 -0.0478 -0.7909 -1.5941
 8038TIP3    H245606   5.592   0.802   0.702  0.2619  2.3073  1.3527
 8039TIP3   OH245607   4.567   6.175   5.902 -0.0925 -0.1071 -0.0808
 8039TIP3    H145608   4.501   6.244   5.908 -0.4082 -0.5082  1.5871
 8039TIP3    H245609   4.650   6.221   5.896 -0.4620  0.4080 -2.3298
 8040TIP3   OH245610   3.261   2.292   5.926  0.2160 -0.1436 -0.0469
 8040TIP3    H145611   3.307   2.347   5.989 -0.5028  0.7565 -0.2964
 8040TIP3    H245612   3.202   2.351   5.879  0.8573 -0.7479 -1.7065
 8041TIP3   OH245613   5.717   6.011  16.505  0.8198  0.3161  0.2385
 8041TIP3    H145614   5.706   6.101  16.474 -0.4850  0.3380  0.7170
 8041TIP3    H245615   5.812   5.998  16.508  1.0462  2.0117  1.1574
 8042TIP3   OH245616   2.380   6.224   0.695 -0.0400 -0.0028  0.6288
 8042TIP3    H145617   2.370   6.178   0.612  1.6150  0.1382  0.3102
 8042TIP3    H245618   2.420   6.308   0.672 -1.3599  0.8713  1.3847
 8043TIP3   OH245619   5.946   0.731  12.719  0.6657 -0.0415  0.5281
 8043TIP3    H145620   5.942   0.664  12.651 -0.4550  1.2030 -0.7010
 8043TIP3    H245621   5.931   0.814  12.672  4.6392  1.4611  1.5262
 8044TIP3   OH245622   1.179   5.338   1.396 -0.1619 -0.0950  0.0386
 8044TIP3    H145623   1.183   5.314   1.489 -0.5903 -0.8311 -0.1206
 8044TIP3    H245624   1.242   5.409   1.387  0.5736 -0.6380  0.7099
 8045TIP3   OH245625   5.956   3.364  15.776  0.3669 -0.1043 -0.2468
 8045TIP3    H145626   5.874   3.413  15.780 -0.1690 -0.5522 -3.4396
 8045TIP3    H245627   5.933   3.275  15.802  0.1259  0.0401  0.0362
 8046TIP3   OH245628   5.063   4.118  17.107 -0.1251 -0.2396 -0.1335
 8046TIP3    H145629   5.049   4.036  17.059 -0.3040  0.5633 -1.5175
 8046TIP3    H245630   5.014   4.184  17.057  1.9507  1.1597 -0.4687
 8047TIP3   OH245631   4.177   2.686   0.281 -0.2722 -0.5320 -0.2158
 8047TIP3    H145632   4.102   2.745   0.280 -0.2827 -0.5236  0.5629
 8047TIP3    H245633   4.150   2.613   0.338  0.9520  0.3493  1.6070
 8048TIP3   OH245634   0.044   3.862  16.267 -0.0505 -0.1450 -0.2139
 8048TIP3    H145635   0.012   3.844  16.178  0.7490  0.8236 -0.7108
 8048TIP3    H245636   0.093   3.943  16.259 -0.4125  0.2446  1.2347
 8049TIP3   OH245637   5.613   4.384   4.592 -0.3257 -0.1861 -0.2695
 8049TIP3    H145638   5.567   4.426   4.665 -1.5505 -3.0175  0.7395
 8049TIP3    H245639   5.546   4.376   4.524 -0.8024 -2.3203  0.3714
 8050TIP3   OH245640   0.503   5.418   4.949  0.2045  0.5436  0.3632
 8050TIP3    H145641   0.445   5.442   5.021  0.2195  1.8619 -0.0371
 8050TIP3    H245642   0.592   5.425   4.986  0.2304  1.5987  0.1321
 8051TIP3   OH245643   6.635   2.473  14.726  0.2801 -0.0791  0.0651
 8051TIP3    H145644   6.631   2.439  14.636 -0.6683  1.6937 -0.6159
 8051TIP3    H245645   6.573   2.419  14.775  0.5857 -0.8699 -0.3942
 8052TIP3   OH245646   2.107   2.519   5.118 -0.3163 -0.6884  0.2704
 8052TIP3    H145647   2.189   2.558   5.147 -0.6750  2.2039 -2.1067
 8052TIP3    H245648   2.079   2.574   5.045 -4.3067 -1.6310  0.8624
 8053TIP3   OH245649   3.139   3.164   0.454  0.1533 -0.3941 -0.7672
 8053TIP3    H145650   3.168   3.082   0.495  0.1699 -0.1280 -0.2472
 8053TIP3    H245651   3.217   3.219   0.453 -0.0856 -0.0422 -0.2630
 8054TIP3   OH245652   0.843   3.952  15.850 -0.1575  0.3054 -0.7769
 8054TIP3    H145653   0.838   3.988  15.938 -1.1114 -0.4984 -0.4912
 8054TIP3    H245654   0.753   3.954  15.818 -1.1955 -5.4458  0.7444
 8055TIP3   OH245655   3.892   0.573  13.138 -0.3019 -0.5196 -0.2411
 8055TIP3    H145656   3.927   0.658  13.110  0.7182 -1.2285 -1.1657
 8055TIP3    H245657   3.888   0.580  13.234 -1.3196  0.9721 -0.3611
 8056TIP3   OH245658   0.455   4.226  11.330  0.3647  0.3046  0.4543
 8056TIP3    H145659   0.490   4.164  11.266 -2.7118  0.5457 -1.6597
 8056TIP3    H245660   0.391   4.175  11.380  1.3132  0.6302  2.0833
 8057TIP3   OH245661   4.536   6.356  12.486  0.3501  0.5362  0.3458
 8057TIP3    H145662   4.611   6.356  12.546 -0.0916 -1.2479  0.9563
 8057TIP3    H245663   4.545   6.275  12.436  0.2103  1.5553 -1.4085
 8058TIP3   OH245664   1.288   0.459   2.175 -0.6681 -0.2809  0.4122
 8058TIP3    H145665   1.302   0.528   2.110 -1.8674  0.3469  0.7744
 8058TIP3    H245666   1.340   0.385   2.144  1.3002  1.0219  0.4224
 8059TIP3   OH245667   2.122   6.341  13.824  0.5629  0.3466 -0.4808
 8059TIP3    H145668   2.118   6.402  13.898 -0.5758  0.6144 -0.7389
 8059TIP3    H245669   2.056   6.275  13.845 -0.0571  0.6454 -1.4384
 8060TIP3   OH245670   1.075   1.210   4.650  0.4097 -0.3613  0.2898
 8060TIP3    H145671   1.129   1.204   4.728  0.4077  0.9048  0.4032
 8060TIP3    H245672   1.117   1.151   4.587 -0.0041 -1.9570  1.4524
 8061TIP3   OH245673   2.717   0.961   0.465  0.3785 -0.5416 -0.1495
 8061TIP3    H145674   2.686   0.987   0.379 -3.3107 -1.5362  0.6893
 8061TIP3    H245675   2.705   1.039   0.519 -1.3512 -1.0548  0.2764
 8062TIP3   OH245676   1.186   4.926   0.050  0.2591  0.5543  0.7588
 8062TIP3    H145677   1.182   4.831   0.037 -0.3089  0.5956  0.6324
 8062TIP3    H245678   1.121   4.961  -0.010 -0.8805  0.8953  2.1493
 8063TIP3   OH245679   2.829   3.045  10.592 -0.8263  0.0047 -0.3450
 8063TIP3    H145680   2.845   3.020  10.501  0.4626 -1.0612  0.1420
 8063TIP3    H245681   2.892   3.114  10.610  0.8949 -1.7247  0.5290
 8064TIP3   OH245682   0.350   2.458  12.213 -0.2748 -0.4624  0.0767
 8064TIP3    H145683   0.426   2.426  12.261  0.1525  1.1789  0.5874
 8064TIP3    H245684   0.374   2.548  12.190 -1.6879 -0.2380 -0.5810
 8065TIP3   OH245685   3.249   0.212   3.153 -0.6255 -0.5610 -0.0413
 8065TIP3    H145686   3.165   0.175   3.123 -1.0372  0.4787 -0.2202
 8065TIP3    H245687   3.241   0.306   3.136 -0.0833 -0.2023  1.5019
 8066TIP3   OH245688   3.195   2.491   5.505  0.3060 -0.4958  0.1596
 8066TIP3    H145689   3.278   2.535   5.491  0.7408 -1.2849  0.1840
 8066TIP3    H245690   3.209   2.402   5.470 -0.6218 -0.5422 -0.1288
 8067TIP3   OH245691   5.481   1.786   4.634  0.3891  0.3445 -0.1868
 8067TIP3    H145692   5.532   1.863   4.610 -0.3721  0.8030 -0.3721
 8067TIP3    H245693   5.424   1.816   4.704  1.5899 -0.6192  1.2771
 8068TIP3   OH245694   3.699   4.184   1.525 -0.8786 -0.1754 -0.4471
 8068TIP3    H145695   3.691   4.250   1.455  0.8369  1.2461  0.6049
 8068TIP3    H245696   3.680   4.232   1.605 -1.8846 -1.5658  0.1806
 8069TIP3   OH245697   0.067   2.783  11.578 -0.5590 -0.4196 -0.8190
 8069TIP3    H145698  -0.006   2.755  11.521 -0.1902  0.1678 -1.6052
 8069TIP3    H245699   0.058   2.729  11.656 -1.8389 -0.3750 -0.8987
 8070TIP3   OH245700   2.050   0.788   5.809  0.3625 -0.0736 -0.3208
 8070TIP3    H145701   2.120   0.769   5.872  0.5422 -1.2171 -0.8421
 8070TIP3    H245702   1.985   0.837   5.859  0.4810 -1.0081  0.7655
 8071TIP3   OH245703   2.167   0.256   4.761  0.0048  0.0737  0.3408
 8071TIP3    H145704   2.176   0.196   4.687 -0.2637 -0.0736  0.4281
 8071TIP3    H245705   2.220   0.218   4.831  1.7552  1.1283 -0.3281
 8072TIP3   OH245706   2.760   3.257  16.449 -0.1695 -0.2980  0.3283
 8072TIP3    H145707   2.682   3.310  16.430 -0.1627 -1.2566 -3.0869
 8072TIP3    H245708   2.819   3.275  16.376  1.6066 -1.8397  1.2985
 8073TIP3   OH245709   1.661   1.212   0.538 -0.7477  0.5305 -0.0342
 8073TIP3    H145710   1.707   1.271   0.599 -1.1550 -0.1601  0.9787
 8073TIP3    H245711   1.719   1.205   0.462  0.0724  0.9330  0.5394
 8074TIP3   OH245712   1.464   5.342  16.153 -0.4625  0.1204 -0.0942
 8074TIP3    H145713   1.432   5.395  16.079 -0.8084  2.1285  1.3862
 8074TIP3    H245714   1.404   5.364  16.225  1.3467  0.2146  1.4639
 8075TIP3   OH245715   5.898   6.744  14.329  0.0046  0.0496 -0.1430
 8075TIP3    H145716   5.942   6.661  14.343  2.9880  1.7289  1.4485
 8075TIP3    H245717   5.925   6.772  14.241 -0.1540 -0.1807 -0.2653
 8076TIP3   OH245718   0.089   4.459   0.527  0.4055 -0.1552 -0.4537
 8076TIP3    H145719   0.144   4.534   0.551  0.3030 -0.4147  0.6275
 8076TIP3    H245720   0.001   4.485   0.552 -0.0179  0.2933 -2.2622
 8077TIP3   OH245721   0.236   4.908   2.573 -0.4444 -0.0411  0.3962
 8077TIP3    H145722   0.274   4.995   2.556 -0.2162 -0.4733 -1.6058
 8077TIP3    H245723   0.311   4.850   2.581 -0.6054 -0.4412 -0.7917
 8078TIP3   OH245724   4.464   2.488   0.537 -0.0953  0.2362 -0.0806
 8078TIP3    H145725   4.475   2.517   0.446 -2.1264 -0.3455 -0.5801
 8078TIP3    H245726   4.427   2.564   0.582  1.3734  0.6876  0.4229
 8079TIP3   OH245727   0.417   0.668  13.285 -0.2916 -0.1924  0.3069
 8079TIP3    H145728   0.445   0.702  13.200 -0.7887 -2.3095 -0.8059
 8079TIP3    H245729   0.463   0.721  13.350  0.2349  1.3871 -1.2837
 8080TIP3   OH245730   0.111   1.393  16.023  0.3294  0.1440 -0.0272
 8080TIP3    H145731   0.096   1.365  16.113 -3.0629  0.5127 -0.3581
 8080TIP3    H245732   0.132   1.312  15.976  4.0913  0.1692  1.2654
 8081TIP3   OH245733   4.622   3.092   4.442  0.2514 -0.2344  0.1885
 8081TIP3    H145734   4.535   3.072   4.409 -0.3404  0.8297  1.0544
 8081TIP3    H245735   4.615   3.084   4.537  1.5040 -1.6170  0.2126
 8082TIP3   OH245736   3.552   4.076  13.411 -0.1018 -0.4285 -0.3703
 8082TIP3    H145737   3.512   3.998  13.371 -2.6466  0.5977 -0.0203
 8082TIP3    H245738   3.583   4.127  13.337 -0.7186 -0.6045 -0.7561
 8083TIP3   OH245739   6.375   1.757  12.667 -0.4228 -0.0724  0.7169
 8083TIP3    H145740   6.426   1.739  12.587 -1.5312  0.9352 -0.2602
 8083TIP3    H245741   6.415   1.701  12.734  1.1259 -0.2775 -0.3153
 8084TIP3   OH245742   6.793   2.584  12.851 -0.3575 -0.1386  0.1924
 8084TIP3    H145743   6.737   2.661  12.860  0.8093  0.9752 -1.6068
 8084TIP3    H245744   6.759   2.538  12.775  1.0814  0.5394 -0.9148
 8085TIP3   OH245745   2.591   0.412  16.217  0.1761 -0.1572 -0.2546
 8085TIP3    H145746   2.680   0.387  16.192 -0.0656  0.2924 -1.6603
 8085TIP3    H245747   2.557   0.460  16.141 -1.3293 -0.4759  0.1790
 8086TIP3   OH245748   2.487   1.782  11.793  0.0893  0.5102 -0.2863
 8086TIP3    H145749   2.394   1.792  11.813  0.1836  1.3605 -0.2598
 8086TIP3    H245750   2.509   1.860  11.742  0.2718 -0.7445 -2.2443
 8087TIP3   OH245751   0.347   2.404   3.987 -0.3060  0.6510  0.1663
 8087TIP3    H145752   0.358   2.316   3.950  1.6841  0.4195  1.1784
 8087TIP3    H245753   0.393   2.462   3.926  0.6612  0.6217  0.8523
 8088TIP3   OH245754   5.411   3.494   0.238 -0.1881  0.1850  0.3125
 8088TIP3    H145755   5.484   3.433   0.248 -0.7936 -0.2229  2.8476
 8088TIP3    H245756   5.351   3.449   0.179 -0.3510 -1.4755  1.6775
 8089TIP3   OH245757   5.309   1.110   1.942 -0.1258 -0.2238 -0.0202
 8089TIP3    H145758   5.322   1.203   1.961  1.4100  0.0119 -1.8906
 8089TIP3    H245759   5.391   1.069   1.968 -0.3275 -0.8524 -0.3616
 8090TIP3   OH245760   1.819   3.989  11.369  0.4751  0.1656  0.4861
 8090TIP3    H145761   1.755   3.918  11.361  0.4802 -0.0946  2.3250
 8090TIP3    H245762   1.904   3.945  11.366  0.4914  0.1563  0.9792
 8091TIP3   OH245763   0.765   3.655   5.649 -0.3583  0.3072  0.6333
 8091TIP3    H145764   0.722   3.659   5.564  0.3183  1.4094  0.3250
 8091TIP3    H245765   0.746   3.566   5.681 -0.8257 -0.0420 -0.5462
 8092TIP3   OH245766   3.159   3.158   4.432  0.4717  0.4915  0.1175
 8092TIP3    H145767   3.221   3.085   4.440  0.0490  0.1663  0.4248
 8092TIP3    H245768   3.091   3.125   4.373  0.6131  0.8706 -0.2677
 8093TIP3   OH245769   5.981   1.982   1.685 -0.2291 -0.1594 -0.0560
 8093TIP3    H145770   5.909   1.924   1.664 -0.3187  0.2316 -0.8846
 8093TIP3    H245771   5.946   2.042   1.750  0.0513 -1.4016  1.2842
 8094TIP3   OH245772   6.337   4.449  11.765  0.1078  0.2256  0.3005
 8094TIP3    H145773   6.395   4.448  11.841  0.4330  0.7719  0.0632
 8094TIP3    H245774   6.395   4.436  11.690 -0.1508  0.1998  0.1018
 8095TIP3   OH245775   0.448   0.229   4.636  0.1283  0.1185  0.1423
 8095TIP3    H145776   0.533   0.252   4.675 -0.2674 -1.0368  1.7680
 8095TIP3    H245777   0.469   0.164   4.569  0.6981  1.2364 -0.7964
 8096TIP3   OH245778   0.133   0.164  11.942  0.0641  0.2446 -0.4155
 8096TIP3    H145779   0.058   0.116  11.977  1.1892 -0.5328  1.0232
 8096TIP3    H245780   0.168   0.108  11.873  0.3479 -0.2071  0.0916
 8097TIP3   OH245781   6.667   5.029  16.160  0.2280 -0.1887 -0.0017
 8097TIP3    H145782   6.601   5.068  16.218  0.2211 -0.6900  0.3298
 8097TIP3    H245783   6.628   4.946  16.132  1.8821 -1.9707  2.5454
 8098TIP3   OH245784   3.407   2.237   1.933  0.7547 -0.1793  0.0156
 8098TIP3    H145785   3.316   2.234   1.902  0.7665  2.8316 -0.6232
 8098TIP3    H245786   3.415   2.161   1.991 -2.1281 -0.6028  0.0214
 8099TIP3   OH245787   4.176   6.756  12.641 -0.0659  0.0165  0.0141
 8099TIP3    H145788   4.168   6.851  12.638 -1.8812 -0.0977  0.1557
 8099TIP3    H245789   4.099   6.724  12.594 -0.0276 -1.3906  0.8434
 8100TIP3   OH245790   2.113   3.872  15.323 -0.3349  0.1735  0.1121
 8100TIP3    H145791   2.066   3.933  15.381 -0.0724 -0.1494  0.6706
 8100TIP3    H245792   2.119   3.791  15.374 -0.1965 -0.1481 -0.4125
 8101TIP3   OH245793   4.542   0.916  11.274  0.0331  0.4312  0.4139
 8101TIP3    H145794   4.492   0.858  11.332 -0.9061  0.4664 -0.3382
 8101TIP3    H245795   4.580   0.858  11.208  0.4192  0.4906  0.5795
 8102TIP3   OH245796   1.644   5.770  15.140  0.9827  0.3691  0.6076
 8102TIP3    H145797   1.656   5.678  15.121  1.9115  0.9728 -2.1438
 8102TIP3    H245798   1.620   5.773  15.233  0.0429 -2.6609  0.5470
 8103TIP3   OH245799   0.271   2.904   3.509 -0.7726  0.5714  0.7043
 8103TIP3    H145800   0.212   2.834   3.538 -0.1154 -0.0889  0.4817
 8103TIP3    H245801   0.339   2.907   3.576 -0.1361  0.1527  0.0903
 8104TIP3   OH245802   2.970   4.199   4.663 -0.1737  0.4668  0.4141
 8104TIP3    H145803   2.951   4.184   4.756  0.5523  0.7731  0.6210
 8104TIP3    H245804   3.061   4.229   4.662 -0.2239  0.6124 -0.3861
 8105TIP3   OH245805   0.122   5.823  16.861 -0.5179  0.4235  0.3489
 8105TIP3    H145806   0.074   5.876  16.925  1.2360  0.7602  1.4660
 8105TIP3    H245807   0.056   5.794  16.799 -2.2783  0.3066  2.1717
 8106TIP3   OH245808   3.241   0.854   2.813 -0.2451  0.5657 -0.3958
 8106TIP3    H145809   3.202   0.932   2.773 -0.6355  1.1530  1.0470
 8106TIP3    H245810   3.334   0.859   2.789 -0.5267  0.6990 -1.4888
 8107TIP3   OH245811   2.224   1.952  13.084  0.4174 -0.6587 -0.6766
 8107TIP3    H145812   2.281   2.008  13.031 -1.2875  1.9905  0.1474
 8107TIP3    H245813   2.284   1.908  13.144  1.7520  1.1938 -0.5621
 8108TIP3   OH245814   4.649   0.176  13.750  0.9297 -0.3072 -0.0584
 8108TIP3    H145815   4.568   0.182  13.700 -0.0986  1.2702  1.6861
 8108TIP3    H245816   4.642   0.092  13.796  1.3485 -1.2118 -1.5576
 8109TIP3   OH245817   4.069   1.924   0.468  0.1201 -0.1003  0.4422
 8109TIP3    H145818   3.975   1.937   0.481  0.1506  1.0878 -0.4656
 8109TIP3    H245819   4.078   1.903   0.375  0.6419 -1.5894  0.7890
 8110TIP3   OH245820   3.705   1.227  12.955 -0.0477 -0.3709  0.3555
 8110TIP3    H145821   3.722   1.208  12.863 -0.8328  1.7743 -0.2919
 8110TIP3    H245822   3.634   1.291  12.954  0.6754  0.5707  2.4096
 8111TIP3   OH245823   3.275   2.333   0.171 -0.1963 -0.1593  0.6903
 8111TIP3    H145824   3.237   2.387   0.240 -0.6287  0.0143  0.3188
 8111TIP3    H245825   3.202   2.316   0.111  0.2000 -0.2280  0.2247
 8112TIP3   OH245826   4.470   1.534  14.966  0.3836 -0.3393 -0.3332
 8112TIP3    H145827   4.403   1.465  14.973  0.4258 -0.3502 -0.0465
 8112TIP3    H245828   4.519   1.511  14.887  1.1915 -1.3456  0.4404
 8113TIP3   OH245829   0.697   0.892  13.671 -0.7240 -0.7245  0.1778
 8113TIP3    H145830   0.653   0.974  13.693 -1.1852 -0.6194 -1.0504
 8113TIP3    H245831   0.790   0.910  13.683 -0.6371  0.6538 -1.9683
 8114TIP3   OH245832   2.061   6.143  16.672 -0.5497  0.3330  0.7961
 8114TIP3    H145833   1.969   6.120  16.690 -0.1834 -2.9497 -0.7364
 8114TIP3    H245834   2.081   6.098  16.590  1.7411  3.1816 -0.4027
 8115TIP3   OH245835   1.103   5.891  15.204 -0.1558  0.3615 -0.1159
 8115TIP3    H145836   1.058   5.831  15.263 -0.5655 -0.2742 -1.0560
 8115TIP3    H245837   1.049   5.970  15.204  0.0049  0.4802  0.5707
 8116TIP3   OH245838   6.511   0.490   3.113 -0.4064 -0.1535  0.3478
 8116TIP3    H145839   6.603   0.478   3.091 -0.2752  1.2115  0.0864
 8116TIP3    H245840   6.482   0.564   3.060 -0.9279  1.2115  2.4092
 8117TIP3   OH245841   0.678   6.565  17.102 -0.2870  0.2708 -0.0748
 8117TIP3    H145842   0.645   6.492  17.050  0.2947  1.5245 -2.2953
 8117TIP3    H245843   0.762   6.534  17.135 -0.2707 -0.2411 -0.5805
 8118TIP3   OH245844   5.264   6.372   4.377 -0.0459 -0.5131 -0.7949
 8118TIP3    H145845   5.213   6.330   4.447 -1.5474  0.5994 -1.1751
 8118TIP3    H245846   5.339   6.410   4.423 -0.1089 -1.2312 -0.0542
 8119TIP3   OH245847   5.440   2.077  16.621 -0.0111 -0.4699  0.4718
 8119TIP3    H145848   5.486   2.025  16.687 -1.3468 -1.7186  0.4614
 8119TIP3    H245849   5.508   2.100  16.557  0.7667 -1.5276  0.8920
 8120TIP3   OH245850   1.937   3.612   0.295 -0.5463  0.3448 -0.6366
 8120TIP3    H145851   1.892   3.544   0.246 -0.7231 -1.4097  1.7483
 8120TIP3    H245852   2.017   3.569   0.327 -1.3806  0.6477  2.1795
 8121TIP3   OH245853   5.944   6.169   4.157  0.0723  0.2105 -0.3713
 8121TIP3    H145854   5.854   6.138   4.160 -0.0016  0.5048  0.6620
 8121TIP3    H245855   5.944   6.248   4.211  0.9305  0.2586 -0.4267
 8122TIP3   OH245856   6.611   3.361  15.901 -0.3281  0.3029  0.0242
 8122TIP3    H145857   6.644   3.446  15.874  0.0677 -0.1074 -0.8300
 8122TIP3    H245858   6.532   3.348  15.847 -0.2789  0.0493  0.0127
 8123TIP3   OH245859   4.612   2.972  12.499 -0.7682  0.2575 -0.4589
 8123TIP3    H145860   4.645   2.992  12.586  0.1659 -1.0886 -0.4743
 8123TIP3    H245861   4.568   3.052  12.471  1.3577  1.7041  0.1032
 8124TIP3   OH245862   2.461   2.383   5.008 -0.1922 -0.5592 -0.3670
 8124TIP3    H145863   2.427   2.295   5.026 -0.7107 -0.5397 -1.2163
 8124TIP3    H245864   2.400   2.419   4.944 -0.9738  1.0518  1.2051
 8125TIP3   OH245865   1.046   6.544  15.642 -0.1727  0.2342 -0.4906
 8125TIP3    H145866   1.125   6.498  15.613 -1.5824 -1.4087 -2.0197
 8125TIP3    H245867   1.061   6.562  15.735  1.5448 -0.9951 -0.4827
 8126TIP3   OH245868   3.252   2.237   4.442 -0.5171  0.6583  0.3059
 8126TIP3    H145869   3.296   2.272   4.365 -1.0624  1.8151  0.4878
 8126TIP3    H245870   3.205   2.312   4.478 -0.1265  0.1817  1.8736
 8127TIP3   OH245871   1.078   2.056  16.544 -0.0095 -0.1975  0.4794
 8127TIP3    H145872   1.137   2.002  16.493 -0.2696 -1.7954  1.7676
 8127TIP3    H245873   1.114   2.054  16.633 -1.6503 -0.7513  1.1791
 8128TIP3   OH245874   1.705   6.631  16.967 -0.4913  0.0770  0.1851
 8128TIP3    H145875   1.772   6.582  17.014  0.2136  0.7684 -0.0734
 8128TIP3    H245876   1.705   6.718  17.008 -2.0430 -0.2363  0.9446
 8129TIP3   OH245877   5.389   6.344   1.729 -0.3305 -0.1959 -0.2898
 8129TIP3    H145878   5.338   6.301   1.798 -0.5549 -2.1499 -1.6033
 8129TIP3    H245879   5.350   6.431   1.722 -1.1217 -0.3936  1.1845
 8130TIP3   OH245880   1.214   2.472   1.054  0.0928  0.1094 -0.1194
 8130TIP3    H145881   1.185   2.563   1.049 -0.7233 -0.1337  0.0301
 8130TIP3    H245882   1.243   2.461   1.144  1.1352  0.4874 -0.3942
 8131TIP3   OH245883   1.499   1.894   2.425  0.0638  0.1597  0.2394
 8131TIP3    H145884   1.525   1.816   2.376 -1.2649  0.1428 -0.5042
 8131TIP3    H245885   1.543   1.966   2.380 -0.4569  0.0500 -0.4720
 8132TIP3   OH245886   2.473   1.255  14.184  0.2707  0.4523 -0.6674
 8132TIP3    H145887   2.397   1.250  14.242 -0.3222 -0.4938 -1.4995
 8132TIP3    H245888   2.441   1.298  14.105  0.8687  0.9937 -0.6216
 8133TIP3   OH245889   0.857   6.160  11.287  0.0854  0.5195 -0.1655
 8133TIP3    H145890   0.858   6.130  11.196 -0.2361  3.4350 -1.2450
 8133TIP3    H245891   0.789   6.228  11.289  0.3198  0.7773  2.1788
 8134TIP3   OH245892   1.201   0.972   4.497 -0.1543 -0.3427  0.5741
 8134TIP3    H145893   1.117   0.969   4.451 -1.5029  2.7359  2.5048
 8134TIP3    H245894   1.264   1.001   4.431 -1.2821  0.4062 -0.2005
 8135TIP3   OH245895   5.657   3.935  13.296  0.6715 -0.0044 -0.0903
 8135TIP3    H145896   5.637   3.854  13.343 -1.1147  0.0493 -0.7004
 8135TIP3    H245897   5.647   4.004  13.361  0.2832 -0.1118 -0.0374
 8136TIP3   OH245898   2.030   2.067   2.336 -0.3271  0.1411 -0.2899
 8136TIP3    H145899   1.990   2.153   2.345  0.7223  0.4332  2.7452
 8136TIP3    H245900   1.982   2.012   2.398  0.2226 -0.9839 -0.8431
 8137TIP3   OH245901   2.537   2.034   3.384  0.4465 -0.0283 -0.5258
 8137TIP3    H145902   2.470   1.988   3.333 -1.4310  0.9427  0.8994
 8137TIP3    H245903   2.539   2.122   3.347  0.0020  0.3074  0.2262
 8138TIP3   OH245904   4.307   3.679   3.969 -0.3463  0.1181  0.0044
 8138TIP3    H145905   4.262   3.756   4.005 -3.1392 -0.5829 -1.6118
 8138TIP3    H245906   4.255   3.656   3.892  1.7270 -2.0670 -0.8552
 8139TIP3   OH245907   5.427   4.436  12.275  0.4717  0.5835  0.5036
 8139TIP3    H145908   5.338   4.466  12.259 -0.5642 -1.9690  1.0131
 8139TIP3    H245909   5.431   4.348  12.237  3.1754  1.0749 -0.5759
 8140TIP3   OH245910   0.222   0.843  13.936  0.3115 -0.7712 -0.3449
 8140TIP3    H145911   0.259   0.923  13.974 -1.6810  0.2367 -0.3766
 8140TIP3    H245912   0.134   0.838  13.972  0.0058 -2.3488 -1.2345
 8141TIP3   OH245913   4.044   5.841  13.677 -0.4639 -0.2386 -0.3489
 8141TIP3    H145914   3.959   5.819  13.715 -1.0457  1.1453 -0.7895
 8141TIP3    H245915   4.024   5.894  13.601  0.7995  2.0812  0.8088
 8142TIP3   OH245916   6.381   6.449   1.305  0.4540  0.3675 -0.4657
 8142TIP3    H145917   6.437   6.524   1.289  0.8749  0.3914  0.9836
 8142TIP3    H245918   6.344   6.464   1.392 -1.7398  0.2932 -1.3154
 8143TIP3   OH245919   5.495   0.560  15.388 -0.0825  0.3645  0.0818
 8143TIP3    H145920   5.550   0.511  15.450 -1.8822 -0.6376  0.9762
 8143TIP3    H245921   5.542   0.642  15.373  1.0806  0.0409  1.7232
 8144TIP3   OH245922   6.086   5.868  10.829  0.0272 -0.7231  0.4500
 8144TIP3    H145923   6.094   5.955  10.869 -0.8065 -0.8238  0.8650
 8144TIP3    H245924   6.154   5.816  10.871 -0.2392 -0.5768  1.0769
 8145TIP3   OH245925   6.814   5.967  12.229  0.1652  0.1968 -0.9279
 8145TIP3    H145926   6.760   6.027  12.178  0.3791  1.4526  0.2537
 8145TIP3    H245927   6.769   5.884  12.224 -1.2638  0.9460 -0.9391
 8146TIP3   OH245928   5.212   4.264  16.859 -0.1781 -0.2273  0.2175
 8146TIP3    H145929   5.266   4.184  16.860  0.9483  0.4267 -1.6702
 8146TIP3    H245930   5.205   4.290  16.951  2.5158 -0.5328  0.5895
 8147TIP3   OH245931   4.709   2.402   0.137 -0.1408  0.8396  0.0832
 8147TIP3    H145932   4.761   2.482   0.150 -0.1107  0.9837 -0.8166
 8147TIP3    H245933   4.638   2.408   0.201  1.3631  0.2569  1.8964
 8148TIP3   OH245934   5.728   6.607   4.521  0.1453 -0.8110 -0.2264
 8148TIP3    H145935   5.816   6.576   4.539  0.2194 -0.0122  0.8698
 8148TIP3    H245936   5.725   6.695   4.558 -0.8304 -0.4699 -1.0593
 8149TIP3   OH245937   6.605   5.232  12.055  0.0339  0.0442 -0.5448
 8149TIP3    H145938   6.622   5.139  12.064  0.1127 -0.0355 -1.4481
 8149TIP3    H245939   6.612   5.249  11.961  2.3059  1.3968 -0.2077
 8150TIP3   OH245940   0.192   0.089   4.181  0.4070  0.6860  0.3674
 8150TIP3    H145941   0.248   0.011   4.183  0.7377  0.9351  1.4641
 8150TIP3    H245942   0.249   0.159   4.151  0.5913  0.8689  1.1411
 8151TIP3   OH245943   6.684   0.644  13.201 -0.2952 -0.1962  0.0711
 8151TIP3    H145944   6.588   0.641  13.193 -0.1583 -1.2902 -1.5055
 8151TIP3    H245945   6.699   0.703  13.275 -2.1606  0.8946 -0.3344
 8152TIP3   OH245946   4.267   4.143   6.388  0.3868  0.2031 -0.1455
 8152TIP3    H145947   4.266   4.235   6.361 -0.6504  0.3703  0.4362
 8152TIP3    H245948   4.236   4.096   6.310  0.3718  0.3880 -0.2535
 8153TIP3   OH245949   4.054   6.462   1.397  0.0639 -0.4336  0.6400
 8153TIP3    H145950   4.016   6.437   1.481  0.3547 -0.0992  0.8708
 8153TIP3    H245951   4.094   6.381   1.364 -0.4213 -0.6691  0.6197
 8154TIP3   OH245952   0.042   0.697   2.223 -0.1430 -0.4351 -0.5783
 8154TIP3    H145953   0.035   0.792   2.231 -1.3934 -0.4939 -0.7347
 8154TIP3    H245954   0.130   0.676   2.254 -0.8966  0.4506  2.4034
 8155TIP3   OH245955   6.146   0.650  12.903 -0.3360 -0.3709 -0.3921
 8155TIP3    H145956   6.071   0.653  12.843 -0.6554 -0.2757  0.0111
 8155TIP3    H245957   6.209   0.592  12.859 -0.0770  0.6276 -1.3834
 8156TIP3   OH245958   0.016   3.234   1.563  0.0758 -1.2719 -0.1203
 8156TIP3    H145959   0.101   3.204   1.595  0.8508  1.9234  1.2585
 8156TIP3    H245960   0.033   3.266   1.475  0.0717 -1.5673 -0.2284
 8157TIP3   OH245961   1.955   5.105   2.933 -0.4235 -0.0394  0.1569
 8157TIP3    H145962   2.032   5.162   2.937 -0.0048 -0.6290  0.7815
 8157TIP3    H245963   1.943   5.088   2.839 -0.6682  1.2067 -0.0539
 8158TIP3   OH245964   3.655   6.355   0.910 -0.4237  0.4249 -0.2314
 8158TIP3    H145965   3.619   6.428   0.859 -0.1231  0.9748  0.3240
 8158TIP3    H245966   3.716   6.397   0.971 -0.1767 -0.3066  0.0306
 8159TIP3   OH245967   5.163   0.362  12.613  0.4215 -0.5784 -0.2890
 8159TIP3    H145968   5.087   0.388  12.561  0.2604  0.6836  0.5112
 8159TIP3    H245969   5.237   0.366  12.552  0.1070  0.0304 -0.6413
 8160TIP3   OH245970   5.425   0.821   1.098 -0.0016  0.1059 -1.0965
 8160TIP3    H145971   5.429   0.900   1.045 -0.2932 -0.1546 -1.5124
 8160TIP3    H245972   5.435   0.852   1.188  2.3306  0.3897 -1.3883
 8161TIP3   OH245973   0.043   1.006  16.820 -0.1038  0.0987 -0.5929
 8161TIP3    H145974  -0.002   0.977  16.899 -0.2558 -1.3320 -1.1760
 8161TIP3    H245975   0.042   0.930  16.762  1.6392  0.5210 -1.2636
 8162TIP3   OH245976   5.186   5.711   5.622  0.5327 -0.1497 -0.4615
 8162TIP3    H145977   5.243   5.682   5.694 -0.8766 -0.1160  0.7231
 8162TIP3    H245978   5.132   5.780   5.661 -0.7278 -0.6015 -1.3500
 8163TIP3   OH245979   0.207   1.597   1.560  0.2962 -0.1943  0.2969
 8163TIP3    H145980   0.294   1.585   1.523 -0.3578 -0.6729 -1.1368
 8163TIP3    H245981   0.147   1.562   1.494 -1.1034  1.8247  0.3923
 8164TIP3   OH245982   3.546   1.716   3.878  0.4256 -0.0704 -0.5253
 8164TIP3    H145983   3.556   1.673   3.964 -0.3323  0.6080 -0.0840
 8164TIP3    H245984   3.507   1.648   3.823 -1.1293  0.1204  0.2739
 8165TIP3   OH245985   4.628   5.044   2.422  0.1280  0.1436  0.5951
 8165TIP3    H145986   4.589   5.088   2.497  0.1808  0.2552  0.5570
 8165TIP3    H245987   4.615   5.105   2.349  2.0505  1.0358  0.9408
 8166TIP3   OH245988   0.386   6.731   4.168 -0.5004  0.1847  0.2013
 8166TIP3    H145989   0.430   6.672   4.108  0.6566  2.1000 -0.9654
 8166TIP3    H245990   0.386   6.685   4.252 -1.7126 -2.3485 -1.0813
 8167TIP3   OH245991   1.402   5.038  12.750 -0.5118 -0.3300 -0.1688
 8167TIP3    H145992   1.464   5.061  12.819 -0.5174 -0.2008 -0.2069
 8167TIP3    H245993   1.381   4.946  12.766 -1.4609  0.0245  0.7381
 8168TIP3   OH245994   5.077   1.556  15.762  0.4202 -0.2884  0.3000
 8168TIP3    H145995   5.060   1.474  15.716  0.7791  0.5388 -1.3768
 8168TIP3    H245996   5.024   1.550  15.842 -0.9128 -1.4302 -0.6185
 8169TIP3   OH245997   5.520   4.432  16.642 -0.1814  0.0900 -0.1763
 8169TIP3    H145998   5.428   4.451  16.625 -0.5869 -0.8503  0.8632
 8169TIP3    H245999   5.537   4.352  16.591  0.4930  1.0860 -1.5697
 8170TIP3   OH246000   5.033   4.050  10.745  0.3614 -0.0711  0.2530
 8170TIP3    H146001   4.981   4.085  10.818 -0.3069 -0.3909 -0.0559
 8170TIP3    H246002   4.969   4.005  10.690  0.8882  0.0168 -0.4424
 8171TIP3   OH246003   6.808   1.140  12.203  0.0984 -0.8028  0.1398
 8171TIP3    H146004   6.769   1.076  12.144 -2.0074  0.7999 -0.2999
 8171TIP3    H246005   6.745   1.149  12.274  0.7826  0.1495  0.6426
 8172TIP3   OH246006   0.060   6.576  11.673 -0.2230 -0.0306 -0.0903
 8172TIP3    H146007   0.087   6.581  11.581 -0.3656  1.0524 -0.0828
 8172TIP3    H246008   0.072   6.483  11.696  1.4055 -0.0143 -0.7190
 8173TIP3   OH246009   4.394   6.251   0.257 -0.1114  1.0612 -0.1348
 8173TIP3    H146010   4.485   6.269   0.233 -0.3644 -0.7876 -2.9643
 8173TIP3    H246011   4.349   6.334   0.243  0.9057  1.6634  0.0357
 8174TIP3   OH246012   2.699   3.822   2.739 -0.2400 -0.3240  0.3465
 8174TIP3    H146013   2.755   3.760   2.785 -0.9680 -0.3096  1.2782
 8174TIP3    H246014   2.639   3.767   2.688  1.4471 -0.3362 -1.7371
 8175TIP3   OH246015   4.853   3.088  15.202 -0.6913  0.2421 -0.4843
 8175TIP3    H146016   4.822   3.049  15.284  0.2516  0.2907 -0.0979
 8175TIP3    H246017   4.783   3.070  15.139 -0.7801 -1.0532 -0.0331
 8176TIP3   OH246018   6.512   2.124  16.067 -0.5567 -0.1823  0.1250
 8176TIP3    H146019   6.482   2.114  16.157 -0.2631  0.5365  0.3132
 8176TIP3    H246020   6.577   2.195  16.071  1.7544 -2.1425 -0.1264
 8177TIP3   OH246021   6.008   3.999   2.311 -0.6065  0.4940 -0.4990
 8177TIP3    H146022   5.920   4.033   2.323 -0.8114 -0.1686 -0.0615
 8177TIP3    H246023   6.051   4.062   2.254 -1.7093  0.2285 -1.6528
 8178TIP3   OH246024   0.008   1.558   4.757 -0.2741  0.0726 -0.6988
 8178TIP3    H146025   0.099   1.577   4.780 -0.6445 -0.0540  0.9749
 8178TIP3    H246026   0.013   1.478   4.705  0.4883 -0.6946  0.4925
 8179TIP3   OH246027   0.567   3.010   5.179 -0.0916  0.3569 -0.5121
 8179TIP3    H146028   0.584   2.924   5.216  0.0099  0.0551 -1.2493
 8179TIP3    H246029   0.472   3.014   5.170  0.0357 -0.7527 -2.9544
 8180TIP3   OH246030   6.489   1.427  17.049  0.2167 -0.1385  0.3421
 8180TIP3    H146031   6.460   1.460  17.134 -0.6626  1.2722 -0.4685
 8180TIP3    H246032   6.584   1.441  17.049 -0.1780  3.5916 -0.3499
 8181TIP3   OH246033   5.923   3.222  16.313  0.5455  0.6196 -0.1298
 8181TIP3    H146034   5.965   3.240  16.229  2.1602  0.9568  0.7093
 8181TIP3    H246035   5.982   3.162  16.358 -1.4521 -1.4844 -0.1449
 8182TIP3   OH246036   6.751   4.971   2.103 -0.6106 -0.2979  0.0592
 8182TIP3    H146037   6.699   5.044   2.135  1.7141  1.4417  0.1325
 8182TIP3    H246038   6.805   4.945   2.177 -0.7284 -1.5072 -0.2471
 8183TIP3   OH246039   2.301   3.054  14.213 -0.1005  0.6197 -0.2044
 8183TIP3    H146040   2.254   3.016  14.139 -0.6280  0.3371  0.2644
 8183TIP3    H246041   2.382   3.003  14.219  0.2202  1.0197 -0.9305
 8184TIP3   OH246042   0.310   5.823   3.497  0.0677 -0.2016 -0.2702
 8184TIP3    H146043   0.347   5.795   3.413 -0.8661 -0.3329 -0.6467
 8184TIP3    H246044   0.347   5.910   3.512 -0.8194  0.4217 -1.5059
 8185TIP3   OH246045   5.985   3.225   3.166  0.1062  0.0594 -0.3139
 8185TIP3    H146046   5.945   3.300   3.210  0.1773  0.0019 -0.1507
 8185TIP3    H246047   5.995   3.159   3.235 -0.2707 -0.2252 -0.5312
 8186TIP3   OH246048   4.648   4.492   2.117 -0.0109  0.0327 -0.3652
 8186TIP3    H146049   4.734   4.449   2.115 -0.2705 -0.9179  3.0113
 8186TIP3    H246050   4.664   4.575   2.162 -1.0715 -0.9715  2.0075
 8187TIP3   OH246051   0.999   5.744   2.909  0.3532 -0.4481  0.8313
 8187TIP3    H146052   1.001   5.784   2.996 -0.4050  1.6013 -0.0240
 8187TIP3    H246053   1.059   5.798   2.857 -2.5439  1.3031 -0.9859
 8188TIP3   OH246054   1.656   6.633  11.759  0.3070 -0.2078 -0.0266
 8188TIP3    H146055   1.687   6.723  11.759  0.5909 -0.2535 -2.1532
 8188TIP3    H246056   1.611   6.622  11.843  0.1097  1.9470  0.1871
 8189TIP3   OH246057   1.274   5.827  13.892 -0.8131  0.5635  0.7482
 8189TIP3    H146058   1.215   5.787  13.829 -2.9976 -1.1141  3.6120
 8189TIP3    H246059   1.331   5.756  13.921 -0.7414  0.9531  1.6061
 8190TIP3   OH246060   1.605   4.770  16.890  0.1934 -0.0967  0.8047
 8190TIP3    H146061   1.628   4.851  16.935  1.5807  1.2562 -2.0191
 8190TIP3    H246062   1.514   4.755  16.912 -0.0950  2.2503  1.4589
 8191TIP3   OH246063   2.293   3.974   1.664  0.0319 -0.2422  0.1791
 8191TIP3    H146064   2.229   3.924   1.614  0.1078  1.7343 -2.0222
 8191TIP3    H246065   2.368   3.983   1.605 -0.2470  2.9903  0.1679
 8192TIP3   OH246066   0.441   1.510  14.835  0.4236  0.0938  0.0257
 8192TIP3    H146067   0.488   1.557  14.905  0.1845  0.5221 -0.0958
 8192TIP3    H246068   0.365   1.472  14.878  1.5239 -1.6714  0.4857
 8193TIP3   OH246069   1.547   6.150   4.293 -0.1795  0.2904  0.3583
 8193TIP3    H146070   1.602   6.131   4.217 -0.7883  0.4333 -0.1206
 8193TIP3    H246071   1.547   6.069   4.343  1.0785  0.5097  0.7599
 8194TIP3   OH246072   1.519   2.258  15.327 -0.3528  0.0416 -0.2239
 8194TIP3    H146073   1.611   2.234  15.339 -0.3723 -0.0698 -0.2932
 8194TIP3    H246074   1.518   2.353  15.330 -0.1466  0.0687 -0.8071
 8195TIP3   OH246075   3.373   3.957   6.638  0.0374 -0.7115  0.6008
 8195TIP3    H146076   3.444   3.900   6.666  1.2169  0.9962  1.3143
 8195TIP3    H246077   3.307   3.950   6.707  0.4719 -0.7244  1.0191
 8196TIP3   OH246078   4.507   6.588   1.724 -0.1831 -0.8487  0.1119
 8196TIP3    H146079   4.582   6.539   1.755  0.8419  0.2300 -0.5808
 8196TIP3    H246080   4.466   6.530   1.659  1.1131 -0.7386 -0.8356
 8197TIP3   OH246081   6.693   3.184   0.756 -0.8026  0.1576  0.0626
 8197TIP3    H146082   6.605   3.152   0.776 -0.8214  1.0401  1.5853
 8197TIP3    H246083   6.746   3.156   0.831  0.1128  0.0592 -0.6022
 8198TIP3   OH246084   2.912   4.474  14.056 -0.8540  0.7056 -0.5575
 8198TIP3    H146085   2.980   4.459  13.990  0.4415 -0.4339  0.9666
 8198TIP3    H246086   2.956   4.460  14.139 -3.2785 -1.4611  0.4814
 8199TIP3   OH246087   2.185   4.910   6.137 -0.6282 -0.0608  0.0078
 8199TIP3    H146088   2.110   4.870   6.094 -0.8772  0.2468  0.1523
 8199TIP3    H246089   2.148   4.961   6.209 -0.4394  1.4194 -0.8968
 8200TIP3   OH246090   0.903   5.478   0.305 -0.3058  0.1540  0.4853
 8200TIP3    H146091   0.810   5.482   0.283 -0.3751 -3.5918 -0.6024
 8200TIP3    H246092   0.912   5.397   0.357  2.4570 -0.0836 -0.1816
 8201TIP3   OH246093   1.160   6.643  11.296  0.1463  0.0504 -0.1357
 8201TIP3    H146094   1.072   6.610  11.279  0.0167 -0.0126  0.6286
 8201TIP3    H246095   1.162   6.660  11.390  0.7222  0.7294 -0.2570
 8202TIP3   OH246096   5.590   5.764  14.885  0.0159 -0.5296 -0.2275
 8202TIP3    H146097   5.569   5.790  14.795  0.4971 -2.5933 -0.9887
 8202TIP3    H246098   5.645   5.834  14.918  2.1843 -0.9687 -2.5438
 8203TIP3   OH246099   2.591   3.424  14.123  0.3819  0.1594  0.6975
 8203TIP3    H146100   2.533   3.496  14.149 -0.5281 -0.1277 -0.4378
 8203TIP3    H246101   2.608   3.440  14.030 -2.1298 -2.5403 -0.3591
 8204TIP3   OH246102   6.002   0.696   2.638  0.2407  0.7549  0.1896
 8204TIP3    H146103   6.051   0.619   2.667  1.6137  1.6880  0.4400
 8204TIP3    H246104   5.955   0.666   2.560  1.7479 -0.0446 -0.4657
 8205TIP3   OH246105   5.404   5.637   6.049 -0.4727 -0.0563  0.6917
 8205TIP3    H146106   5.387   5.591   5.967 -0.7693  1.6409 -0.2276
 8205TIP3    H246107   5.374   5.577   6.117 -2.3819 -0.5538 -0.5331
 8206TIP3   OH246108   3.919   0.426  15.372  0.6855 -0.5242 -0.0495
 8206TIP3    H146109   3.959   0.383  15.447 -0.0882  2.2404  2.1098
 8206TIP3    H246110   3.961   0.386  15.296  2.2662 -2.7119  1.8290
 8207TIP3   OH246111   6.344   4.629  15.744  0.5192 -0.2867 -0.2665
 8207TIP3    H146112   6.251   4.642  15.722  0.3103 -0.0486  0.7202
 8207TIP3    H246113   6.348   4.637  15.839  1.6551  0.3564 -0.3425
 8208TIP3   OH246114   2.339   3.687   1.877 -0.1704  0.3581  0.0437
 8208TIP3    H146115   2.385   3.658   1.956  0.0651  0.0226 -0.2176
 8208TIP3    H246116   2.246   3.684   1.902 -0.0993  0.2344  0.3033
 8209TIP3   OH246117   6.679   6.104   4.132  0.0873 -0.0500 -0.0279
 8209TIP3    H146118   6.607   6.045   4.111 -0.3855 -0.2676  1.9494
 8209TIP3    H246119   6.651   6.190   4.101 -0.6298 -0.3053 -0.0852
 8210TIP3   OH246120   3.987   4.245  13.206 -0.0867 -0.3829 -0.9253
 8210TIP3    H146121   3.975   4.340  13.204 -0.9131 -0.3283  1.8487
 8210TIP3    H246122   4.064   4.229  13.153  0.9370  2.0313 -0.2877
 8211TIP3   OH246123   2.141   3.545   6.078 -0.2016 -0.5649 -0.2069
 8211TIP3    H146124   2.227   3.549   6.120 -0.2592  1.2265 -0.1648
 8211TIP3    H246125   2.101   3.630   6.099 -1.6954 -1.0873 -0.8283
 8212TIP3   OH246126   2.535   5.832  13.925  0.2834  0.8248  0.8957
 8212TIP3    H146127   2.485   5.752  13.914 -1.1234  1.5921  1.5116
 8212TIP3    H246128   2.591   5.816  14.001  0.2444  0.3228  0.8173
 8213TIP3   OH246129   5.022   2.527   3.396  0.3792  0.0429  0.2281
 8213TIP3    H146130   5.083   2.582   3.347  0.1628 -1.2048 -1.4987
 8213TIP3    H246131   5.072   2.497   3.472  1.3219  0.4905 -0.2104
 8214TIP3   OH246132   0.065   3.701  11.629  0.4810 -0.3120  0.3993
 8214TIP3    H146133   0.097   3.778  11.675 -1.2088 -0.6534  2.2567
 8214TIP3    H246134   0.059   3.633  11.696 -1.4298 -1.0328 -0.4351
 8215TIP3   OH246135   0.609   3.482   6.074  0.0952  0.3498  0.0835
 8215TIP3    H146136   0.617   3.488   5.979  0.3433 -1.6767 -0.0692
 8215TIP3    H246137   0.587   3.571   6.102  0.9004  1.1828 -1.7671
 8216TIP3   OH246138   0.394   4.954  16.244 -0.0041 -0.1179  0.0883
 8216TIP3    H146139   0.454   4.955  16.170  1.3031  0.4284  1.1177
 8216TIP3    H246140   0.325   5.016  16.221  0.6901  0.4677 -0.4246
 8217TIP3   OH246141   5.537   1.205  15.478 -0.1401 -0.1221 -0.3030
 8217TIP3    H146142   5.601   1.136  15.493  0.6586  0.4907 -0.7832
 8217TIP3    H246143   5.560   1.240  15.391  0.3210  1.6144  0.4844
 8218TIP3   OH246144   3.925   6.528   3.987  0.5079  0.8794  0.2600
 8218TIP3    H146145   3.865   6.600   3.968 -2.7833 -2.2171 -2.4575
 8218TIP3    H246146   3.978   6.518   3.908  0.1778 -0.2908  0.1632
 8219TIP3   OH246147   4.430   2.253   0.717  0.2334  0.0471  0.0673
 8219TIP3    H146148   4.415   2.333   0.665  0.9127  1.7299  2.3218
 8219TIP3    H246149   4.525   2.248   0.725  0.1274 -0.0023  1.3795
 8220TIP3   OH246150   0.059   4.761   5.773  0.0328 -0.1957 -0.3451
 8220TIP3    H146151   0.142   4.717   5.752  1.7134  2.6068 -0.0125
 8220TIP3    H246152   0.053   4.756   5.868  0.0603 -0.0254 -0.3339
 8221TIP3   OH246153   0.592   1.698  13.087  0.4885 -0.1176 -0.2518
 8221TIP3    H146154   0.507   1.654  13.085  0.1600  0.4536  0.5106
 8221TIP3    H246155   0.656   1.627  13.074  0.1064 -1.2768  3.0314
 8222TIP3   OH246156   0.479   2.186  14.855 -0.2022  0.3038  0.2415
 8222TIP3    H146157   0.554   2.242  14.874 -0.5671  1.2229 -0.8811
 8222TIP3    H246158   0.404   2.245  14.858 -0.6273 -0.1753 -0.6821
 8223TIP3   OH246159   2.337   2.134   1.063  0.0564  0.0835 -0.2878
 8223TIP3    H146160   2.342   2.179   0.979 -3.8328  2.0561  0.3068
 8223TIP3    H246161   2.283   2.057   1.046 -0.3147  0.2114  0.2660
 8224TIP3   OH246162   6.514   0.873  12.239 -0.5726 -0.1986 -0.1190
 8224TIP3    H146163   6.520   0.856  12.145  0.4798  0.2909 -0.1627
 8224TIP3    H246164   6.566   0.803  12.279 -0.6960 -0.1799  0.0746
 8225TIP3   OH246165   4.698   0.829  11.700 -0.1958  0.2528  0.6224
 8225TIP3    H146166   4.753   0.899  11.734  4.0595 -0.1607 -4.2514
 8225TIP3    H246167   4.654   0.867  11.624 -1.7416 -1.1877  0.7178
 8226TIP3   OH246168   3.155   0.530   3.538  0.4795  0.2760 -0.0716
 8226TIP3    H146169   3.134   0.589   3.467 -1.3520  1.1542  1.1065
 8226TIP3    H246170   3.121   0.445   3.509 -1.7536  0.9512  0.3121
 8227TIP3   OH246171   6.269   3.217   0.490 -0.5298 -0.2230 -0.3482
 8227TIP3    H146172   6.173   3.215   0.488 -0.5467  0.1540 -2.3718
 8227TIP3    H246173   6.295   3.127   0.470 -0.4500 -0.2495 -0.1314
 8228TIP3   OH246174   2.539   6.068  11.565 -0.5239  0.4968  0.5446
 8228TIP3    H146175   2.605   6.052  11.497 -1.1004  1.1976 -0.2085
 8228TIP3    H246176   2.505   5.982  11.586  1.4093 -0.0274  1.7797
 8229TIP3   OH246177   5.121   1.692   1.303 -0.2115  0.2342 -0.0029
 8229TIP3    H146178   5.133   1.762   1.238  4.3830  0.8120  1.1550
 8229TIP3    H246179   5.105   1.739   1.385  1.0245 -0.1007  0.4491
 8230TIP3   OH246180   3.285   6.194   3.618 -0.1984  0.0808  0.8721
 8230TIP3    H146181   3.225   6.212   3.545  0.1858 -0.1624  0.4906
 8230TIP3    H246182   3.362   6.155   3.576  0.0085 -0.0978  1.4151
 8231TIP3   OH246183   5.138   5.255  13.431 -0.0281  0.1634 -0.4055
 8231TIP3    H146184   5.121   5.199  13.506 -1.1960 -0.8663 -1.4040
 8231TIP3    H246185   5.058   5.306  13.420  0.2920  0.6135 -0.7112
 8232TIP3   OH246186   6.552   4.013   1.012 -0.2344  0.0916 -0.3268
 8232TIP3    H146187   6.515   3.929   1.037  0.4403 -0.2342 -0.3879
 8232TIP3    H246188   6.507   4.037   0.931 -0.7609  0.0235 -0.0592
 8233TIP3   OH246189   4.961   2.072   6.680  0.3641  0.3030  0.1766
 8233TIP3    H146190   4.924   2.151   6.641  1.6175  0.3985 -0.8961
 8233TIP3    H246191   5.031   2.046   6.620  1.0851 -0.6674  1.3841
 8234TIP3   OH246192   2.123   0.526   2.929  0.0489 -0.1036  0.1492
 8234TIP3    H146193   2.067   0.561   2.859  0.8700 -1.5604 -1.3072
 8234TIP3    H246194   2.150   0.603   2.979 -0.7856  0.9533 -0.9639
 8235TIP3   OH246195   5.134   2.287  12.191 -0.4745 -0.1365  0.7593
 8235TIP3    H146196   5.159   2.203  12.153  1.2511  0.3481  0.7673
 8235TIP3    H246197   5.161   2.352  12.126 -2.2414  0.4313  0.5268
 8236TIP3   OH246198   3.992   5.041   4.134 -0.4153 -0.2397 -0.0113
 8236TIP3    H146199   4.033   4.993   4.207  0.6722  0.5789 -0.0645
 8236TIP3    H246200   3.926   5.095   4.176  0.3272  0.3625  0.4189
 8237TIP3   OH246201   1.156   5.311   5.985 -0.3640  0.4442  0.6175
 8237TIP3    H146202   1.076   5.339   6.029 -1.0274 -0.6956  0.1626
 8237TIP3    H246203   1.222   5.373   6.016 -1.4125  1.4309  0.9720
 8238TIP3   OH246204   0.310   3.570   1.389 -0.0224 -0.3531 -0.2269
 8238TIP3    H146205   0.362   3.490   1.398 -0.9810 -0.8339  1.6390
 8238TIP3    H246206   0.282   3.591   1.478  0.6541  2.4179 -0.5795
 8239TIP3   OH246207   2.121   0.491  12.168 -0.0122  0.3700  0.8654
 8239TIP3    H146208   2.104   0.472  12.261 -0.2396 -3.0806  0.2673
 8239TIP3    H246209   2.215   0.478  12.158 -0.1744 -0.5319  0.4108
 8240TIP3   OH246210   0.839   1.181   1.332 -0.2018  0.3020  0.4301
 8240TIP3    H146211   0.867   1.273   1.331 -0.6953  0.4891 -2.1700
 8240TIP3    H246212   0.760   1.179   1.278 -0.3037 -1.6284  0.5813
 8241TIP3   OH246213   4.506   1.919   1.650 -0.0804  0.4299  0.0938
 8241TIP3    H146214   4.587   1.934   1.698  0.7013  2.2097 -1.6816
 8241TIP3    H246215   4.496   1.824   1.648  2.3461  0.1390 -0.2665
 8242TIP3   OH246216   5.019   3.725  13.169 -0.2754  0.3821 -0.4519
 8242TIP3    H146217   5.105   3.768  13.160 -0.6456  0.8176 -2.2026
 8242TIP3    H246218   5.020   3.689  13.258  1.5813  0.6888 -0.3024
 8243TIP3   OH246219   3.968   5.684   1.793 -0.2266 -0.2693  0.0120
 8243TIP3    H146220   4.062   5.665   1.793  0.0749  1.1294 -0.0666
 8243TIP3    H246221   3.943   5.685   1.885  0.3799  1.7474  0.1995
 8244TIP3   OH246222   5.081   4.033  11.889  0.4060 -0.5266 -0.0173
 8244TIP3    H146223   5.133   4.033  11.970 -0.5415 -0.0605  0.6136
 8244TIP3    H246224   5.014   4.099  11.904 -1.1597 -1.9794 -0.2786
 8245TIP3   OH246225   5.268   6.730   5.101 -0.2512  0.3962  0.2637
 8245TIP3    H146226   5.278   6.635   5.096  0.2188  0.4705 -0.4417
 8245TIP3    H246227   5.358   6.763   5.101 -0.4042  0.8856 -1.0172
 8246TIP3   OH246228   4.456   1.280  13.110  0.3547  0.4428 -0.5315
 8246TIP3    H146229   4.472   1.374  13.118 -0.6164  0.5766  0.0707
 8246TIP3    H246230   4.361   1.272  13.107  0.4335 -0.3820 -2.7631
 8247TIP3   OH246231   1.579   1.192  14.401  0.1965  0.5737  0.1452
 8247TIP3    H146232   1.502   1.247  14.385  0.2871  1.1265  1.5521
 8247TIP3    H246233   1.646   1.228  14.342 -0.2439  0.8886 -0.1733
 8248TIP3   OH246234   0.678   5.802  11.786 -0.1115  0.0613 -0.3022
 8248TIP3    H146235   0.631   5.773  11.707  0.1787 -0.2286 -0.3710
 8248TIP3    H246236   0.765   5.826  11.754  0.6792 -1.9361  0.2047
 8249TIP3   OH246237   3.986   0.333   4.261  0.0908 -0.3955 -0.3909
 8249TIP3    H146238   3.980   0.278   4.339  2.1870 -0.8359 -0.4670
 8249TIP3    H246239   3.988   0.423   4.295  1.4414 -0.6004  0.1516
 8250TIP3   OH246240   6.588   3.426  14.959  0.2642 -0.5333 -0.5693
 8250TIP3    H146241   6.649   3.435  15.032  0.0605  0.2548 -0.4958
 8250TIP3    H246242   6.642   3.392  14.887  1.1204  1.4528 -0.9297
 8251TIP3   OH246243   5.008   3.376  15.671  0.4540 -0.3794 -0.2349
 8251TIP3    H146244   5.077   3.442  15.661  0.0099  0.0785 -0.3150
 8251TIP3    H246245   4.928   3.427  15.687 -0.0130 -0.8761 -0.9503
 8252TIP3   OH246246   1.584   1.173   3.272  0.3598  0.0033  0.2298
 8252TIP3    H146247   1.531   1.226   3.213  0.4497 -0.6125 -0.4172
 8252TIP3    H246248   1.597   1.228   3.349  1.2738  1.3125 -0.8151
 8253TIP3   OH246249   5.186   4.756  13.859 -0.4787  0.0400  0.6843
 8253TIP3    H146250   5.203   4.839  13.814 -0.9686 -1.7017 -3.0327
 8253TIP3    H246251   5.107   4.772  13.910  0.3008  2.2231  1.3603
 8254TIP3   OH246252   1.906   3.469  12.398 -0.0264 -0.1880 -0.3332
 8254TIP3    H146253   1.890   3.524  12.321 -1.7381 -0.2800 -0.0724
 8254TIP3    H246254   1.978   3.512  12.443  1.0106 -0.1143 -1.9511
 8255TIP3   OH246255   1.936   4.241  13.574 -0.0748 -0.1313 -0.5139
 8255TIP3    H146256   2.023   4.251  13.613  0.1531 -0.4978 -0.9135
 8255TIP3    H246257   1.952   4.246  13.480 -0.5196  0.0369 -0.5795
 8256TIP3   OH246258   6.778   0.547  11.699  0.3083 -0.0399 -0.6257
 8256TIP3    H146259   6.799   0.481  11.633  0.6860 -0.3956 -0.1558
 8256TIP3    H246260   6.863   0.583  11.724  0.0590  1.1092 -1.3625
 8257TIP3   OH246261   0.099   5.074   5.619  0.5977 -1.0180 -0.4717
 8257TIP3    H146262   0.173   5.070   5.558 -0.8113 -1.5016 -2.2061
 8257TIP3    H246263   0.027   5.110   5.568  0.1158  1.5389  1.7564
 8258TIP3   OH246264   5.101   5.876   5.810  0.4727  0.1018 -0.3483
 8258TIP3    H146265   5.169   5.874   5.877  0.1190 -0.9338 -0.0010
 8258TIP3    H246266   5.054   5.958   5.826 -0.3038 -0.6301  1.4102
 8259TIP3   OH246267   3.040   3.244  10.657  0.7363  0.5547  0.2372
 8259TIP3    H146268   3.036   3.339  10.645  1.0529  0.3687 -1.7473
 8259TIP3    H246269   3.130   3.221  10.634  0.3876 -0.3141 -0.3336
 8260TIP3   OH246270   1.750   2.466  15.671 -0.8134  0.0125 -0.2994
 8260TIP3    H146271   1.845   2.476  15.663 -0.8682  0.3529 -0.5824
 8260TIP3    H246272   1.738   2.394  15.732 -0.3712  0.2330  0.0570
 8261TIP3   OH246273   5.745   1.293  13.698 -0.0148  0.0128  0.5647
 8261TIP3    H146274   5.687   1.239  13.645  1.5019 -1.9031  0.7639
 8261TIP3    H246275   5.723   1.271  13.788  0.4646 -0.1070  0.6551
 8262TIP3   OH246276   4.005   6.327  14.900  0.4656 -0.1748 -0.3016
 8262TIP3    H146277   4.038   6.354  14.985  1.3769 -2.0833  0.0111
 8262TIP3    H246278   3.911   6.315  14.914  0.6610 -0.8000  0.5473
 8263TIP3   OH246279   6.685   2.754  11.365 -0.1473 -0.3745 -0.7449
 8263TIP3    H146280   6.684   2.848  11.346 -0.4611 -0.0903  0.6079
 8263TIP3    H246281   6.771   2.725  11.334  0.9031  0.8353  0.8735
 8264TIP3   OH246282   0.610   1.125  11.406 -0.0593  0.3869 -0.0210
 8264TIP3    H146283   0.522   1.162  11.416  0.2186  1.1252 -0.1913
 8264TIP3    H246284   0.666   1.202  11.393  0.7599  0.0025  1.1230
 8265TIP3   OH246285   0.367   3.376  15.642 -0.2260  0.2832 -0.0184
 8265TIP3    H146286   0.408   3.446  15.692 -2.0277 -0.0102  2.0133
 8265TIP3    H246287   0.299   3.420  15.591  0.9401  0.4348 -1.5253
 8266TIP3   OH246288   0.358   5.449   4.710 -0.1686 -0.3351 -0.1871
 8266TIP3    H146289   0.406   5.413   4.784 -0.0309  0.6108  0.1953
 8266TIP3    H246290   0.405   5.529   4.687 -1.7230  0.7961  0.4122
 8267TIP3   OH246291   1.534   4.789  14.837  0.8429 -0.3156 -0.4108
 8267TIP3    H146292   1.586   4.724  14.884  0.2780 -0.5696 -0.1259
 8267TIP3    H246293   1.530   4.756  14.748  2.3203  0.4078 -0.7879
 8268TIP3   OH246294   2.509   6.630   3.879 -0.3976 -0.0968 -0.0328
 8268TIP3    H146295   2.537   6.560   3.820  4.0733  2.3361 -1.2214
 8268TIP3    H246296   2.551   6.609   3.963  0.4935  0.7874 -0.2392
 8269TIP3   OH246297   2.678   2.762   2.837 -0.1276 -0.1442 -0.1556
 8269TIP3    H146298   2.629   2.706   2.897 -0.7102 -0.3045 -0.7590
 8269TIP3    H246299   2.673   2.717   2.753 -1.1947  1.1204 -0.8113
 8270TIP3   OH246300   3.670   6.133  14.553 -0.2597 -0.6721  0.3718
 8270TIP3    H146301   3.611   6.141  14.478 -0.3917  1.0101  0.6188
 8270TIP3    H246302   3.739   6.199  14.537 -0.9412  0.5968  2.2679
 8271TIP3   OH246303   5.900   3.517  12.466  0.2114  0.5513  0.1617
 8271TIP3    H146304   5.880   3.496  12.557 -0.6211 -1.4235 -0.4120
 8271TIP3    H246305   5.820   3.557  12.432  0.0416  0.0601 -0.0303
 8272TIP3   OH246306   3.733   4.007  13.627  0.2583 -0.3443 -0.3399
 8272TIP3    H146307   3.673   4.009  13.553  0.0132 -1.9748 -0.2088
 8272TIP3    H246308   3.820   4.001  13.587  0.3816  1.7494 -0.5211
 8273TIP3   OH246309   6.471   0.031   2.962  0.2168  0.3366  0.1085
 8273TIP3    H146310   6.380   0.005   2.977  0.3955 -0.9627 -0.8319
 8273TIP3    H246311   6.493   0.087   3.036 -0.5607 -1.3884  1.7065
 8274TIP3   OH246312   5.233   1.765  11.960  0.7395  0.4411  0.1329
 8274TIP3    H146313   5.229   1.828  11.888 -0.8625  1.0552  0.7297
 8274TIP3    H246314   5.149   1.718  11.956  0.6561  0.4288  1.5435
 8275TIP3   OH246315   0.589   5.885  15.774  0.1297 -0.3673  0.6253
 8275TIP3    H146316   0.679   5.913  15.794  0.6690  0.6790 -2.6494
 8275TIP3    H246317   0.599   5.797  15.738 -0.0213 -0.0021 -0.3498
 8276TIP3   OH246318   6.410   3.888   0.337  0.5407  0.0032 -0.7677
 8276TIP3    H146319   6.432   3.802   0.300  1.2648 -0.5996  0.9499
 8276TIP3    H246320   6.412   3.874   0.432 -4.3453  0.6777 -0.3418
 8277TIP3   OH246321   2.880   2.790   4.191 -0.1334 -0.4777  0.1059
 8277TIP3    H146322   2.832   2.721   4.145 -0.2335  0.3833 -1.1397
 8277TIP3    H246323   2.920   2.841   4.121  1.6079 -0.4415  1.0763
 8278TIP3   OH246324   4.031   3.463  14.945 -0.1994 -0.4459  0.2350
 8278TIP3    H146325   3.947   3.487  14.985 -0.2325  2.1473 -1.1748
 8278TIP3    H246326   4.007   3.420  14.863 -0.2780  1.3402 -0.7540
 8279TIP3   OH246327   4.850   2.716   4.497 -0.0513 -0.0295  0.3388
 8279TIP3    H146328   4.866   2.799   4.542 -1.5626 -0.5665  1.9944
 8279TIP3    H246329   4.934   2.671   4.499  0.5292  1.0190  0.3619
 8280TIP3   OH246330   4.254   4.029   4.299 -0.2455 -0.3189 -0.2087
 8280TIP3    H146331   4.227   4.050   4.388 -1.2080 -2.4664  0.0574
 8280TIP3    H246332   4.330   4.086   4.284  1.6982 -1.7714  2.9971
 8281TIP3   OH246333   4.166   4.875  13.964 -0.3768 -0.0656  0.0100
 8281TIP3    H146334   4.200   4.863  14.052  0.8286 -1.8400 -0.6518
 8281TIP3    H246335   4.078   4.838  13.967 -0.2675 -0.2933  0.4119
 8282TIP3   OH246336   4.745   0.136   0.826 -0.3266  0.0296  0.4715
 8282TIP3    H146337   4.778   0.211   0.877 -1.4857 -0.4855  2.0711
 8282TIP3    H246338   4.650   0.137   0.841 -0.3211 -2.0539  1.0056
 8283TIP3   OH246339   2.191   1.430  16.296  0.4872  0.0053 -0.3091
 8283TIP3    H146340   2.141   1.486  16.237 -0.0871 -0.2079 -0.0346
 8283TIP3    H246341   2.280   1.463  16.291  0.4007  0.1340 -1.1178
 8284TIP3   OH246342   2.293   2.896   2.765 -0.0200  0.7025 -0.2392
 8284TIP3    H146343   2.280   2.828   2.831  0.5069  0.9984  0.1835
 8284TIP3    H246344   2.364   2.951   2.800  0.0071  1.0924 -0.8698
 8285TIP3   OH246345   2.778   4.746   5.852  0.3689 -0.5829  0.3480
 8285TIP3    H146346   2.739   4.819   5.805 -1.0789 -0.5215  1.5749
 8285TIP3    H246347   2.771   4.771   5.945  1.5842 -1.4455  0.7019
 8286TIP3   OH246348   5.186   1.705   5.977 -0.2406  0.0212 -0.3570
 8286TIP3    H146349   5.257   1.747   5.928  0.0391  1.0281  0.8605
 8286TIP3    H246350   5.186   1.749   6.062 -0.9667 -1.3951  0.4202
 8287TIP3   OH246351   5.511   6.393  16.833  0.2006 -0.9111 -0.5526
 8287TIP3    H146352   5.498   6.446  16.754  0.8683  0.3428  0.1521
 8287TIP3    H246353   5.596   6.351  16.819  1.8462  1.7163  0.7386
 8288TIP3   OH246354   0.855   3.318   3.760 -0.0509  0.3025 -0.1681
 8288TIP3    H146355   0.922   3.256   3.792 -0.0804  0.5620  0.4030
 8288TIP3    H246356   0.789   3.262   3.719 -0.5308 -0.1256  1.1586
 8289TIP3   OH246357   3.444   1.502   3.754 -0.1165 -0.0452  0.3392
 8289TIP3    H146358   3.459   1.441   3.682  0.5886 -0.5813  0.9281
 8289TIP3    H246359   3.439   1.447   3.832 -2.4322  0.3649  0.5532
 8290TIP3   OH246360   5.081   3.589  10.760 -0.5199  0.8982  0.7956
 8290TIP3    H146361   5.069   3.589  10.665  1.2308 -1.8722  0.4791
 8290TIP3    H246362   5.025   3.518  10.791  1.4627 -0.5100  1.3418
 8291TIP3   OH246363   1.815   6.501   2.119 -0.3633  0.5110  0.8224
 8291TIP3    H146364   1.751   6.554   2.071 -0.4109 -0.4882 -0.2512
 8291TIP3    H246365   1.851   6.442   2.054  1.0759  0.4924  1.5882
 8292TIP3   OH246366   6.826   5.842  16.154 -0.2174 -0.1345  0.2771
 8292TIP3    H146367   6.810   5.849  16.248  1.0839  0.2985  0.4850
 8292TIP3    H246368   6.829   5.748  16.136 -0.8084 -0.2172  0.5982
 8293TIP3   OH246369   4.158   0.501  13.930 -0.5002 -0.1817 -0.1602
 8293TIP3    H146370   4.107   0.514  14.009 -0.5987  0.6291 -0.3481
 8293TIP3    H246371   4.184   0.589  13.903  1.9041 -0.6140  0.5152
 8294TIP3   OH246372   5.969   3.853   4.400  0.0567 -0.4743  0.0458
 8294TIP3    H146373   6.021   3.923   4.439 -0.5998  0.9894 -1.5802
 8294TIP3    H246374   5.936   3.803   4.475 -0.3015  1.5763  1.3440
 8295TIP3   OH246375   4.984   3.564  14.276  0.0081  0.3159  0.2002
 8295TIP3    H146376   5.045   3.637  14.268 -0.4525  0.5972 -0.7863
 8295TIP3    H246377   4.990   3.518  14.192 -0.7380  0.0250  0.3010
 8296TIP3   OH246378   1.735   4.372  12.757 -0.0073  0.0026 -0.1383
 8296TIP3    H146379   1.795   4.409  12.693  1.2677 -1.2189  0.3001
 8296TIP3    H246380   1.762   4.411  12.840  1.5566 -1.9990  0.3806
 8297TIP3   OH246381   2.443   1.992   3.052 -0.2932 -0.1356  0.5516
 8297TIP3    H146382   2.432   2.013   2.959 -0.4024  1.4557  0.9128
 8297TIP3    H246383   2.355   1.971   3.083 -0.2808 -0.5007  0.3581
 8298TIP3   OH246384   2.786   2.471  12.998  0.1947 -0.0656  0.5251
 8298TIP3    H146385   2.716   2.417  12.963 -1.9441  1.8505  1.5840
 8298TIP3    H246386   2.778   2.554  12.951  2.3479 -0.0612  0.0651
 8299TIP3   OH246387   5.635   5.663  13.754  0.1215 -0.5354  0.1258
 8299TIP3    H146388   5.589   5.717  13.819  1.1575 -0.9090  1.2084
 8299TIP3    H246389   5.678   5.726  13.696 -0.1612 -0.1956  0.2816
 8300TIP3   OH246390   4.185   2.422   4.731  0.1010 -0.7737 -0.4199
 8300TIP3    H146391   4.255   2.469   4.684  0.9904 -0.6754  0.9664
 8300TIP3    H246392   4.226   2.342   4.761 -0.3781 -0.7001  0.4411
 8301TIP3   OH246393   3.144   0.476   3.134  0.5943  0.2432  1.3002
 8301TIP3    H146394   3.190   0.518   3.061  0.7034 -0.0589  1.1919
 8301TIP3    H246395   3.068   0.533   3.150 -0.0111 -0.2265  0.2658
 8302TIP3   OH246396   1.177   3.955  15.520  0.0050 -0.1880  0.4965
 8302TIP3    H146397   1.261   3.946  15.564 -1.0935 -0.1200  2.7660
 8302TIP3    H246398   1.157   4.048  15.527 -0.9308 -0.4338  1.3943
 8303TIP3   OH246399   3.964   0.110   3.790  0.3430  0.1588 -0.6728
 8303TIP3    H146400   3.899   0.064   3.843  1.0357  0.8589  0.8324
 8303TIP3    H246401   3.991   0.045   3.724 -0.0355 -0.9792  0.2552
 8304TIP3   OH246402   2.590   3.729   3.123  0.0463 -0.2195 -0.4179
 8304TIP3    H146403   2.536   3.709   3.047  0.8368 -1.1959 -0.7378
 8304TIP3    H246404   2.641   3.650   3.138  0.4488  0.2264  0.6743
 8305TIP3   OH246405   5.709   2.571  10.686 -0.1582  0.2134 -0.3642
 8305TIP3    H146406   5.782   2.528  10.640 -0.0471 -0.1277  0.1226
 8305TIP3    H246407   5.730   2.664  10.682  0.5684  0.0842  0.2077
 8306TIP3   OH246408   0.158   1.844  15.144  0.6346 -0.4736 -0.3703
 8306TIP3    H146409   0.140   1.938  15.134  0.0482 -0.5632 -0.2316
 8306TIP3    H246410   0.126   1.805  15.063 -0.6109 -0.7407  0.2270
 8307TIP3   OH246411   2.217   4.896   1.905  0.6539  0.2571  0.1987
 8307TIP3    H146412   2.153   4.873   1.973  1.4004 -1.7239  0.3142
 8307TIP3    H246413   2.249   4.812   1.873  1.4203  1.1722 -1.5880
 8308TIP3   OH246414   5.868   3.678  11.162 -0.4340 -0.9256  0.2436
 8308TIP3    H146415   5.895   3.598  11.207  0.6893 -0.8972 -0.3295
 8308TIP3    H246416   5.950   3.720  11.136 -1.0205 -0.0892 -0.3274
 8309TIP3   OH246417   2.192   6.346   5.830  0.0484 -0.2334 -0.5073
 8309TIP3    H146418   2.187   6.441   5.820 -0.2592 -0.1479  0.3849
 8309TIP3    H246419   2.283   6.328   5.853  0.4622 -0.3123 -2.0905
 8310TIP3   OH246420   5.309   4.340  13.711  0.0253  1.0154 -0.0119
 8310TIP3    H146421   5.231   4.338  13.767 -0.8810  1.0733 -1.2258
 8310TIP3    H246422   5.342   4.250  13.714 -1.4518  0.3767 -1.2853
 8311TIP3   OH246423   4.449   2.315  10.752  0.3869 -0.8134  0.0420
 8311TIP3    H146424   4.531   2.347  10.714 -0.0655 -0.9347 -1.0655
 8311TIP3    H246425   4.380   2.355  10.699 -0.2438 -1.7800  0.1067
 8312TIP3   OH246426   2.597   1.948   2.054 -0.2659  0.0567 -0.3030
 8312TIP3    H146427   2.566   1.938   2.144 -0.7937  0.4063 -0.4393
 8312TIP3    H246428   2.537   1.895   2.002  0.4570 -0.7072 -0.3802
 8313TIP3   OH246429   6.676   2.667  12.385  0.0023 -0.8594  0.3194
 8313TIP3    H146430   6.581   2.682  12.382 -0.1907 -1.7122  1.4896
 8313TIP3    H246431   6.710   2.738  12.440  0.6459  1.8444 -3.2073
 8314TIP3   OH246432   4.227   6.110  14.147 -0.1779 -0.0138 -0.1272
 8314TIP3    H146433   4.271   6.186  14.109 -2.1787  1.5425  0.4559
 8314TIP3    H246434   4.184   6.067  14.073  1.7613 -1.2328 -0.6142
 8315TIP3   OH246435   3.920   0.957  12.907 -0.4141 -0.5960  0.4223
 8315TIP3    H146436   3.904   1.052  12.904 -3.4250 -1.0091  0.0515
 8315TIP3    H246437   3.940   0.934  12.816  0.8291 -0.2879  0.5989
 8316TIP3   OH246438   5.653   4.798   5.474  0.2754 -0.5691  0.2421
 8316TIP3    H146439   5.678   4.714   5.436  0.1269 -0.2429 -0.5882
 8316TIP3    H246440   5.719   4.860   5.443 -0.2805 -0.1473 -0.1160
 8317TIP3   OH246441   0.008   4.414  11.553 -0.4879 -0.5688 -1.0328
 8317TIP3    H146442  -0.024   4.326  11.534 -2.6165  0.3536 -2.1024
 8317TIP3    H246443  -0.028   4.435  11.638 -0.3848 -0.5493 -0.9934
 8318TIP3   OH246444   5.188   3.071   4.475  0.1240  0.2757 -0.3902
 8318TIP3    H146445   5.217   3.161   4.461  1.3154  0.1140  0.7858
 8318TIP3    H246446   5.104   3.079   4.521 -0.3929  0.7679 -1.3989
 8319TIP3   OH246447   2.654   2.908  11.834  0.0372 -0.2554  0.2635
 8319TIP3    H146448   2.603   2.894  11.754  0.6745 -1.0761 -0.0192
 8319TIP3    H246449   2.655   3.003  11.846 -1.8002 -0.2287  0.4555
 8320TIP3   OH246450   2.214   0.576  14.864  0.1515  0.4515  0.0528
 8320TIP3    H146451   2.246   0.502  14.916  2.9741  1.9877  0.7588
 8320TIP3    H246452   2.202   0.541  14.776  3.3046 -0.5345 -0.0985
 8321TIP3   OH246453   1.368   2.931   3.849 -0.3107 -0.5323  0.3256
 8321TIP3    H146454   1.294   2.890   3.803  1.3525  0.2578 -3.4011
 8321TIP3    H246455   1.333   3.014   3.881 -0.9539  0.1719 -2.0211
 8322TIP3   OH246456   0.536   6.460   0.371 -0.1079  0.0866 -0.4432
 8322TIP3    H146457   0.528   6.446   0.465  0.6785 -1.8335 -0.6168
 8322TIP3    H246458   0.530   6.555   0.360 -0.2070  0.3430  1.5303
 8323TIP3   OH246459   2.121   0.440   3.376  0.4703  0.1548 -0.1666
 8323TIP3    H146460   2.053   0.483   3.324  1.3495 -0.5366 -1.9342
 8323TIP3    H246461   2.193   0.425   3.315  0.3434 -3.5821  0.3939
 8324TIP3   OH246462   2.200   2.667  15.022 -0.5653 -0.0997 -0.3547
 8324TIP3    H146463   2.218   2.690  14.931  1.0423 -0.0108 -0.0467
 8324TIP3    H246464   2.168   2.577  15.017 -0.1158 -0.2394 -0.9875
 8325TIP3   OH246465   5.115   3.564  12.898  0.2203 -0.6147 -0.2315
 8325TIP3    H146466   5.154   3.491  12.851  3.1499 -0.7287  2.0457
 8325TIP3    H246467   5.024   3.538  12.912  0.6590 -2.9166 -1.2003
 8326TIP3   OH246468   6.120   2.129   4.190  0.7642 -0.1222 -0.2234
 8326TIP3    H146469   6.213   2.132   4.216  0.2763  0.3331  1.6121
 8326TIP3    H246470   6.077   2.192   4.248 -0.8818 -1.2262 -0.1834
 8327TIP3   OH246471   5.675   2.544   0.330  0.4867  0.4257 -0.3646
 8327TIP3    H146472   5.652   2.502   0.413  0.9118 -2.0702 -1.4245
 8327TIP3    H246473   5.766   2.521   0.315  0.6693  1.5579 -1.1400
 8328TIP3   OH246474   1.531   2.384  14.274 -0.6426  0.1175 -0.2618
 8328TIP3    H146475   1.499   2.458  14.222  0.4150  0.1016 -0.9550
 8328TIP3    H246476   1.460   2.366  14.335 -1.6837  0.5199 -1.3101
 8329TIP3   OH246477   0.489   4.858   0.029  0.7605 -0.3819 -0.0650
 8329TIP3    H146478   0.457   4.833  -0.058 -0.5135  0.4274  0.1350
 8329TIP3    H246479   0.559   4.921   0.013  0.6452 -0.3674 -0.5113
 8330TIP3   OH246480   4.101   0.959   5.477 -0.2541  0.5695  0.1081
 8330TIP3    H146481   4.169   0.947   5.544  1.0967  2.6905 -0.7839
 8330TIP3    H246482   4.141   0.927   5.396 -1.6428 -1.3667  0.1135
 8331TIP3   OH246483   0.090   2.151   5.857 -0.6293 -0.5146  0.3180
 8331TIP3    H146484   0.010   2.189   5.892  1.1039  1.5098  2.2939
 8331TIP3    H246485   0.153   2.222   5.855  1.1780 -2.0248 -1.2205
 8332TIP3   OH246486   5.429   6.282   3.530 -0.0224  0.1374  0.0139
 8332TIP3    H146487   5.454   6.362   3.577  0.9815  1.1038 -2.0469
 8332TIP3    H246488   5.462   6.211   3.585 -1.1518  1.0613  2.0228
 8333TIP3   OH246489   3.877   5.485  16.287  0.0306  0.1234  0.7728
 8333TIP3    H146490   3.906   5.394  16.287  0.2383  0.1903  0.3418
 8333TIP3    H246491   3.916   5.523  16.366  0.1114 -0.1016  0.8422
 8334TIP3   OH246492   1.496   0.538  11.350  0.3496 -0.4518 -0.1401
 8334TIP3    H146493   1.447   0.456  11.340 -1.1701  0.3980 -0.0095
 8334TIP3    H246494   1.587   0.511  11.362 -0.3385 -2.1913  1.6273
 8335TIP3   OH246495   6.311   4.428  14.627  0.3353 -0.2455  0.0371
 8335TIP3    H146496   6.365   4.370  14.573  0.7088  0.6793 -0.6030
 8335TIP3    H246497   6.255   4.369  14.677  0.6016 -1.1551 -0.7172
 8336TIP3   OH246498   0.396   0.389  13.209  0.2338  0.2450  0.0521
 8336TIP3    H146499   0.380   0.478  13.241  1.2627  0.5525 -0.2516
 8336TIP3    H246500   0.451   0.401  13.132 -1.5643 -0.5153 -1.4380
 8337TIP3   OH246501   5.953   5.617  10.543 -0.0538 -0.1209  0.0977
 8337TIP3    H146502   6.048   5.604  10.546 -0.1450 -0.5666  1.4564
 8337TIP3    H246503   5.916   5.529  10.547 -0.5486  0.1309  1.4475
 8338TIP3   OH246504   1.128   6.551  12.209  0.4260  0.0195  0.0100
 8338TIP3    H146505   1.074   6.474  12.189  0.3862  0.5107 -2.0895
 8338TIP3    H246506   1.165   6.576  12.124 -0.9161  3.3080  0.2501
 8339TIP3   OH246507   0.216   3.590  14.430  0.2914 -0.2326  0.3286
 8339TIP3    H146508   0.255   3.646  14.364  0.8772  0.2740  1.0888
 8339TIP3    H246509   0.290   3.547  14.472 -0.0588 -0.3850  0.7997
 8340TIP3   OH246510   2.974   3.701  11.496  0.6779  0.2000 -0.0335
 8340TIP3    H146511   3.062   3.680  11.466  0.8134  0.1777  0.3765
 8340TIP3    H246512   2.958   3.790  11.464  0.4360 -0.1840 -1.0203
 8341TIP3   OH246513   4.734   2.170  13.680  0.9906  0.4403 -0.4675
 8341TIP3    H146514   4.799   2.102  13.660  1.0909  0.1556  0.7647
 8341TIP3    H246515   4.654   2.140  13.636  0.7974 -0.9456  0.7789
 8342TIP3   OH246516   1.276   4.137   3.277 -0.3868 -0.4400 -0.0164
 8342TIP3    H146517   1.307   4.225   3.298  0.3392 -0.3557 -1.3122
 8342TIP3    H246518   1.247   4.144   3.186 -0.1381 -1.5899 -0.1934
 8343TIP3   OH246519   6.268   1.036   0.929 -0.0102  0.2374  0.1058
 8343TIP3    H146520   6.244   1.073   0.844  0.4457 -0.1161 -0.1819
 8343TIP3    H246521   6.188   1.041   0.981 -0.7832 -1.0578 -0.8845
 8344TIP3   OH246522   0.544   0.060   5.143 -0.5710 -0.8648  0.7803
 8344TIP3    H146523   0.524   0.063   5.237  0.1048  1.8648  0.9349
 8344TIP3    H246524   0.627   0.107   5.136 -0.5935 -1.0650 -1.2003
 8345TIP3   OH246525   5.300   2.624  14.054  0.0292 -0.3816  0.0240
 8345TIP3    H146526   5.235   2.691  14.036  0.7615  0.0828 -0.9888
 8345TIP3    H246527   5.332   2.597  13.968  0.5473 -1.2305  0.4629
 8346TIP3   OH246528   2.705   6.761  16.702 -0.1923 -0.0772  0.3298
 8346TIP3    H146529   2.722   6.794  16.614 -2.8166 -0.8836 -0.5757
 8346TIP3    H246530   2.673   6.838  16.750 -0.6287 -0.0413 -0.0127
 8347TIP3   OH246531   3.670   5.960  16.457 -0.2900 -0.1253 -0.0510
 8347TIP3    H146532   3.647   6.036  16.402 -1.5550  0.2333  0.9209
 8347TIP3    H246533   3.690   5.891  16.394 -1.6166  0.2896 -1.0040
 8348TIP3   OH246534   5.695   2.835   4.500 -0.4281 -0.4147  0.5919
 8348TIP3    H146535   5.775   2.824   4.448 -1.3816  0.7991 -1.2548
 8348TIP3    H246536   5.713   2.789   4.582  1.8026 -0.9633 -0.1316
 8349TIP3   OH246537   6.208   1.612   5.293  0.3033 -0.4189  0.7277
 8349TIP3    H146538   6.265   1.685   5.319  1.4717 -1.3708  0.9017
 8349TIP3    H246539   6.236   1.589   5.205  0.1551 -0.8565  0.7909
 8350TIP3   OH246540   5.381   2.035   1.279 -0.5275 -0.1855  1.0908
 8350TIP3    H146541   5.380   2.061   1.371 -0.1108  0.2514  0.9791
 8350TIP3    H246542   5.451   1.969   1.273 -1.2582 -0.9916  1.2815
 8351TIP3   OH246543   3.063   0.634   2.618 -0.1042 -0.5306  1.0208
 8351TIP3    H146544   3.041   0.623   2.711  2.8944 -4.3695  1.5142
 8351TIP3    H246545   3.149   0.677   2.619 -1.4144  2.4168 -0.2862
 8352TIP3   OH246546   1.239   2.018   0.538  0.3733  0.2479  0.3342
 8352TIP3    H146547   1.289   1.988   0.614  1.8043  0.6641 -0.3860
 8352TIP3    H246548   1.307   2.042   0.474 -0.7560  1.6912 -0.3751
 8353TIP3   OH246549   1.090   5.564  11.701 -0.2760 -0.3297  0.1354
 8353TIP3    H146550   1.022   5.497  11.709  0.6765 -1.6170 -1.7534
 8353TIP3    H246551   1.172   5.515  11.700  0.4261  0.7068 -2.1508
 8354TIP3   OH246552   2.903   1.357  13.451  1.0038 -0.3457 -0.4137
 8354TIP3    H146553   2.974   1.420  13.462  0.7864 -0.3029  0.8464
 8354TIP3    H246554   2.844   1.397  13.387  1.9040 -0.2160 -1.1897
 8355TIP3   OH246555   2.381   5.758   2.685 -0.6245  0.6908  0.0140
 8355TIP3    H146556   2.445   5.704   2.637 -0.2877  1.6658 -0.6561
 8355TIP3    H246557   2.435   5.817   2.738 -0.9792  1.0630 -0.0392
 8356TIP3   OH246558   2.384   0.412  12.186 -0.1687  0.0745 -0.2871
 8356TIP3    H146559   2.452   0.345  12.193 -0.7895 -0.7073 -1.3465
 8356TIP3    H246560   2.416   0.472  12.119  0.3119  0.7582  0.5440
 8357TIP3   OH246561   5.377   1.919   4.837 -0.2431  0.4123 -0.4073
 8357TIP3    H146562   5.461   1.963   4.850  0.1907 -0.4459 -0.2139
 8357TIP3    H246563   5.337   1.917   4.925  0.3646 -0.7835 -0.1311
 8358TIP3   OH246564   0.100   5.902  16.488 -0.2634  0.5725 -0.3010
 8358TIP3    H146565   0.052   5.869  16.564  0.0677  1.6965  0.4228
 8358TIP3    H246566   0.065   5.990  16.474  0.5739  0.8590 -0.6653
 8359TIP3   OH246567   6.457   4.662  10.864 -0.2303  0.1713  0.3139
 8359TIP3    H146568   6.519   4.632  10.798 -0.9960 -2.7127  0.7606
 8359TIP3    H246569   6.372   4.662  10.819 -0.6661 -1.2391  1.0798
 8360TIP3   OH246570   5.427   1.728   2.548  0.0018  0.4395 -0.2566
 8360TIP3    H146571   5.504   1.701   2.499 -0.0106  1.5891 -0.9560
 8360TIP3    H246572   5.447   1.817   2.577 -1.0091  0.7180 -0.3623
 8361TIP3   OH246573   4.540   3.568   2.809  0.1340  0.0065 -0.1459
 8361TIP3    H146574   4.617   3.621   2.786  0.3962  0.0307  0.7644
 8361TIP3    H246575   4.553   3.486   2.762  1.4396 -0.5332  1.0753
 8362TIP3   OH246576   5.128   2.959   2.350  0.0712 -0.0257  0.2233
 8362TIP3    H146577   5.055   3.021   2.353  0.8996  0.9416  1.5497
 8362TIP3    H246578   5.098   2.890   2.290 -1.4293  0.9467 -0.2206
 8363TIP3   OH246579   1.886   1.309   1.753  0.0787  0.3821  0.5418
 8363TIP3    H146580   1.916   1.243   1.692  0.0766  0.5434  0.3656
 8363TIP3    H246581   1.858   1.382   1.698 -1.0022  0.0869  0.6739
 8364TIP3   OH246582   4.660   6.167  16.835 -0.8571  0.0972  0.1167
 8364TIP3    H146583   4.625   6.256  16.830  1.9652  1.3001  0.0511
 8364TIP3    H246584   4.690   6.158  16.925  0.3034 -0.1508 -0.2758
 8365TIP3   OH246585   2.112   6.598   3.532 -0.5576  0.0470 -0.1791
 8365TIP3    H146586   2.202   6.628   3.548 -1.0488  0.8281  1.3236
 8365TIP3    H246587   2.121   6.503   3.522  0.3548  0.0036  0.8097
 8366TIP3   OH246588   6.368   1.510  15.841 -0.1703 -0.1025  0.4595
 8366TIP3    H146589   6.367   1.535  15.749 -0.4406 -1.2630  0.1232
 8366TIP3    H246590   6.363   1.593  15.889 -0.5165  0.4942 -0.5702
 8367TIP3   OH246591   2.513   4.758   4.871 -0.3207 -0.2332 -0.2023
 8367TIP3    H146592   2.597   4.749   4.916 -1.0487 -1.2607  1.0328
 8367TIP3    H246593   2.510   4.850   4.844  0.9753 -0.0591  0.1922
 8368TIP3   OH246594   3.021   3.286  14.076  0.5247 -0.2123 -0.4101
 8368TIP3    H146595   2.952   3.309  14.014 -0.5748 -0.4269  0.7055
 8368TIP3    H246596   3.008   3.345  14.150 -0.3039 -2.1287  1.0726
 8369TIP3   OH246597   3.107   5.707   3.153  0.3123  0.0703 -0.8670
 8369TIP3    H146598   3.051   5.693   3.076  0.0647  1.5762 -0.9964
 8369TIP3    H246599   3.065   5.658   3.223 -2.2400  2.5137 -0.5115
 8370TIP3   OH246600   6.267   4.719   0.276  0.2828  0.1645 -0.2636
 8370TIP3    H146601   6.193   4.660   0.285 -1.0734  1.6532 -1.1569
 8370TIP3    H246602   6.297   4.707   0.186  1.5286 -0.8408  0.2581
 8371TIP3   OH246603   4.035   0.908  14.469 -0.3104  0.3980 -0.1133
 8371TIP3    H146604   4.008   0.998  14.485  0.6263  0.5253  0.9040
 8371TIP3    H246605   4.068   0.907  14.379 -0.6075  0.9967 -0.2274
 8372TIP3   OH246606   5.549   6.232   4.974  0.5305 -0.4170 -0.2118
 8372TIP3    H146607   5.548   6.212   4.880  0.1015 -0.1404 -0.2731
 8372TIP3    H246608   5.594   6.316   4.979  0.5404 -0.4249 -0.1743
 8373TIP3   OH246609   6.307   1.210  15.789 -0.4230  0.2989  0.5800
 8373TIP3    H146610   6.292   1.256  15.872 -0.9669  0.0146  0.6420
 8373TIP3    H246611   6.230   1.231  15.736  0.6943  1.8756 -0.5087
 8374TIP3   OH246612   2.198   2.441   5.495  0.0361 -0.3185  0.0870
 8374TIP3    H146613   2.138   2.508   5.462  1.9023  2.1016  1.2859
 8374TIP3    H246614   2.253   2.418   5.420 -1.0790 -1.1139 -0.5142
 8375TIP3   OH246615   1.484   2.765   1.790  0.0333 -0.1264  0.4829
 8375TIP3    H146616   1.427   2.776   1.867  1.8409  0.0920  1.8656
 8375TIP3    H246617   1.492   2.853   1.754 -0.7222 -0.2070  0.1037
 8376TIP3   OH246618   0.816   4.628  15.765  0.1451  0.2858 -0.1201
 8376TIP3    H146619   0.724   4.653  15.757  0.7039  1.8924 -2.2717
 8376TIP3    H246620   0.824   4.595  15.855 -2.3009  0.9664  0.4164
 8377TIP3   OH246621   4.572   6.742  14.558 -0.4794 -0.0661 -0.9043
 8377TIP3    H146622   4.618   6.740  14.474  1.8061 -1.4254  0.2985
 8377TIP3    H246623   4.566   6.650  14.584 -2.2754  0.2312 -0.0980
 8378TIP3   OH246624   4.502   0.723   3.781 -0.5288  0.7300  0.0058
 8378TIP3    H146625   4.577   0.663   3.788  0.0667  1.3314 -1.0120
 8378TIP3    H246626   4.426   0.667   3.797  0.0452 -0.1990 -0.3978
 8379TIP3   OH246627   2.857   0.016   1.786 -0.3492 -0.5159 -0.3168
 8379TIP3    H146628   2.914   0.010   1.710  0.0391 -0.5250 -0.0272
 8379TIP3    H246629   2.876   0.101   1.825 -1.5724  0.1092 -1.0295
 8380TIP3   OH246630   2.593   4.451  12.258 -0.2682 -1.1465 -0.4333
 8380TIP3    H146631   2.581   4.517  12.327 -2.6355  0.2908 -2.0730
 8380TIP3    H246632   2.641   4.380  12.301  2.0482  1.3737  1.5639
 8381TIP3   OH246633   1.767   0.410   3.527 -0.1575  0.0716  0.5211
 8381TIP3    H146634   1.710   0.452   3.591 -2.0240 -1.1973 -0.2112
 8381TIP3    H246635   1.718   0.332   3.499  0.5432  0.5908 -2.4558
 8382TIP3   OH246636   5.588   5.152  13.359  0.2538 -0.1006 -0.1824
 8382TIP3    H146637   5.496   5.179  13.353 -0.5152 -2.5136 -0.2834
 8382TIP3    H246638   5.589   5.062  13.326  2.2511 -0.9663  1.9588
 8383TIP3   OH246639   4.850   1.568   4.794  0.4341  0.4858 -0.0638
 8383TIP3    H146640   4.905   1.490   4.786 -0.3078 -0.1316  0.7248
 8383TIP3    H246641   4.863   1.614   4.711  1.9122  0.2204 -0.0182
 8384TIP3   OH246642   6.648   1.713  17.132 -0.0147  0.2549  0.0559
 8384TIP3    H146643   6.703   1.789  17.113  1.2317 -0.6328 -0.0658
 8384TIP3    H246644   6.634   1.672  17.047 -0.3875  0.1536  0.1660
 8385TIP3   OH246645   3.097   2.498   4.881  0.1017  0.1721 -0.2076
 8385TIP3    H146646   3.075   2.408   4.858  2.0472 -0.2580 -0.6305
 8385TIP3    H246647   3.176   2.490   4.935  1.5503  1.6648 -1.9428
 8386TIP3   OH246648   6.419   0.027  13.174 -0.0222 -0.0477 -0.9536
 8386TIP3    H146649   6.388   0.066  13.255  0.0085  1.6800 -1.7243
 8386TIP3    H246650   6.513   0.043  13.174  0.5632 -2.8930  0.1181
 8387TIP3   OH246651   3.942   2.352  10.784  0.4030 -0.1493  0.3223
 8387TIP3    H146652   3.895   2.422  10.828 -0.7723 -0.2040 -0.7678
 8387TIP3    H246653   3.897   2.272  10.812 -1.0993 -0.1156 -1.7147
 8388TIP3   OH246654   5.608   3.115  13.633  0.1330  0.6387 -0.0422
 8388TIP3    H146655   5.662   3.062  13.574 -0.2348 -1.6561  1.5575
 8388TIP3    H246656   5.665   3.130  13.710 -0.8624 -0.2691  0.8976
 8389TIP3   OH246657   0.058   2.316  13.338  0.6934 -0.0826  0.4083
 8389TIP3    H146658   0.072   2.335  13.245 -0.7702  1.2957  0.4261
 8389TIP3    H246659   0.025   2.226  13.340 -1.3718  0.5946 -0.6501
 8390TIP3   OH246660   4.481   1.490  16.637 -0.1965 -0.1979  0.0814
 8390TIP3    H146661   4.445   1.466  16.723 -3.1644 -0.6728 -1.1701
 8390TIP3    H246662   4.498   1.406  16.594 -1.9056 -0.0885 -0.9311
 8391TIP3   OH246663   4.469   6.602   4.641  0.1013 -0.6329 -0.6849
 8391TIP3    H146664   4.478   6.520   4.593 -0.9728 -1.4236  0.3991
 8391TIP3    H246665   4.383   6.637   4.614 -1.3653 -1.9792  1.8372
 8392TIP3   OH246666   0.603   5.139  12.068 -0.0919  0.3761 -0.2346
 8392TIP3    H146667   0.584   5.167  11.979  1.5105  0.0278 -0.7174
 8392TIP3    H246668   0.569   5.209  12.123 -1.7014  0.2918 -1.0588
 8393TIP3   OH246669   4.393   0.132  14.922  0.1108 -0.0943 -0.3375
 8393TIP3    H146670   4.371   0.205  14.864 -1.7211  0.4058  0.8883
 8393TIP3    H246671   4.460   0.083  14.874  1.1923  2.2013 -1.3283
 8394TIP3   OH246672   4.460   2.054  14.697  0.4736  0.1969 -0.3676
 8394TIP3    H146673   4.477   2.147  14.709 -0.3687  0.4657 -1.1825
 8394TIP3    H246674   4.545   2.012  14.711  0.9165  1.1050 -0.2756
 8395TIP3   OH246675   6.110   4.413   2.313  0.2273 -0.1046  0.0924
 8395TIP3    H146676   6.125   4.325   2.279 -0.3105 -0.0298 -0.3421
 8395TIP3    H246677   6.110   4.402   2.408  0.2186 -0.5673  0.0389
 8396TIP3   OH246678   6.005   0.566   4.342  0.0460 -0.2771  0.1019
 8396TIP3    H146679   6.042   0.638   4.393 -0.9842  0.5354 -0.2673
 8396TIP3    H246680   6.065   0.556   4.268  0.0579  0.3850  0.0136
 8397TIP3   OH246681   0.440   2.187  12.134 -0.2430 -0.2359 -0.1837
 8397TIP3    H146682   0.417   2.173  12.226 -1.0595 -2.4192 -0.6668
 8397TIP3    H246683   0.425   2.280  12.120 -1.9050 -0.2101  1.4167
 8398TIP3   OH246684   5.266   1.433   5.595 -0.1612  0.1876  0.4667
 8398TIP3    H146685   5.265   1.383   5.677  0.6422 -0.2512  0.2197
 8398TIP3    H246686   5.353   1.416   5.557 -0.7511 -0.1437 -0.7983
 8399TIP3   OH246687   2.695   3.658  11.583 -0.4341  0.1020  0.4042
 8399TIP3    H146688   2.778   3.660  11.535 -0.4434 -0.6686  0.3491
 8399TIP3    H246689   2.629   3.678  11.518 -0.4460 -0.9410  0.0882
 8400TIP3   OH246690   0.009   6.624   0.071 -0.3620  0.5062 -0.2283
 8400TIP3    H146691  -0.054   6.603   0.140  0.6957  2.3309  1.3953
 8400TIP3    H246692   0.020   6.542   0.023  1.4520 -2.0360  3.9501
 8401TIP3   OH246693   2.812   3.508   5.033  0.3335  0.4418  0.0030
 8401TIP3    H146694   2.807   3.594   4.991  2.7376  0.5052 -0.2726
 8401TIP3    H246695   2.830   3.448   4.961 -0.9763 -0.2923  0.2451
 8402TIP3   OH246696   6.022   0.780  10.567 -0.0473  0.0431 -0.3487
 8402TIP3    H146697   5.959   0.831  10.516 -0.6517  0.1924  0.5051
 8402TIP3    H246698   6.085   0.845  10.598 -0.8822  0.3302  0.8346
 8403TIP3   OH246699   2.973   1.662  16.222  0.5629  0.3776  0.8371
 8403TIP3    H146700   3.066   1.656  16.246  1.7492  0.5115 -3.0766
 8403TIP3    H246701   2.959   1.589  16.162 -1.9811  0.2713  1.4473
 8404TIP3   OH246702   0.800   2.207   5.218 -0.2138 -0.3205  0.2336
 8404TIP3    H146703   0.771   2.200   5.127  1.4178 -0.9092 -0.2871
 8404TIP3    H246704   0.876   2.264   5.215 -0.7209  0.4688  1.4026
 8405TIP3   OH246705   2.699   1.614   0.981 -0.6442  0.0188 -0.1305
 8405TIP3    H146706   2.609   1.627   1.011 -0.4511 -0.0500  0.4860
 8405TIP3    H246707   2.692   1.611   0.885 -1.3243 -0.2001 -0.0791
 8406TIP3   OH246708   0.861   2.130  13.556  0.2111 -0.4314 -0.2409
 8406TIP3    H146709   0.887   2.137  13.464 -0.7972  0.0880 -0.4915
 8406TIP3    H246710   0.913   2.056  13.589 -0.7184 -1.8187 -1.6902
 8407TIP3   OH246711   4.335   6.437   1.560 -0.6516  0.4073 -0.6375
 8407TIP3    H146712   4.256   6.429   1.613 -1.0222  0.6284 -1.1399
 8407TIP3    H246713   4.349   6.349   1.524  0.4081 -0.1018  0.9140
 8408TIP3   OH246714   2.841   2.705   6.126 -0.2841  0.5601  0.2415
 8408TIP3    H146715   2.916   2.710   6.066  0.7956 -1.4232  1.3143
 8408TIP3    H246716   2.772   2.665   6.075 -0.2792  1.3932 -0.4421
 8409TIP3   OH246717   6.359   0.850   5.686  0.4868  0.1489 -0.3475
 8409TIP3    H146718   6.439   0.860   5.738  2.3311  0.0266 -2.9832
 8409TIP3    H246719   6.356   0.757   5.665  0.1381  0.3014 -0.9914
 8410TIP3   OH246720   0.931   4.471  12.689 -0.1165 -0.0186  0.3156
 8410TIP3    H146721   1.001   4.478  12.625 -0.4050 -2.6045 -0.3871
 8410TIP3    H246722   0.961   4.405  12.752 -1.5002 -0.4696  0.5433
 8411TIP3   OH246723   0.215   3.850  12.286 -0.0262 -0.3621 -0.4959
 8411TIP3    H146724   0.269   3.887  12.215  0.6901 -0.8832 -0.2337
 8411TIP3    H246725   0.267   3.778  12.321 -0.4239 -0.1873  0.4936
 8412TIP3   OH246726   3.440   1.536  17.106 -0.4383  0.1693 -0.3621
 8412TIP3    H146727   3.426   1.630  17.094 -2.9590 -0.0244  0.3575
 8412TIP3    H246728   3.371   1.496  17.053  1.1230 -1.3464 -1.3349
 8413TIP3   OH246729   2.802   3.549   3.150  0.4202 -0.5035 -0.0534
 8413TIP3    H146730   2.897   3.556   3.162  0.4734 -0.7260 -0.3432
 8413TIP3    H246731   2.766   3.555   3.239  0.7099 -0.4736  0.0619
 8414TIP3   OH246732   6.259   3.566   2.120 -0.5355 -0.5518 -0.3823
 8414TIP3    H146733   6.207   3.555   2.041 -0.0237 -3.4294 -0.4245
 8414TIP3    H246734   6.231   3.650   2.156 -1.2380  0.5390 -3.2363
 8415TIP3   OH246735   4.537   5.129   1.697 -0.0295  0.0707 -0.2804
 8415TIP3    H146736   4.448   5.140   1.664 -0.0767 -0.2977 -0.2871
 8415TIP3    H246737   4.529   5.060   1.764  0.3976 -0.5957 -0.9040
 8416TIP3   OH246738   2.052   0.950  12.739  0.5357  0.5989  0.2451
 8416TIP3    H146739   1.979   0.894  12.711 -0.3309  2.1536 -0.7387
 8416TIP3    H246740   2.022   0.988  12.822  0.4477  0.8376  0.1035
 8417TIP3   OH246741   4.094   4.826  14.284  0.6740  0.2442  0.3134
 8417TIP3    H146742   4.127   4.740  14.260  1.4449  0.5722  0.1478
 8417TIP3    H246743   4.116   4.835  14.376  0.4713  0.2028  0.3639
 8418TIP3   OH246744   0.641   6.285  10.907  0.2739  0.2337 -0.1408
 8418TIP3    H146745   0.700   6.222  10.949 -1.0871 -0.6640  0.5129
 8418TIP3    H246746   0.559   6.236  10.894  0.1530  0.9374 -2.4985
 8419TIP3   OH246747   0.175   1.266  11.033 -0.1548  0.1245  0.1619
 8419TIP3    H146748   0.164   1.194  10.971 -0.9570  0.0261  0.4058
 8419TIP3    H246749   0.086   1.293  11.055  0.1196  0.3424  1.0652
 8420TIP3   OH246750   4.113   0.642   1.596  0.2997 -1.0136  0.0259
 8420TIP3    H146751   4.075   0.653   1.683  1.0887  0.1475  0.2509
 8420TIP3    H246752   4.206   0.664   1.607 -0.1497  2.4912 -1.6729
 8421TIP3   OH246753   3.271   2.760   4.604  0.2713  0.4270 -0.1368
 8421TIP3    H146754   3.319   2.797   4.530 -0.1568  0.4567 -0.3993
 8421TIP3    H246755   3.181   2.790   4.592  0.1201  0.1056  0.1815
 8422TIP3   OH246756   5.956   6.693   4.675 -0.1469  0.2182  0.4146
 8422TIP3    H146757   5.966   6.699   4.770  1.1313  1.9351  0.2222
 8422TIP3    H246758   5.982   6.780   4.642  0.7510 -0.7267 -1.5959
 8423TIP3   OH246759   4.343   5.991  13.749 -0.2472  0.1734 -0.2321
 8423TIP3    H146760   4.318   5.932  13.677  1.4966 -0.1997 -0.5618
 8423TIP3    H246761   4.259   6.014  13.790 -1.0587 -1.9865 -0.5141
 8424TIP3   OH246762   2.523   5.132  13.939 -0.1524 -0.0918  0.5729
 8424TIP3    H146763   2.449   5.073  13.926  0.4127 -0.8261  0.6600
 8424TIP3    H246764   2.600   5.080  13.919  0.3855  0.4794  1.0870
 8425TIP3   OH246765   5.075   6.712  15.757  0.1980 -0.2738 -0.3146
 8425TIP3    H146766   5.119   6.682  15.678  0.4234 -0.7799 -0.0079
 8425TIP3    H246767   5.004   6.649  15.770 -0.9689  0.8469 -1.1000
 8426TIP3   OH246768   4.580   3.919  16.591 -0.2501 -1.0128 -0.6158
 8426TIP3    H146769   4.607   3.868  16.514  0.4423 -0.9967 -0.3951
 8426TIP3    H246770   4.574   4.009  16.559 -0.8883 -1.1385 -0.8656
 8427TIP3   OH246771   3.165   4.945   3.109 -0.2289 -0.3255  0.3635
 8427TIP3    H146772   3.251   4.916   3.140  1.1017  1.4861 -1.3088
 8427TIP3    H246773   3.110   4.947   3.188  1.9508  0.7249  1.9697
 8428TIP3   OH246774   1.507   6.447  16.920  0.2377 -0.1920  0.2865
 8428TIP3    H146775   1.579   6.510  16.921 -0.8467  1.0975  0.4679
 8428TIP3    H246776   1.481   6.439  17.012 -0.4532  0.0801  0.1204
 8429TIP3   OH246777   2.792   5.712  15.712  0.1418 -0.0267  0.0993
 8429TIP3    H146778   2.702   5.681  15.707 -0.1178  0.7439 -0.0692
 8429TIP3    H246779   2.836   5.668  15.638  0.1057 -0.9930  0.6322
 8430TIP3   OH246780   0.198   4.136  13.075 -0.2388 -0.4682  0.0047
 8430TIP3    H146781   0.220   4.063  13.133  0.8375 -1.4273 -1.5445
 8430TIP3    H246782   0.117   4.172  13.112 -0.8831 -2.5188  0.7463
 8431TIP3   OH246783   4.553   1.638  13.953  0.2129  0.4297 -0.2205
 8431TIP3    H146784   4.630   1.694  13.944  0.2837  0.2331 -0.9009
 8431TIP3    H246785   4.479   1.697  13.938  0.3029  0.2644 -1.4512
 8432TIP3   OH246786   6.375   5.302   2.210 -0.1876  0.1096 -0.4887
 8432TIP3    H146787   6.376   5.395   2.188 -0.3192 -0.0734 -1.2874
 8432TIP3    H246788   6.309   5.264   2.152  0.1912 -0.5608 -0.4925
 8433TIP3   OH246789   0.022   6.115   3.436 -0.1767 -0.0646  0.0217
 8433TIP3    H146790  -0.038   6.044   3.412 -0.7559  0.6136 -0.5998
 8433TIP3    H246791  -0.014   6.192   3.392  0.3802  0.6363  0.7694
 8434TIP3   OH246792   4.538   3.310   5.592 -0.6702  0.7217  0.3156
 8434TIP3    H146793   4.538   3.406   5.594 -2.2492  0.8035 -0.9594
 8434TIP3    H246794   4.489   3.284   5.670  1.1008  0.8525  1.5235
 8435TIP3   OH246795   6.468   5.123  16.714  0.0062  0.5920  0.1235
 8435TIP3    H146796   6.549   5.111  16.763 -0.4907 -1.7186  0.5226
 8435TIP3    H246797   6.460   5.043  16.661 -2.0362  0.6937  0.1690
 8436TIP3   OH246798   4.853   6.688   2.294  0.0633 -0.5536 -0.4375
 8436TIP3    H146799   4.842   6.776   2.328  0.4700 -1.4515  2.2400
 8436TIP3    H246800   4.942   6.687   2.259  0.4997 -0.2330  0.6446
 8437TIP3   OH246801   1.216   0.042  11.485  0.1098  0.4883 -0.0932
 8437TIP3    H146802   1.307   0.028  11.510  0.5843  3.5334  0.1965
 8437TIP3    H246803   1.166   0.018  11.563  0.8232  0.7394  0.4491
 8438TIP3   OH246804   6.472   2.000  12.564 -0.3689 -0.1398  0.1748
 8438TIP3    H146805   6.563   1.971  12.554 -0.2385 -0.1308  1.2127
 8438TIP3    H246806   6.429   1.928  12.610 -0.9242 -0.1953 -0.4241
 8439TIP3   OH246807   1.971   0.822   1.878 -1.0972 -0.3610 -0.1899
 8439TIP3    H146808   1.981   0.888   1.946 -1.0117  1.2325 -1.6927
 8439TIP3    H246809   1.884   0.785   1.893 -1.0455 -0.0961  0.8241
 8440TIP3   OH246810   0.668   6.465  15.346 -0.5987  0.5731 -0.4665
 8440TIP3    H146811   0.708   6.552  15.337 -1.3394  0.9123 -0.5246
 8440TIP3    H246812   0.575   6.480  15.331 -0.7419 -0.2233 -0.3932
 8441TIP3   OH246813   4.571   3.161  16.275 -0.4152  0.4274  0.4297
 8441TIP3    H146814   4.552   3.128  16.187  0.8500 -1.0065  0.6529
 8441TIP3    H246815   4.608   3.086  16.321 -1.3480  1.0635  2.3070
 8442TIP3   OH246816   0.976   2.784  15.586 -0.1214 -0.2991  0.2386
 8442TIP3    H146817   1.042   2.850  15.607  0.7409 -0.3951 -1.9063
 8442TIP3    H246818   0.990   2.715  15.650  4.5237 -2.0616 -2.1909
 8443TIP3   OH246819   2.408   1.364   4.001 -0.5677 -0.2497  0.4342
 8443TIP3    H146820   2.369   1.433   4.054 -1.1915 -1.2478  1.3069
 8443TIP3    H246821   2.488   1.340   4.048  0.0655  0.3974 -0.2833
 8444TIP3   OH246822   1.070   5.988  14.442  0.2562  0.6524 -0.1125
 8444TIP3    H146823   1.109   6.063  14.486  0.0791  0.5233  0.2749
 8444TIP3    H246824   1.077   6.008  14.349  1.0969  0.7006 -0.0431
 8445TIP3   OH246825   1.393   2.609  13.721  0.2485  0.5922 -0.1466
 8445TIP3    H146826   1.391   2.620  13.626 -3.3326 -1.1580 -0.4165
 8445TIP3    H246827   1.392   2.515  13.735 -0.2710  0.8226  1.6347
 8446TIP3   OH246828   2.964   1.717   3.665  0.0110  0.3098  0.1396
 8446TIP3    H146829   2.903   1.646   3.643  0.4431  0.4484 -1.6734
 8446TIP3    H246830   3.042   1.672   3.698  0.1953 -0.0637 -0.7826
 8447TIP3   OH246831   2.223   3.014  14.841 -0.2002 -0.5148  0.6137
 8447TIP3    H146832   2.230   2.987  14.932 -0.2659  0.6500  0.9779
 8447TIP3    H246833   2.220   3.109  14.844  4.0208 -0.0848 -0.8076
 8448TIP3   OH246834   0.323   5.431   2.247  0.1480  0.1766 -0.1840
 8448TIP3    H146835   0.415   5.430   2.274  0.1376 -1.3998 -0.0769
 8448TIP3    H246836   0.275   5.440   2.329  0.1929 -0.1282 -0.1226
 8449TIP3   OH246837   5.357   3.542   4.226  0.0464 -0.4265  0.2600
 8449TIP3    H146838   5.295   3.590   4.281 -3.9261 -1.8436 -2.4389
 8449TIP3    H246839   5.373   3.599   4.152  0.8220 -0.6583  0.2430
 8450TIP3   OH246840   4.372   5.272   1.346 -0.3244 -0.1672  0.2198
 8450TIP3    H146841   4.323   5.218   1.407  0.5527 -0.0558  1.0515
 8450TIP3    H246842   4.430   5.211   1.300 -0.9955 -0.2533 -0.5304
 8451TIP3   OH246843   5.639   4.287  16.092 -0.1749  0.4040  0.0206
 8451TIP3    H146844   5.578   4.356  16.115 -0.1693  0.8418 -1.1835
 8451TIP3    H246845   5.603   4.249  16.011  0.2216 -0.4951  0.2571
 8452TIP3   OH246846   1.488   1.126  16.889  0.0143  0.6230  0.2481
 8452TIP3    H146847   1.504   1.150  16.980 -0.4374  1.9257  0.0037
 8452TIP3    H246848   1.392   1.118  16.883  0.1418 -1.8066  0.4269
 8453TIP3   OH246849   5.260   4.234  11.250 -0.0322 -0.4967  0.0386
 8453TIP3    H146850   5.303   4.318  11.263  0.0850 -0.8918  2.9848
 8453TIP3    H246851   5.171   4.256  11.222  0.6343  0.4835 -1.4063
 8454TIP3   OH246852   1.384   4.652   4.480 -0.2772 -0.2909 -0.6033
 8454TIP3    H146853   1.326   4.634   4.406 -0.4837 -1.1203 -0.2544
 8454TIP3    H246854   1.465   4.682   4.440 -0.6753  0.1041 -1.1309
 8455TIP3   OH246855   0.020   0.730  17.071 -0.0140 -0.5222  0.0016
 8455TIP3    H146856   0.097   0.786  17.075  0.6958 -1.4918  0.6332
 8455TIP3    H246857   0.051   0.646  17.106 -1.0490 -1.2856 -0.8814
 8456TIP3   OH246858   4.999   1.593  15.287  0.3413 -0.0348  0.1037
 8456TIP3    H146859   4.983   1.593  15.193  0.0076  1.2186  0.1320
 8456TIP3    H246860   5.023   1.503  15.308 -0.3303 -0.5019 -1.0501
 8457TIP3   OH246861   0.094   0.775  15.056  0.3258 -0.0274  0.0359
 8457TIP3    H146862   0.075   0.689  15.019 -0.5323 -0.3431  1.1779
 8457TIP3    H246863   0.146   0.757  15.134  0.8790  0.5514 -0.1859
 8458TIP3   OH246864   1.632   0.021   0.849 -0.0708 -0.3646 -0.4709
 8458TIP3    H146865   1.659  -0.017   0.933 -0.8184  0.6623  0.2538
 8458TIP3    H246866   1.651   0.115   0.858  2.9173 -0.5788 -2.6652
 8459TIP3   OH246867   3.776   3.774  10.986 -0.3421 -0.8445  0.1548
 8459TIP3    H146868   3.684   3.763  10.964 -0.1402 -1.6007 -0.3064
 8459TIP3    H246869   3.824   3.720  10.924  0.3398 -1.5139  1.2149
 8460TIP3   OH246870   0.192   5.552   1.655 -0.1709  0.4416 -0.1073
 8460TIP3    H146871   0.174   5.631   1.705  1.4581  0.2538  0.8707
 8460TIP3    H246872   0.265   5.576   1.597  0.3015 -0.3158  0.1521
 8461TIP3   OH246873   0.405   0.798   3.549  0.1322 -0.0964  0.2195
 8461TIP3    H146874   0.479   0.817   3.606  2.2491 -0.2459 -2.2535
 8461TIP3    H246875   0.407   0.867   3.482 -0.3918 -1.4670 -1.2871
 8462TIP3   OH246876   4.658   3.751  15.090 -0.4847 -0.3902 -0.1084
 8462TIP3    H146877   4.571   3.791  15.094 -0.2924 -0.0493  1.1089
 8462TIP3    H246878   4.680   3.734  15.182  0.9379 -0.0259 -0.3678
 8463TIP3   OH246879   5.259   1.867   6.210 -0.4871  0.4288 -0.2264
 8463TIP3    H146880   5.206   1.925   6.264 -0.6824  1.1853 -1.2057
 8463TIP3    H246881   5.291   1.922   6.138  1.9416  0.1039  0.5000
 8464TIP3   OH246882   3.584   3.723   2.848 -0.7971  0.1260  0.2150
 8464TIP3    H146883   3.519   3.761   2.908 -1.0366 -0.9978  0.6824
 8464TIP3    H246884   3.549   3.741   2.761 -0.9829  0.8284  0.4233
 8465TIP3   OH246885   4.027   4.982  15.059  0.0703  0.2848  0.3967
 8465TIP3    H146886   4.002   4.892  15.038  1.9144 -0.0480 -0.6403
 8465TIP3    H246887   3.955   5.036  15.026 -0.2429 -0.7122 -0.6058
 8466TIP3   OH246888   0.650   3.488   1.602 -0.1978  0.5710  0.4735
 8466TIP3    H146889   0.580   3.458   1.544 -0.6529  2.7933 -0.2019
 8466TIP3    H246890   0.624   3.456   1.689 -0.5234 -1.0903 -0.1877
 8467TIP3   OH246891   0.933   4.282   2.230  0.7406 -0.1411 -0.5875
 8467TIP3    H146892   1.017   4.290   2.275 -0.2368 -0.5784  1.3826
 8467TIP3    H246893   0.956   4.245   2.144  2.4871 -0.8389  0.1331
 8468TIP3   OH246894   4.630   6.430  14.999  0.1713  0.0422  0.1214
 8468TIP3    H146895   4.604   6.380  15.076  1.4395 -0.8658 -0.0024
 8468TIP3    H246896   4.584   6.389  14.926 -0.4438  0.4282  0.2819
 8469TIP3   OH246897   1.858   1.124  11.715  0.7078 -0.1416  0.3611
 8469TIP3    H146898   1.919   1.080  11.774  2.0510  2.1913  0.8252
 8469TIP3    H246899   1.794   1.164  11.773  1.3394  1.1545  0.1895
 8470TIP3   OH246900   1.926   0.606  15.073  0.1948 -0.1069 -0.4717
 8470TIP3    H146901   1.994   0.666  15.103 -1.1499  1.5590 -0.5996
 8470TIP3    H246902   1.844   0.649  15.095 -0.9622  0.8389 -5.3892
 8471TIP3   OH246903   0.798   3.276   1.866 -0.6467  0.5903 -0.2506
 8471TIP3    H146904   0.814   3.182   1.871 -0.3010  0.6946  0.6610
 8471TIP3    H246905   0.876   3.311   1.823 -0.5603  0.5243 -0.1466
 8472TIP3   OH246906   4.602   6.553   0.148  0.4398  0.4288  0.1710
 8472TIP3    H146907   4.689   6.554   0.187  0.3100  1.3412  0.4598
 8472TIP3    H246908   4.563   6.636   0.175  0.7299  1.6369 -2.7019
 8473TIP3   OH246909   2.175   6.795   1.446 -0.0029  0.0939 -0.0054
 8473TIP3    H146910   2.204   6.745   1.523  1.2604  0.2314 -0.3671
 8473TIP3    H246911   2.168   6.729   1.377 -0.4048  0.0898  0.0388
 8474TIP3   OH246912   2.953   0.084  13.416 -0.0601  0.0628 -0.0712
 8474TIP3    H146913   3.019   0.017  13.397 -1.5904 -1.2630 -0.9864
 8474TIP3    H246914   2.999   0.149  13.469  1.2020 -2.2593  1.8455
 8475TIP3   OH246915   0.739   3.102  13.111  0.5066  0.1797 -0.6014
 8475TIP3    H146916   0.682   3.128  13.183  0.7347 -0.3575 -0.2225
 8475TIP3    H246917   0.819   3.071  13.154  0.2375 -1.1810 -1.0210
 8476TIP3   OH246918   2.763   5.319  13.148  1.0184  0.2151 -0.1878
 8476TIP3    H146919   2.751   5.413  13.140  0.5742  0.1118 -0.8767
 8476TIP3    H246920   2.743   5.299  13.240  0.8988  0.7629 -0.0960
 8477TIP3   OH246921   0.548   2.614  15.764 -0.1736  0.4362 -0.1072
 8477TIP3    H146922   0.521   2.636  15.674  1.1161  2.1008 -0.1356
 8477TIP3    H246923   0.614   2.546  15.752 -1.9273 -1.3127 -0.2213
 8478TIP3   OH246924   4.549   3.821   3.593 -0.4966  0.3799  0.2157
 8478TIP3    H146925   4.488   3.893   3.583 -0.2492  0.4648 -0.7609
 8478TIP3    H246926   4.526   3.759   3.524 -1.2156 -0.8647  1.5258
 8479TIP3   OH246927   4.728   3.041  15.792  0.3603 -0.0466  0.2352
 8479TIP3    H146928   4.810   3.088  15.775  0.6018 -0.7911 -0.8113
 8479TIP3    H246929   4.755   2.959  15.833  0.1325 -0.2542 -0.0253
 8480TIP3   OH246930   5.529   5.366  12.826 -0.9263 -0.1388 -0.4592
 8480TIP3    H146931   5.503   5.455  12.801 -1.2205  0.6939  2.4845
 8480TIP3    H246932   5.446   5.319  12.835 -1.3417  0.9712  3.4366
 8481TIP3   OH246933   4.074   2.896   2.498 -0.0458 -0.0769 -0.2251
 8481TIP3    H146934   4.027   2.861   2.423 -0.5352 -1.0374  0.5009
 8481TIP3    H246935   4.084   2.821   2.557  1.7159  0.2765  0.0008
 8482TIP3   OH246936   4.529   3.752   6.383  0.3876 -0.2738  0.0783
 8482TIP3    H146937   4.481   3.680   6.424  1.8304 -1.4083 -0.1649
 8482TIP3    H246938   4.501   3.830   6.432 -1.3075 -0.9379  0.2544
 8483TIP3   OH246939   5.296   1.936  13.282  0.7561  0.0277 -0.2518
 8483TIP3    H146940   5.295   2.027  13.253  2.8231 -0.1340 -0.9715
 8483TIP3    H246941   5.332   1.940  13.371  0.0162 -0.0392  0.0646
 8484TIP3   OH246942   1.133   1.359   5.563  0.2565 -0.2565  0.0395
 8484TIP3    H146943   1.041   1.368   5.539  0.7348 -0.0225 -1.8764
 8484TIP3    H246944   1.139   1.397   5.651 -1.1465  1.5002 -0.5525
 8485TIP3   OH246945   1.519   4.915   3.494 -0.3843  0.5052 -0.4615
 8485TIP3    H146946   1.607   4.877   3.488  0.9524  3.2610  0.2034
 8485TIP3    H246947   1.470   4.853   3.546  2.1065  0.3249  1.8839
 8486TIP3   OH246948   0.559   2.974   4.723  0.3735  0.7710 -0.3080
 8486TIP3    H146949   0.535   3.040   4.787 -0.2149 -1.4684  1.9384
 8486TIP3    H246950   0.643   2.939   4.754 -1.5236 -2.7509  1.5101
 8487TIP3   OH246951   0.225   5.603   1.312  0.0826  0.1133  0.1629
 8487TIP3    H146952   0.303   5.600   1.367  0.5129 -2.3542 -0.4893
 8487TIP3    H246953   0.256   5.637   1.228  0.1598  0.3716  0.2923
 8488TIP3   OH246954   4.237   6.405  16.077  0.0951 -0.0915 -0.0855
 8488TIP3    H146955   4.332   6.400  16.062  0.0499  0.5074 -0.6232
 8488TIP3    H246956   4.228   6.402  16.172  0.7534  1.2602  0.0427
 8489TIP3   OH246957   1.259   2.253   3.626 -0.0954  0.0521  0.8099
 8489TIP3    H146958   1.227   2.164   3.634  1.8243 -0.6839  0.7380
 8489TIP3    H246959   1.254   2.288   3.715 -1.0925 -0.0015  0.7925
 8490TIP3   OH246960   3.719   2.127  16.598  0.7830 -0.7703  0.0583
 8490TIP3    H146961   3.631   2.131  16.634  0.8201  0.8969  0.0332
 8490TIP3    H246962   3.706   2.112  16.505  0.5400 -0.9326  0.1181
 8491TIP3   OH246963   0.348   3.931   1.842  0.9925 -0.2961  0.4305
 8491TIP3    H146964   0.314   4.018   1.866 -0.1292 -0.5158 -0.2566
 8491TIP3    H246965   0.299   3.909   1.762 -0.0204 -2.3088  1.5398
 8492TIP3   OH246966   6.163   0.423  14.355  0.7320  0.1654 -0.2959
 8492TIP3    H146967   6.123   0.337  14.351  2.3136 -0.6647  0.8610
 8492TIP3    H246968   6.256   0.408  14.335  1.3530  1.3335  1.4658
 8493TIP3   OH246969   1.114   4.736  15.673  0.0377 -0.1432  0.0155
 8493TIP3    H146970   1.032   4.687  15.675  0.6815 -1.2458 -0.1483
 8493TIP3    H246971   1.147   4.731  15.763 -0.4278  0.9478  0.2679
 8494TIP3   OH246972   0.581   4.845  14.023 -0.0061  0.0440 -0.3453
 8494TIP3    H146973   0.558   4.794  14.101  0.3812  0.0959 -0.1955
 8494TIP3    H246974   0.563   4.786  13.950 -3.3496  0.9850 -0.4777
 8495TIP3   OH246975   5.094   3.762   0.576 -0.2504  0.0265 -0.6088
 8495TIP3    H146976   5.166   3.756   0.513  1.6734  0.5898  1.4186
 8495TIP3    H246977   5.068   3.854   0.574 -0.9507 -0.1689 -1.3113
 8496TIP3   OH246978   6.443   6.043  15.774 -0.0909 -0.3950  0.3649
 8496TIP3    H146979   6.395   6.125  15.761  2.2258  0.5673 -3.9050
 8496TIP3    H246980   6.376   5.975  15.767 -1.8122  0.9449  2.3707
 8497TIP3   OH246981   4.942   2.649   6.309  0.1849 -0.2008 -0.3502
 8497TIP3    H146982   5.004   2.690   6.249  0.6187  0.6248  0.6231
 8497TIP3    H246983   4.952   2.698   6.391  0.0432 -1.6644  0.5781
 8498TIP3   OH246984   1.517   0.219   4.423  0.0672  0.0386  0.0047
 8498TIP3    H146985   1.459   0.253   4.355 -1.0640  0.4572  1.1235
 8498TIP3    H246986   1.462   0.159   4.474  0.6554  0.2887  0.9797
 8499TIP3   OH246987   1.007   6.397   0.396 -0.5591  0.1549  0.3768
 8499TIP3    H146988   1.064   6.472   0.409 -0.9308  0.7523 -1.2543
 8499TIP3    H246989   0.927   6.419   0.444 -0.8567  1.0483 -0.5019
 8500TIP3   OH246990   2.912   4.571  12.364  0.2249  0.2321  0.0434
 8500TIP3    H146991   2.990   4.612  12.399  0.7238 -1.7127  1.3383
 8500TIP3    H246992   2.881   4.514  12.434 -1.1946 -0.5698 -1.1799
 8501TIP3   OH246993   4.291   0.474  11.811 -0.4846  0.4785 -0.1128
 8501TIP3    H146994   4.337   0.405  11.860 -1.1523  1.4870  2.0393
 8501TIP3    H246995   4.204   0.437  11.795 -1.3802  1.3045  2.4106
 8502TIP3   OH246996   4.648   5.803  15.078  0.1426 -0.2515 -0.0747
 8502TIP3    H146997   4.608   5.731  15.031 -0.5295 -1.8170  2.6854
 8502TIP3    H246998   4.575   5.861  15.102 -0.0151 -1.0285  1.4962
 8503TIP3   OH246999   4.350   4.909   6.247 -0.6439  0.1025  0.3535
 8503TIP3    H147000   4.358   4.940   6.337  1.7111 -0.3538  0.3579
 8503TIP3    H247001   4.355   4.813   6.254 -0.1532  0.0747 -0.2616
 8504TIP3   OH247002   3.220   5.991  13.408  0.2584  0.0115 -0.3645
 8504TIP3    H147003   3.170   6.038  13.475 -0.0412  0.1791 -0.7056
 8504TIP3    H247004   3.304   6.037  13.403 -0.1885  0.7744 -0.9990
 8505TIP3   OH247005   5.958   0.070  15.807  0.6209 -0.0711  0.2376
 8505TIP3    H147006   5.939   0.023  15.725 -0.3792  1.7738 -0.6688
 8505TIP3    H247007   5.873   0.105  15.834  1.1474  0.3267  1.4351
 8506TIP3   OH247008   5.364   3.452   1.365 -0.7259  0.7538  0.1815
 8506TIP3    H147009   5.287   3.501   1.394 -2.3238 -1.7078  0.4144
 8506TIP3    H247010   5.352   3.443   1.270 -0.4420  0.8395  0.1380
 8507TIP3   OH247011   5.488   4.659   1.808  0.4409  0.1643 -0.0278
 8507TIP3    H147012   5.504   4.699   1.894 -0.1168 -0.0381  0.1745
 8507TIP3    H247013   5.529   4.719   1.746 -0.3481  1.0436  0.2708
 8508TIP3   OH247014   3.728   3.833   5.914  0.2799  0.0560 -0.1069
 8508TIP3    H147015   3.819   3.805   5.904  0.6928  0.5715  1.6882
 8508TIP3    H247016   3.726   3.923   5.880  0.9035  0.6760  1.3738
 8509TIP3   OH247017   1.314   5.564   2.161  0.5547  0.2601 -0.7812
 8509TIP3    H147018   1.238   5.507   2.159 -0.4556  1.4368  1.1739
 8509TIP3    H247019   1.326   5.585   2.253  2.4129  1.2127 -1.1980
 8510TIP3   OH247020   3.404   4.972   4.436 -0.2413 -0.5733 -0.4623
 8510TIP3    H147021   3.456   5.039   4.391  0.4013 -1.5934 -1.2825
 8510TIP3    H247022   3.468   4.910   4.470 -0.5742  0.8329  3.1704
 8511TIP3   OH247023   4.895   0.354  16.934  0.1654  0.3006  0.4019
 8511TIP3    H147024   4.807   0.333  16.902  0.5498  0.1018 -0.5634
 8511TIP3    H247025   4.908   0.446  16.909  0.7885 -0.0965 -0.8022
 8512TIP3   OH247026   1.110   2.113  10.236 -0.0450  0.2263  0.0614
 8512TIP3    H147027   1.049   2.041  10.225 -0.4717  0.6238 -0.2244
 8512TIP3    H247028   1.065   2.176  10.292  1.0862 -0.5811  1.9745
 8513TIP3   OH247029   3.588   2.127   1.067  0.1305 -0.2017  0.3047
 8513TIP3    H147030   3.631   2.099   0.986  1.8485 -2.0277  1.7568
 8513TIP3    H247031   3.626   2.212   1.086 -2.7073  1.9068 -2.4126
 8514TIP3   OH247032   1.385   1.782  12.114  0.1018  1.0210 -0.3861
 8514TIP3    H147033   1.319   1.743  12.056 -0.3205  1.5104 -0.2438
 8514TIP3    H247034   1.399   1.716  12.182  0.0582  0.7472 -0.6383
 8515TIP3   OH247035   1.153   4.230   5.317  0.1494 -0.5723  0.2434
 8515TIP3    H147036   1.129   4.322   5.307 -3.1553 -1.1362  1.6241
 8515TIP3    H247037   1.241   4.232   5.355  1.0372  1.9035 -1.7023
 8516TIP3   OH247038   6.809   6.756   2.893 -0.0472 -0.0785 -0.1175
 8516TIP3    H147039   6.838   6.847   2.908  0.9608 -0.2619 -0.8495
 8516TIP3    H247040   6.793   6.722   2.981 -0.1047  0.6966  0.1881
 8517TIP3   OH247041   3.718   6.127   0.727  0.2858  0.0736 -0.2925
 8517TIP3    H147042   3.657   6.186   0.771 -1.1862 -0.3752 -1.6395
 8517TIP3    H247043   3.776   6.185   0.678 -1.6449  0.4849 -2.2564
 8518TIP3   OH247044   1.743   0.942   4.997 -0.3272 -0.0444  0.3569
 8518TIP3    H147045   1.821   0.972   5.044 -0.5509  1.0196  0.0759
 8518TIP3    H247046   1.693   0.893   5.062  0.1464  0.0308  0.7842
 8519TIP3   OH247047   4.414   5.914  12.549  0.7013 -0.4041 -0.3735
 8519TIP3    H147048   4.421   5.829  12.504  0.0708 -0.4569 -0.3784
 8519TIP3    H247049   4.354   5.897  12.622  0.8295 -0.0391 -0.1846
 8520TIP3   OH247050   4.896   6.104   4.350 -0.1176 -0.2397 -0.2783
 8520TIP3    H147051   4.838   6.157   4.404 -0.7219 -0.5396 -0.6181
 8520TIP3    H247052   4.930   6.037   4.410 -0.3513 -0.2365 -0.1419
 8521TIP3   OH247053   1.118   1.432  13.149  0.4457  0.4120 -0.7456
 8521TIP3    H147054   1.134   1.440  13.055  0.3248 -2.3114 -1.0768
 8521TIP3    H247055   1.128   1.338  13.167  0.4677  0.8603  1.9677
 8522TIP3   OH247056   0.995   2.638   1.362 -0.8546  0.5544  0.1773
 8522TIP3    H147057   0.939   2.706   1.325 -0.7514  1.8588  2.2482
 8522TIP3    H247058   1.083   2.677   1.361 -0.9857  1.0465  2.5493
 8523TIP3   OH247059   5.771   1.414   1.465 -0.0721 -0.4816  0.8695
 8523TIP3    H147060   5.811   1.497   1.489 -0.0208  0.1389 -1.1631
 8523TIP3    H247061   5.756   1.369   1.548  0.0583  1.4709  1.9956
 8524TIP3   OH247062   2.701   0.175   5.705  0.1620 -0.8468 -0.2767
 8524TIP3    H147063   2.776   0.165   5.765 -0.4442  0.0828  0.6695
 8524TIP3    H247064   2.667   0.086   5.695  0.5654 -1.0844  0.3788
 8525TIP3   OH247065   5.092   6.472   5.807 -0.0266  0.1758 -1.0160
 8525TIP3    H147066   5.151   6.541   5.776 -0.7856  1.3429  0.0699
 8525TIP3    H247067   5.011   6.517   5.830 -0.5598 -1.0755 -0.3144
 8526TIP3   OH247068   3.572   2.637   1.054 -0.0420  0.0321  0.2864
 8526TIP3    H147069   3.579   2.729   1.081 -0.3130  0.1322  0.0090
 8526TIP3    H247070   3.486   2.609   1.087 -0.2542  0.0740 -0.2284
 8527TIP3   OH247071   3.034   1.325  15.076 -0.2409  0.1258 -0.4189
 8527TIP3    H147072   3.006   1.370  14.997 -0.5037 -0.5569 -0.7206
 8527TIP3    H247073   3.024   1.232  15.056  3.0258 -0.2584 -0.8872
 8528TIP3   OH247074   5.950   4.356   3.930  0.3725  0.0883  0.3124
 8528TIP3    H147075   6.009   4.321   3.997  0.0564 -1.1569 -0.0199
 8528TIP3    H247076   5.974   4.309   3.850 -0.9873 -0.3843  0.1448
 8529TIP3   OH247077   3.930   4.189  14.610 -0.2197  0.4051  0.3361
 8529TIP3    H147078   3.835   4.193  14.599 -0.2013  0.5304  0.2117
 8529TIP3    H247079   3.944   4.131  14.685 -0.3847  0.1891  0.1995
 8530TIP3   OH247080   5.038   2.201   0.511 -0.5054  0.6859 -0.2223
 8530TIP3    H147081   5.056   2.289   0.478  0.7585  1.0476  1.2978
 8530TIP3    H247082   5.096   2.144   0.462  1.5188  1.2428  1.3537
 8531TIP3   OH247083   1.100   2.003  11.373  0.1609  0.8378  0.1917
 8531TIP3    H147084   1.106   1.955  11.455  0.7181  1.9173  0.8049
 8531TIP3    H247085   1.158   1.955  11.313 -0.7755 -0.3528  0.1887
 8532TIP3   OH247086   4.779   1.094   5.290  0.0373 -0.1579  0.7296
 8532TIP3    H147087   4.804   1.060   5.204  0.8469  0.8564  0.5419
 8532TIP3    H247088   4.851   1.068   5.347  0.0265  0.0923  0.8595
 8533TIP3   OH247089   1.604   5.718  15.786  1.0014 -0.1620  1.0123
 8533TIP3    H147090   1.696   5.725  15.812  0.5443 -0.8843  2.9652
 8533TIP3    H247091   1.562   5.794  15.826  0.8155  0.5304 -0.4200
 8534TIP3   OH247092   0.318   1.200   4.134 -0.5772 -0.0344 -0.6686
 8534TIP3    H147093   0.261   1.124   4.142  0.8844 -1.0668  0.3349
 8534TIP3    H247094   0.279   1.265   4.192 -1.0066 -0.5470 -0.3706
 8535TIP3   OH247095   2.220   1.622   6.414  0.2676 -0.5736  0.2647
 8535TIP3    H147096   2.163   1.697   6.431  1.3837  0.3793 -0.0642
 8535TIP3    H247097   2.209   1.565   6.490 -2.7618 -1.5311 -0.7474
 8536TIP3   OH247098   4.789   0.330  12.513  0.4541  0.2274 -0.0597
 8536TIP3    H147099   4.791   0.353  12.605  0.1511  3.0955 -0.6856
 8536TIP3    H247100   4.867   0.370  12.476  0.8000 -1.2456 -1.0146
 8537TIP3   OH247101   4.127   2.182   3.858  0.3036 -0.0130  0.0756
 8537TIP3    H147102   4.174   2.115   3.908 -1.7498 -1.2518  0.4963
 8537TIP3    H247103   4.087   2.238   3.925 -0.0951  0.0615 -0.2171
 8538TIP3   OH247104   4.442   4.583  16.669  0.3115  0.2743 -0.3976
 8538TIP3    H147105   4.472   4.575  16.760 -1.2755  0.5982  0.1763
 8538TIP3    H247106   4.410   4.496  16.647 -0.9985  0.6326 -0.0002
 8539TIP3   OH247107   0.030   0.668   1.003  0.5210  0.2489  0.0099
 8539TIP3    H147108  -0.034   0.641   1.069 -0.2920  1.4577 -0.2438
 8539TIP3    H247109   0.017   0.763   0.995  1.5032  0.3195 -0.9407
 8540TIP3   OH247110   6.618   5.404   1.446  0.3686  0.0624 -0.1474
 8540TIP3    H147111   6.599   5.359   1.363  2.1277 -0.3642 -0.3454
 8540TIP3    H247112   6.621   5.497   1.422 -0.1117  0.0261 -0.3593
 8541TIP3   OH247113   2.374   2.698  10.783 -0.0717  0.6253  0.0163
 8541TIP3    H147114   2.282   2.699  10.757 -0.5879  0.8833  1.7307
 8541TIP3    H247115   2.398   2.790  10.789 -0.1322  0.5818  0.9764
 8542TIP3   OH247116   6.012   3.387  12.065 -0.7395  1.5312  0.1486
 8542TIP3    H147117   5.956   3.464  12.070 -1.6200  0.9246 -0.2352
 8542TIP3    H247118   6.094   3.419  12.027 -0.3848  2.6468  1.7301
 8543TIP3   OH247119   4.645   5.471   3.241  0.2217  0.4063 -0.2428
 8543TIP3    H147120   4.593   5.541   3.279  1.2879  1.4382 -0.6034
 8543TIP3    H247121   4.703   5.442   3.312  2.3116  2.4299 -1.0022
 8544TIP3   OH247122   5.591   3.679  15.105  0.6181 -0.1513  0.4235
 8544TIP3    H147123   5.582   3.668  15.199  0.6895  0.9672  0.5639
 8544TIP3    H247124   5.523   3.622  15.068 -0.4168  0.5659  1.1936
 8545TIP3   OH247125   1.332   3.339  15.144  0.6417 -0.5253 -0.4889
 8545TIP3    H147126   1.428   3.336  15.150  0.5868 -1.7382 -0.0746
 8545TIP3    H247127   1.303   3.356  15.234  0.5042  2.0842 -0.9420
 8546TIP3   OH247128   4.461   2.446  15.172 -0.6878 -0.2040  0.5350
 8546TIP3    H147129   4.490   2.513  15.109 -1.0211  0.5150  1.1316
 8546TIP3    H247130   4.426   2.376  15.117  2.0825 -1.1220 -0.2417
 8547TIP3   OH247131   4.832   0.628  11.566  0.0445 -0.2239  0.2437
 8547TIP3    H147132   4.772   0.676  11.623 -0.0509 -2.3833  2.0952
 8547TIP3    H247133   4.795   0.540  11.561  1.7010 -0.9085 -0.6676
 8548TIP3   OH247134   4.185   4.771   2.619 -0.1231  0.6361 -0.0670
 8548TIP3    H147135   4.220   4.821   2.545 -1.0564  1.8173  0.2794
 8548TIP3    H247136   4.092   4.762   2.601 -0.1389 -0.1586  0.3586
 8549TIP3   OH247137   6.710   3.201  16.434 -0.6993  0.2182  0.2100
 8549TIP3    H147138   6.635   3.142  16.444 -0.4976 -0.4756 -1.9206
 8549TIP3    H247139   6.691   3.250  16.353  0.9289  0.3684 -0.1010
 8550TIP3   OH247140   2.840   1.538   5.228 -0.1890 -0.3113  0.6488
 8550TIP3    H147141   2.775   1.481   5.269 -1.8623  0.0161 -1.3764
 8550TIP3    H247142   2.845   1.507   5.137 -1.0742  2.6112 -0.4995
 8551TIP3   OH247143   0.383   5.082   5.555  0.4425 -0.3175 -0.3526
 8551TIP3    H147144   0.420   5.018   5.615 -1.0673  0.6129  1.7136
 8551TIP3    H247145   0.388   5.165   5.603 -1.5041  0.3311 -1.1881
 8552TIP3   OH247146   3.531   5.672  14.065 -0.0356 -0.3007  0.8589
 8552TIP3    H147147   3.519   5.577  14.072 -0.4019 -0.3598 -0.4785
 8552TIP3    H247148   3.575   5.695  14.147  2.5626 -2.0275  0.0968
 8553TIP3   OH247149   4.503   2.172   4.651  0.4256 -0.0667 -0.4999
 8553TIP3    H147150   4.422   2.179   4.600 -0.2891  0.0639  0.6156
 8553TIP3    H247151   4.568   2.221   4.599 -0.5457  0.9916 -0.7563
 8554TIP3   OH247152   0.128   3.814   0.994 -0.1061 -0.6176 -0.0427
 8554TIP3    H147153   0.040   3.782   0.970 -0.7071  0.7921  0.1608
 8554TIP3    H247154   0.131   3.807   1.089  0.1706 -1.0301 -0.0768
 8555TIP3   OH247155   6.191   0.194   0.287  0.1295 -0.2077  0.3531
 8555TIP3    H147156   6.243   0.258   0.238  0.9342 -1.6657 -0.7752
 8555TIP3    H247157   6.232   0.110   0.267 -2.5809 -1.4329 -0.4603
 8556TIP3   OH247158   3.696   4.898  12.332  0.0702  0.5717  0.4088
 8556TIP3    H147159   3.647   4.864  12.407 -2.7537 -0.0263 -1.5143
 8556TIP3    H247160   3.638   4.966  12.296  0.3403 -0.5321 -2.3286
 8557TIP3   OH247161   6.128   4.546   4.452  0.2963 -0.3360  0.3528
 8557TIP3    H147162   6.035   4.556   4.433  0.4743  0.0226 -0.4082
 8557TIP3    H247163   6.146   4.609   4.521 -0.2344 -1.1582  1.2589
 8558TIP3   OH247164   2.933   4.315  15.658 -0.1013 -0.1869  0.1037
 8558TIP3    H147165   2.843   4.343  15.672 -0.4640 -1.3325  0.2031
 8558TIP3    H247166   2.936   4.226  15.694  0.7562 -0.6109 -0.9401
 8559TIP3   OH247167   6.425   2.277  13.686 -0.0297  0.5724  0.1911
 8559TIP3    H147168   6.336   2.262  13.654  0.1123  2.6007 -1.3908
 8559TIP3    H247169   6.481   2.268  13.609  1.0811 -0.1018  1.0453
 8560TIP3   OH247170   2.432   4.519  16.068 -0.4585  0.8470  0.0633
 8560TIP3    H147171   2.420   4.564  16.151  0.8825  1.1530  0.1131
 8560TIP3    H247172   2.428   4.426  16.091  1.4965  0.8983  0.7703
 8561TIP3   OH247173   5.791   5.263  11.362  0.0967 -0.4703 -0.8773
 8561TIP3    H147174   5.866   5.306  11.405 -0.5820  0.0047 -0.1455
 8561TIP3    H247175   5.791   5.299  11.273  1.1499 -1.0081 -1.1143
 8562TIP3   OH247176   6.201   1.950   1.158 -0.5105  0.0078 -0.8201
 8562TIP3    H147177   6.127   1.954   1.220  0.1979  2.2018 -0.0455
 8562TIP3    H247178   6.162   1.969   1.073 -1.1655 -1.0624 -0.7867
 8563TIP3   OH247179   3.201   6.151   1.939 -0.3568  0.3416  0.0691
 8563TIP3    H147180   3.154   6.192   1.866  0.2021 -2.5001 -2.0616
 8563TIP3    H247181   3.135   6.100   1.985  0.0177 -1.3308 -1.1650
 8564TIP3   OH247182   5.549   2.848  13.860  0.4706  0.1369 -0.3132
 8564TIP3    H147183   5.573   2.767  13.815 -0.6377  0.1592 -0.9686
 8564TIP3    H247184   5.474   2.882  13.811  0.2958  1.0442  0.5478
 8565TIP3   OH247185   6.237   4.319  15.452  0.8124 -0.2061 -0.0082
 8565TIP3    H147186   6.198   4.390  15.402 -1.1647  0.6127  2.5311
 8565TIP3    H247187   6.331   4.339  15.453  0.3767  2.0749  0.1807
 8566TIP3   OH247188   1.851   0.297   5.825  0.8468  0.2767 -0.1421
 8566TIP3    H147189   1.943   0.292   5.799  1.1495 -0.6241  1.0291
 8566TIP3    H247190   1.854   0.316   5.918 -0.1201 -1.4184  0.2650
 8567TIP3   OH247191   3.859   3.263  15.627 -0.5821  0.6919  0.1897
 8567TIP3    H147192   3.812   3.206  15.688 -1.7698  1.6807  0.2267
 8567TIP3    H247193   3.799   3.274  15.553  1.0904 -1.0590 -1.5598
 8568TIP3   OH247194   1.975   5.044   0.507 -0.4028  0.6239 -0.3074
 8568TIP3    H147195   1.905   5.079   0.453 -0.4294  0.7923 -0.1644
 8568TIP3    H247196   1.936   5.035   0.594 -0.3395  0.4226 -0.2998
 8569TIP3   OH247197   1.240   5.445  11.463  0.0634 -0.2045 -0.4909
 8569TIP3    H147198   1.231   5.536  11.491  2.2952  0.4190 -1.5426
 8569TIP3    H247199   1.151   5.415  11.448 -0.8256  1.2103  1.6222
 8570TIP3   OH247200   6.026   6.393   3.896 -0.2622 -0.4958 -0.5123
 8570TIP3    H147201   5.956   6.421   3.837 -0.8352 -0.7966  0.0087
 8570TIP3    H247202   6.018   6.451   3.972  0.4683 -0.1124 -0.7185
 8571TIP3   OH247203   3.511   1.532  13.047 -0.3244  0.0281 -0.3507
 8571TIP3    H147204   3.494   1.439  13.034 -1.1913  0.2092 -0.5983
 8571TIP3    H247205   3.507   1.570  12.959 -1.6761  0.5459 -0.1019
 8572TIP3   OH247206   0.196   2.794  15.460 -0.2469 -0.0075 -0.1576
 8572TIP3    H147207   0.288   2.777  15.480 -0.3898 -0.6556 -0.0380
 8572TIP3    H247208   0.161   2.709  15.434 -1.1049 -0.0209  0.9621
 8573TIP3   OH247209   3.272   2.067   0.476 -0.1459  0.3564 -0.0773
 8573TIP3    H147210   3.230   2.122   0.541 -0.1548  1.0818 -0.6802
 8573TIP3    H247211   3.284   1.982   0.519  0.6300  1.0683  1.1409
 8574TIP3   OH247212   6.486   2.652  15.735 -0.4413  0.8275 -0.2414
 8574TIP3    H147213   6.429   2.656  15.658  0.7450 -0.0995 -1.2050
 8574TIP3    H247214   6.476   2.563  15.767 -0.4914  1.0448  0.3571
 8575TIP3   OH247215   6.175   4.837  13.938 -0.0683  0.4936  0.5054
 8575TIP3    H147216   6.090   4.866  13.905 -1.2565 -0.7939  2.2490
 8575TIP3    H247217   6.237   4.856  13.867 -1.5849  2.5211 -0.3682
 8576TIP3   OH247218   1.280   2.776  11.639  0.9379 -0.2418  0.1889
 8576TIP3    H147219   1.290   2.858  11.688  0.9002  0.0305 -0.2553
 8576TIP3    H247220   1.357   2.724  11.663  0.2258 -0.6859  1.6220
 8577TIP3   OH247221   2.930   2.243  16.963  0.0091 -0.5202  0.2098
 8577TIP3    H147222   2.893   2.159  16.935 -0.2415 -0.7395  1.1581
 8577TIP3    H247223   2.946   2.290  16.882  0.4323 -1.6026 -0.3637
 8578TIP3   OH247224   2.254   0.588  10.501  0.1196  0.6241  0.5002
 8578TIP3    H147225   2.309   0.592  10.423  1.5271  1.8711  1.5171
 8578TIP3    H247226   2.298   0.644  10.565 -1.1797 -0.0934  2.0911
 8579TIP3   OH247227   4.883   0.206   3.944 -0.3473 -0.1751 -0.3361
 8579TIP3    H147228   4.839   0.266   4.004  1.2454 -1.0127  1.8025
 8579TIP3    H247229   4.837   0.123   3.955  0.8127 -0.6912  0.8502
 8580TIP3   OH247230   5.988   5.101  12.107  0.1547 -0.1748 -0.3522
 8580TIP3    H147231   5.895   5.118  12.126  0.5388  0.8803  0.7715
 8580TIP3    H247232   6.002   5.140  12.021 -0.6460 -1.1454 -0.9400
 8581TIP3   OH247233   5.768   6.478  12.613 -0.0818  0.1980 -0.0172
 8581TIP3    H147234   5.851   6.463  12.567  0.5922  0.7733  0.9770
 8581TIP3    H247235   5.738   6.390  12.637  1.3003  0.0869  1.4140
 8582TIP3   OH247236   0.944   1.707  13.033  0.0134  0.0286  0.0299
 8582TIP3    H147237   0.901   1.622  13.021  0.5357 -0.0240 -1.7198
 8582TIP3    H247238   0.987   1.724  12.950 -2.8694  3.5893 -1.0232
 8583TIP3   OH247239   4.969   4.664   6.594  0.5821  0.0085 -0.3358
 8583TIP3    H147240   5.023   4.641   6.670 -1.5328 -2.6329  0.5195
 8583TIP3    H247241   4.963   4.584   6.544 -0.5268  0.9127 -1.7236
 8584TIP3   OH247242   6.609   3.023   3.143 -0.3512  0.5399  0.8963
 8584TIP3    H147243   6.599   3.063   3.057  1.9774 -0.8352 -0.1141
 8584TIP3    H247244   6.689   3.063   3.179 -1.2913  1.1033  2.4583
 8585TIP3   OH247245   0.780   5.021   4.067  0.4843  0.1510 -0.7834
 8585TIP3    H147246   0.751   4.930   4.062 -0.0113  0.3242 -1.0710
 8585TIP3    H247247   0.858   5.024   4.011  1.7615 -0.5674  0.8389
 8586TIP3   OH247248   3.399   0.409  15.026  0.0459  0.0887 -0.0123
 8586TIP3    H147249   3.418   0.371  14.940 -0.9642  0.7294 -0.5326
 8586TIP3    H247250   3.467   0.373  15.083  0.0992 -1.1742 -0.8409
 8587TIP3   OH247251   0.046   2.035  14.198  1.1246 -0.3677  0.1867
 8587TIP3    H147252   0.131   2.008  14.163  0.9095 -0.1176 -0.5617
 8587TIP3    H247253  -0.001   2.069  14.121  1.2794  1.8434  1.0056
 8588TIP3   OH247254   2.855   0.640   1.249  0.2035  0.3428 -0.4624
 8588TIP3    H147255   2.833   0.609   1.161 -1.4111 -0.4592  0.1895
 8588TIP3    H247256   2.804   0.584   1.307  2.4161 -0.1641  1.0905
 8589TIP3   OH247257   1.104   6.222  14.561 -0.1825 -0.0207 -0.1532
 8589TIP3    H147258   1.070   6.258  14.643  0.8537 -3.1319  1.8430
 8589TIP3    H247259   1.188   6.266  14.550  1.0155 -1.4920  2.1574
 8590TIP3   OH247260   2.324   1.413  10.495 -0.0421 -0.4308 -0.2050
 8590TIP3    H147261   2.309   1.370  10.579  0.1432 -0.5890 -0.2518
 8590TIP3    H247262   2.416   1.395  10.474 -0.2277 -0.8440 -0.6904
 8591TIP3   OH247263   0.506   0.083  11.140  0.2458 -0.8662  0.4322
 8591TIP3    H147264   0.553   0.137  11.203 -0.8024 -0.3318  0.7814
 8591TIP3    H247265   0.574   0.043  11.086  1.0436  0.6876  0.2627
 8592TIP3   OH247266   5.153   2.011   2.731 -0.2450 -0.0944 -0.5748
 8592TIP3    H147267   5.231   2.037   2.780 -0.6541  2.5142 -1.1460
 8592TIP3    H247268   5.119   1.935   2.777  1.3727  0.0822  1.0119
 8593TIP3   OH247269   5.541   1.587  10.511 -0.0345  0.1294 -0.0214
 8593TIP3    H147270   5.513   1.625  10.428  0.0034 -1.6079 -0.8777
 8593TIP3    H247271   5.633   1.614  10.520  0.7382 -1.6611 -1.8285
 8594TIP3   OH247272   1.093   4.698  11.608 -0.2806 -0.1720 -0.6865
 8594TIP3    H147273   1.079   4.791  11.594  1.6036  0.2423 -0.1494
 8594TIP3    H247274   1.059   4.681  11.696  1.2993  0.5273  0.1057
 8595TIP3   OH247275   3.066   0.247   3.845  0.3307  0.2020  0.1384
 8595TIP3    H147276   3.004   0.304   3.891  0.9409  0.6635  0.4046
 8595TIP3    H247277   3.100   0.189   3.912  1.1562  0.8173  0.2728
 8596TIP3   OH247278   6.759   2.899  12.975  0.4490 -0.1140 -0.3151
 8596TIP3    H147279   6.831   2.952  13.008 -0.3585  0.8865 -0.1060
 8596TIP3    H247280   6.683   2.927  13.025  0.2220 -2.5185  0.8360
 8597TIP3   OH247281   0.313   2.639   5.870  0.1836 -0.7761  0.0105
 8597TIP3    H147282   0.408   2.649   5.872  0.0374  0.8057  1.6597
 8597TIP3    H247283   0.283   2.711   5.815 -0.1583 -0.2514  0.8855
 8598TIP3   OH247284   3.418   2.588  14.552 -0.3012 -0.4820 -0.3647
 8598TIP3    H147285   3.379   2.665  14.592 -0.4466 -0.8003  0.1181
 8598TIP3    H247286   3.490   2.563  14.610 -0.9270 -1.3329  0.0750
 8599TIP3   OH247287   6.047   2.483   6.415  0.5086  0.0916  0.1201
 8599TIP3    H147288   6.076   2.426   6.486 -0.8214 -1.0142 -0.1725
 8599TIP3    H247289   6.068   2.434   6.335 -0.1276  0.2643 -0.1591
 8600TIP3   OH247290   3.047   5.742   1.230  0.7737 -0.1700  0.0036
 8600TIP3    H147291   3.095   5.769   1.308  1.5322 -1.2278 -0.0773
 8600TIP3    H247292   3.115   5.721   1.166  0.1802 -0.4320 -0.5526
 8601TIP3   OH247293   5.714   3.361  15.472 -0.4550  0.0061 -0.0437
 8601TIP3    H147294   5.699   3.388  15.563 -0.2075 -1.8621  0.5928
 8601TIP3    H247295   5.808   3.365  15.461 -0.1946 -2.3051  0.7028
 8602TIP3   OH247296   0.316   0.085  13.893  0.3341  0.0506  0.4416
 8602TIP3    H147297   0.390   0.141  13.917  0.6553 -0.4287  0.5892
 8602TIP3    H247298   0.344  -0.003  13.918 -0.5807 -0.0398  1.1877
 8603TIP3   OH247299   1.534   1.842  14.348 -0.8285 -0.3458  0.3082
 8603TIP3    H147300   1.484   1.832  14.267 -0.1626  1.3388 -0.3656
 8603TIP3    H247301   1.473   1.882  14.410 -1.5283 -2.2197  0.8860
 8604TIP3   OH247302   4.850   6.319   2.326 -0.2716  0.2395  0.0440
 8604TIP3    H147303   4.766   6.359   2.304 -1.1861 -1.5089  0.1882
 8604TIP3    H247304   4.828   6.248   2.386  1.0959 -1.3333 -1.2074
 8605TIP3   OH247305   5.275   6.264  16.088  0.2420 -0.0466  0.0289
 8605TIP3    H147306   5.289   6.248  15.995 -0.8886 -0.1801 -0.1291
 8605TIP3    H247307   5.307   6.185  16.131 -1.4829 -1.0590 -0.4436
 8606TIP3   OH247308   0.838   1.920  16.492  0.0992  0.6131 -0.5321
 8606TIP3    H147309   0.917   1.967  16.516  0.2823 -0.1719  0.4883
 8606TIP3    H247310   0.783   1.985  16.447  2.1371  0.6754 -3.1442
 8607TIP3   OH247311   2.882   4.131  16.392  0.2457  0.3743  0.8941
 8607TIP3    H147312   2.896   4.121  16.486  0.1625  1.8052  1.0925
 8607TIP3    H247313   2.860   4.224  16.381  0.4893  0.2907 -0.5637
 8608TIP3   OH247314   6.347   3.816   3.328  0.1233  0.1779 -0.5544
 8608TIP3    H147315   6.410   3.787   3.395 -0.4061  2.7175  1.2199
 8608TIP3    H247316   6.281   3.747   3.325 -0.6512  0.5837  2.7716
 8609TIP3   OH247317   0.156   5.996  13.871 -0.3658 -0.6060  0.0489
 8609TIP3    H147318   0.137   6.028  13.783 -1.8239  1.1988  0.9591
 8609TIP3    H247319   0.088   6.034  13.926  0.7716 -1.3029  2.0544
 8610TIP3   OH247320   6.308   3.135   2.936  0.2234 -0.0072  0.2655
 8610TIP3    H147321   6.396   3.096   2.934  0.1225 -0.3551  1.5620
 8610TIP3    H247322   6.318   3.214   2.988 -0.3921 -0.5226  1.1922
 8611TIP3   OH247323   1.051   0.888  14.230  0.0136  0.1282  0.1146
 8611TIP3    H147324   1.038   0.943  14.152  1.8395  0.6384  0.1166
 8611TIP3    H247325   1.000   0.932  14.299  0.2982  1.0277 -0.2289
 8612TIP3   OH247326   2.527   1.576  12.661 -0.2115 -0.0549 -0.2127
 8612TIP3    H147327   2.575   1.551  12.582 -0.9002  1.7478 -1.2637
 8612TIP3    H247328   2.591   1.567  12.731  1.8053  2.3401 -1.5784
 8613TIP3   OH247329   5.977   5.962   1.416 -0.4805  0.4717  0.0504
 8613TIP3    H147330   5.942   6.034   1.364 -0.8102 -1.0068 -1.8861
 8613TIP3    H247331   5.934   5.971   1.501  1.1305  3.7965  0.6863
 8614TIP3   OH247332   4.754   4.035   1.008  0.2991 -0.4680 -0.1392
 8614TIP3    H147333   4.766   4.129   1.021  0.5007  0.1694 -3.7852
 8614TIP3    H247334   4.659   4.022   1.011  0.1785  0.1388 -0.9532
 8615TIP3   OH247335   4.149   6.418  16.356 -0.2450  0.2204 -0.1193
 8615TIP3    H147336   4.161   6.336  16.403 -1.6945 -1.9081 -3.0902
 8615TIP3    H247337   4.055   6.423  16.340  0.0886  1.1404 -2.1143
 8616TIP3   OH247338   4.979   3.974  13.442  0.2649 -0.8419  0.0924
 8616TIP3    H147339   5.050   4.032  13.415 -1.1479  0.3335 -1.2570
 8616TIP3    H247340   4.997   3.892  13.398  1.5419 -1.0486  0.9265
 8617TIP3   OH247341   6.134   2.955  12.863  0.1332 -0.1594 -0.0505
 8617TIP3    H147342   6.061   3.004  12.824  0.3169 -0.7647 -1.1969
 8617TIP3    H247343   6.113   2.863  12.844  1.8572 -0.2800 -1.6356
 8618TIP3   OH247344   1.782   3.932   6.282 -0.0835  0.1720 -0.1999
 8618TIP3    H147345   1.744   4.004   6.331 -1.3236 -0.7190  0.2110
 8618TIP3    H247346   1.707   3.879   6.254  0.7237 -0.4434 -1.3177
 8619TIP3   OH247347   6.694   3.400   0.163 -0.6471  0.0992  0.6108
 8619TIP3    H147348   6.630   3.455   0.207 -1.2224  0.0432 -0.1556
 8619TIP3    H247349   6.771   3.457   0.151 -0.7297  0.3121  1.0656
 8620TIP3   OH247350   0.592   2.547  10.865  0.1982 -0.3508 -0.4049
 8620TIP3    H147351   0.627   2.534  10.777  0.2814  1.9154 -0.7764
 8620TIP3    H247352   0.638   2.624  10.898 -0.0329 -0.9991  1.5346
 8621TIP3   OH247353   2.709   2.447   5.756 -0.2694  0.6451  0.3956
 8621TIP3    H147354   2.655   2.381   5.712 -1.9815  1.6651  0.8854
 8621TIP3    H247355   2.787   2.453   5.701  0.8724 -3.0618  1.2964
 8622TIP3   OH247356   1.173   6.235   0.729 -0.1288 -0.1183 -0.0754
 8622TIP3    H147357   1.106   6.286   0.775  0.8059  1.6887 -0.6606
 8622TIP3    H247358   1.126   6.192   0.658 -1.3886 -2.0823  1.7967
 8623TIP3   OH247359   1.172   1.395  11.454  0.2871  0.3049 -0.3840
 8623TIP3    H147360   1.203   1.352  11.534  0.2315 -0.5113 -0.7904
 8623TIP3    H247361   1.250   1.437  11.418  0.0254  1.9643  0.8654
 8624TIP3   OH247362   4.381   2.748   1.684  0.2334  0.4806 -0.2427
 8624TIP3    H147363   4.312   2.746   1.750  0.3329 -0.3770 -0.1541
 8624TIP3    H247364   4.336   2.767   1.602 -0.2279 -0.8141 -0.3141
 8625TIP3   OH247365   4.607   0.472  15.437 -0.4780 -0.5389  0.1336
 8625TIP3    H147366   4.651   0.475  15.353 -0.1917  1.1136  0.3172
 8625TIP3    H247367   4.570   0.559  15.449 -1.5860 -1.1065  1.1634
 8626TIP3   OH247368   5.709   1.326  11.876  0.1957 -0.1336 -0.1537
 8626TIP3    H147369   5.718   1.421  11.862 -1.0072  0.0952  0.5207
 8626TIP3    H247370   5.617   1.307  11.854  0.4659 -1.1768 -0.4395
 8627TIP3   OH247371   5.788   5.432  16.925  0.5217  0.0855 -0.4179
 8627TIP3    H147372   5.715   5.469  16.973  0.8087  0.2693 -0.1169
 8627TIP3    H247373   5.750   5.397  16.845 -0.0912 -0.9006  0.2769
 8628TIP3   OH247374   4.478   6.625   4.041  0.0354  0.1202  0.5388
 8628TIP3    H147375   4.408   6.690   4.051  0.3614  0.2210  2.4122
 8628TIP3    H247376   4.481   6.608   3.947 -2.2581  0.3896  0.3658
 8629TIP3   OH247377   2.349   3.567   1.628 -0.1104  0.3273  0.1197
 8629TIP3    H147378   2.384   3.585   1.715 -0.2462 -1.5035  0.6044
 8629TIP3    H247379   2.420   3.523   1.582  0.0816  1.5937 -0.8502
 8630TIP3   OH247380   6.514   5.269  12.792  0.0186 -0.5837  0.0577
 8630TIP3    H147381   6.575   5.195  12.793  1.4664  0.5374 -0.5615
 8630TIP3    H247382   6.566   5.344  12.821 -1.0316  0.4438 -0.5828
 8631TIP3   OH247383   5.613   2.535   4.300 -0.1853 -0.2145  0.3648
 8631TIP3    H147384   5.622   2.609   4.240 -0.1387 -0.1515  0.4479
 8631TIP3    H247385   5.635   2.458   4.248 -1.1943 -0.2787  0.0133
 8632TIP3   OH247386   3.984   6.459   2.726 -0.4182 -0.3852  0.4134
 8632TIP3    H147387   3.934   6.535   2.697 -0.1382 -0.1037  0.6693
 8632TIP3    H247388   4.076   6.485   2.717 -0.2674 -1.4121 -1.4720
 8633TIP3   OH247389   1.483   1.949  16.159 -0.2478 -0.5875  0.1928
 8633TIP3    H147390   1.488   1.996  16.075 -0.3803  1.5649  1.3271
 8633TIP3    H247391   1.449   2.013  16.221 -2.2530 -2.7098  1.5008
 8634TIP3   OH247392   1.715   1.641  12.810  0.6289 -0.2498  0.0033
 8634TIP3    H147393   1.740   1.570  12.869 -1.2696 -1.6359 -0.7343
 8634TIP3    H247394   1.683   1.710  12.868 -0.7716 -1.4051  0.6772
 8635TIP3   OH247395   2.081   6.538   0.995  0.1560 -0.2363 -0.5297
 8635TIP3    H147396   2.108   6.487   0.919  0.1211 -1.2101  0.0960
 8635TIP3    H247397   2.066   6.473   1.064  0.6802  0.6686  0.4652
 8636TIP3   OH247398   5.980   0.232  12.730 -0.1214  0.5028 -0.0732
 8636TIP3    H147399   6.070   0.245  12.701 -0.2493  2.1542  0.1302
 8636TIP3    H247400   5.933   0.201  12.653  0.9144 -2.1003  0.2359
 8637TIP3   OH247401   2.010   1.136   1.568 -0.2814 -0.3445 -0.1729
 8637TIP3    H147402   2.039   1.099   1.652  0.2210 -0.5403 -0.4283
 8637TIP3    H247403   2.072   1.101   1.504 -1.3617 -1.1720 -0.8137
 8638TIP3   OH247404   3.053   2.311  12.932  0.0680 -0.7211 -0.5742
 8638TIP3    H147405   3.114   2.383  12.944 -0.8362 -0.2825  1.8447
 8638TIP3    H247406   2.994   2.341  12.863 -0.6651  1.1454  0.8099
 8639TIP3   OH247407   0.423   3.443   5.267  0.5244 -0.4554  0.4239
 8639TIP3    H147408   0.477   3.446   5.346  0.0454  0.2386  0.7372
 8639TIP3    H247409   0.485   3.427   5.196  1.2086  0.6558  0.7413
 8640TIP3   OH247410   5.142   6.285   4.609  0.1966  0.2116  0.3234
 8640TIP3    H147411   5.050   6.264   4.629  0.1196 -1.4488 -1.5094
 8640TIP3    H247412   5.191   6.251   4.684 -0.5028 -1.0578  0.2264
 8641TIP3   OH247413   1.641   3.709  17.109  1.0617 -0.3429 -0.7088
 8641TIP3    H147414   1.647   3.710  17.204 -0.1456  0.4338 -0.6234
 8641TIP3    H247415   1.645   3.616  17.085 -1.9514 -0.8450  0.3647
 8642TIP3   OH247416   0.746   1.548  12.598 -0.5217  0.0237 -0.1402
 8642TIP3    H147417   0.752   1.481  12.530 -0.0395  0.3150 -0.3838
 8642TIP3    H247418   0.760   1.631  12.553 -1.0344  0.2853  0.1760
 8643TIP3   OH247419   2.193   6.620  14.314  0.4921 -0.2970  0.1346
 8643TIP3    H147420   2.179   6.550  14.250  1.3534 -0.1760 -0.2015
 8643TIP3    H247421   2.271   6.592  14.363  0.6173  0.2416  0.2477
 8644TIP3   OH247422   6.712   0.812   4.797  0.5600  0.2759  0.7755
 8644TIP3    H147423   6.769   0.871   4.748 -0.1222  0.0036 -0.4114
 8644TIP3    H247424   6.743   0.816   4.887  0.7839  2.1143  0.6384
 8645TIP3   OH247425   2.220   3.377  12.879 -0.5342  0.0898 -0.0957
 8645TIP3    H147426   2.248   3.388  12.969 -1.3444 -0.0659  0.1866
 8645TIP3    H247427   2.202   3.466  12.848  1.6442  0.3532 -0.7668
 8646TIP3   OH247428   5.063   5.936   6.586 -0.8005 -0.0707 -0.2394
 8646TIP3    H147429   5.063   6.025   6.549 -0.4247 -0.5363 -1.4043
 8646TIP3    H247430   4.981   5.898   6.554 -0.5206 -0.4498 -0.4995
 8647TIP3   OH247431   0.713   2.951  15.697 -0.2278  0.1297  0.2907
 8647TIP3    H147432   0.752   3.033  15.665  0.7180 -0.1653  0.6321
 8647TIP3    H247433   0.747   2.884  15.638 -1.1580  0.0019 -0.1071
 8648TIP3   OH247434   0.097   3.688  14.872  0.2872  0.1794  0.1758
 8648TIP3    H147435   0.155   3.737  14.814 -0.6574  1.8028  0.5504
 8648TIP3    H247436   0.013   3.733  14.865 -1.4965 -3.0765 -1.6342
 8649TIP3   OH247437   1.077   4.198  13.978 -0.1067  0.1738 -0.1482
 8649TIP3    H147438   0.996   4.209  13.927  0.6978 -0.0091 -1.5000
 8649TIP3    H247439   1.147   4.204  13.914  1.0850  2.0739  1.2370
 8650TIP3   OH247440   1.969   2.124  15.062  0.3600  0.5064  0.1403
 8650TIP3    H147441   1.967   2.181  15.139 -0.3445  1.7981 -0.7870
 8650TIP3    H247442   1.880   2.132  15.025  0.8005  0.2469 -1.0184
 8651TIP3   OH247443   1.253   5.768  15.735  0.1483  0.2101  0.2913
 8651TIP3    H147444   1.219   5.774  15.646  0.5413 -0.4731  0.0833
 8651TIP3    H247445   1.272   5.858  15.760 -0.7003  0.4874 -0.0202
 8652TIP3   OH247446   4.999   3.703  11.341 -0.4168 -0.2567  0.2709
 8652TIP3    H147447   4.996   3.725  11.434  0.1073 -1.8209  0.6999
 8652TIP3    H247448   5.085   3.661  11.330 -0.3967  0.0798 -0.9599
 8653TIP3   OH247449   5.125   2.621   2.286 -0.1670 -0.4599  0.3285
 8653TIP3    H147450   5.198   2.631   2.225 -0.1471 -0.5324  0.3401
 8653TIP3    H247451   5.056   2.677   2.250 -1.0383 -2.3540 -1.1450
 8654TIP3   OH247452   4.262   4.622  10.410  0.5182 -0.4736 -0.2970
 8654TIP3    H147453   4.249   4.711  10.375  1.1668  0.3074  1.3623
 8654TIP3    H247454   4.344   4.627  10.458 -0.4209 -1.4453  1.4885
 8655TIP3   OH247455   1.757   1.946  11.376  0.0530  0.1296 -0.3133
 8655TIP3    H147456   1.803   1.881  11.322 -2.1372 -3.1376  1.3706
 8655TIP3    H247457   1.825   2.006  11.405  1.9399 -0.2097 -3.5272
 8656TIP3   OH247458   0.527   3.888  11.455 -0.1084 -0.0565 -0.2046
 8656TIP3    H147459   0.605   3.835  11.475 -0.1633 -0.9181 -2.0266
 8656TIP3    H247460   0.516   3.944  11.532  2.0958 -0.1519  0.2680
 8657TIP3   OH247461   5.280   3.706  16.819 -0.2307 -0.6955  0.0904
 8657TIP3    H147462   5.365   3.727  16.858 -0.5079 -1.6523  1.2584
 8657TIP3    H247463   5.217   3.715  16.891 -0.9366 -1.2881 -0.4322
 8658TIP3   OH247464   2.003   6.202   2.226 -0.3380  0.2262 -0.0011
 8658TIP3    H147465   1.981   6.147   2.151 -1.4094 -0.9893  1.1500
 8658TIP3    H247466   2.031   6.286   2.187 -1.4087 -0.1641 -1.7198
 8659TIP3   OH247467   1.442   2.321   5.341 -0.1779  0.7613 -0.3863
 8659TIP3    H147468   1.535   2.343   5.336 -0.1338  0.4060 -1.4000
 8659TIP3    H247469   1.409   2.371   5.416  0.6680  1.4955 -0.4924
 8660TIP3   OH247470   3.282   5.311  16.480 -0.6015 -0.4899 -0.2415
 8660TIP3    H147471   3.229   5.328  16.557 -1.0831  0.2955 -0.7417
 8660TIP3    H247472   3.339   5.238  16.506  0.5208  0.9251  1.4606
 8661TIP3   OH247473   3.894   6.251   1.231  0.5092 -0.1868 -0.0723
 8661TIP3    H147474   3.950   6.217   1.301  0.8878 -0.2528 -0.4067
 8661TIP3    H247475   3.836   6.178   1.209 -0.6801  0.2997  1.2365
 8662TIP3   OH247476   4.414   3.453  16.806  0.1516  0.1781  0.7939
 8662TIP3    H147477   4.335   3.443  16.858 -0.9301 -1.8204 -1.0728
 8662TIP3    H247478   4.418   3.546  16.785 -1.5595  0.3563  1.1514
 8663TIP3   OH247479   4.485   5.428   1.877 -0.0956 -0.3118  0.1037
 8663TIP3    H147480   4.505   5.459   1.965  0.9658  0.4589 -0.3883
 8663TIP3    H247481   4.513   5.499   1.819 -1.3015 -0.5623 -0.8398
 8664TIP3   OH247482   3.165   2.533   2.278 -0.0716  0.1892  0.0462
 8664TIP3    H147483   3.251   2.570   2.296 -0.0787  0.7767 -1.0009
 8664TIP3    H247484   3.154   2.464   2.344  1.1653  0.1431  0.2422
 8665TIP3   OH247485   1.619   5.927  12.409 -0.6260 -0.3428 -0.0752
 8665TIP3    H147486   1.562   6.004  12.410 -1.0406 -0.6514  1.3240
 8665TIP3    H247487   1.707   5.963  12.409 -0.8167  0.1330  0.4726
 8666TIP3   OH247488   5.083   1.670  11.271  0.1898 -0.4948  0.3996
 8666TIP3    H147489   5.133   1.612  11.214 -2.6730 -1.6439 -1.1581
 8666TIP3    H247490   5.075   1.752  11.221  0.0300 -0.5253  0.3737
 8667TIP3   OH247491   4.173   2.509  10.705  0.3364  0.1668 -0.0759
 8667TIP3    H147492   4.219   2.457  10.640  0.1352 -0.3796  0.2127
 8667TIP3    H247493   4.097   2.456  10.729  0.0308  0.6715  0.0898
 8668TIP3   OH247494   5.287   6.171   2.846  0.5239  0.0168 -0.6101
 8668TIP3    H147495   5.200   6.132   2.838  0.5312 -0.0301 -0.4611
 8668TIP3    H247496   5.333   6.145   2.766  0.5148 -0.2442 -0.5319
 8669TIP3   OH247497   0.119   6.723   3.755  0.2423  0.0889  0.0715
 8669TIP3    H147498   0.165   6.780   3.694  0.9618 -0.4848  0.0664
 8669TIP3    H247499   0.188   6.672   3.798 -0.3599 -0.5547  0.3054
 8670TIP3   OH247500   3.497   1.031  14.660 -0.2348 -0.0622 -0.1725
 8670TIP3    H147501   3.530   1.121  14.664  0.6611 -0.2196 -2.4204
 8670TIP3    H247502   3.575   0.976  14.671 -0.5005 -0.5130 -0.4844
 8671TIP3   OH247503   6.490   1.931   0.281  0.1511  0.0409  0.3749
 8671TIP3    H147504   6.488   2.026   0.287 -0.2596  0.0076  0.7986
 8671TIP3    H247505   6.583   1.909   0.281  0.3966  0.2039  4.6915
 8672TIP3   OH247506   3.821   0.759  17.025 -0.1497  0.4142 -0.3045
 8672TIP3    H147507   3.756   0.696  16.993  0.0816  0.1191 -0.2013
 8672TIP3    H247508   3.841   0.814  16.950 -0.8734  0.8125 -0.2105
 8673TIP3   OH247509   5.253   5.126  11.381 -0.5536  0.5017  0.0312
 8673TIP3    H147510   5.251   5.034  11.407 -0.7360  0.1454 -1.1693
 8673TIP3    H247511   5.341   5.140  11.345 -0.8617  0.5045 -0.7447
 8674TIP3   OH247512   5.876   0.059   2.714  0.1226 -0.4248  0.1813
 8674TIP3    H147513   5.956   0.037   2.668  0.6439 -0.4555  1.0789
 8674TIP3    H247514   5.905   0.099   2.796 -0.7919  1.0102 -0.1519
 8675TIP3   OH247515   1.284   4.281   2.655  0.5549  0.1567  0.5230
 8675TIP3    H147516   1.243   4.198   2.631 -0.3007  1.0626 -1.3073
 8675TIP3    H247517   1.371   4.277   2.616  0.0784  0.5871 -0.6211
 8676TIP3   OH247518   2.570   4.521  17.069 -0.2128  0.5886 -1.0146
 8676TIP3    H147519   2.520   4.458  17.120  1.2562  0.7905  0.7877
 8676TIP3    H247520   2.528   4.606  17.089 -1.5759  0.3549 -2.6700
 8677TIP3   OH247521   0.611   4.412   1.692  0.1398  0.6224 -0.4757
 8677TIP3    H147522   0.540   4.463   1.653 -0.4707  0.0756 -0.1084
 8677TIP3    H247523   0.566   4.341   1.739  0.8721  1.0514  0.9089
 8678TIP3   OH247524   6.765   4.794   1.302  0.0076  0.5645  0.0310
 8678TIP3    H147525   6.702   4.813   1.371 -0.0204  0.6745 -0.0238
 8678TIP3    H247526   6.791   4.703   1.317 -0.5089  0.3719 -0.2146
 8679TIP3   OH247527   6.792   5.434   1.045  0.4402  0.1152  0.4795
 8679TIP3    H147528   6.838   5.436   1.129  0.8592  1.4505  0.2504
 8679TIP3    H247529   6.853   5.391   0.985 -0.0536 -1.2809  0.9353
 8680TIP3   OH247530   0.469   6.111   5.898  0.3409  0.5341  0.4842
 8680TIP3    H147531   0.444   6.107   5.806 -2.4119  1.0909  1.1073
 8680TIP3    H247532   0.431   6.193   5.930  1.2011  0.3441  2.1221
 8681TIP3   OH247533   0.667   2.070   5.406  0.5086  0.2512 -0.1704
 8681TIP3    H147534   0.718   2.119   5.341  1.8437 -0.4133  0.3271
 8681TIP3    H247535   0.713   2.086   5.488  1.0002 -1.8151  0.0019
 8682TIP3   OH247536   2.459   0.535   4.941 -0.5488  0.1099  0.4902
 8682TIP3    H147537   2.546   0.556   4.907 -0.5601 -1.0844 -0.3328
 8682TIP3    H247538   2.467   0.548   5.035  0.4663  0.2173  0.4038
 8683TIP3   OH247539   0.942   1.984  13.960 -0.3199  0.4429 -0.3849
 8683TIP3    H147540   0.956   2.068  14.002  1.6936  0.6845 -1.4066
 8683TIP3    H247541   0.986   1.992  13.875  0.4343 -1.7945 -0.2847
 8684TIP3   OH247542   4.547   3.586  10.969  0.0595  0.4897  0.0545
 8684TIP3    H147543   4.553   3.668  10.919  0.1132 -0.4578 -1.5448
 8684TIP3    H247544   4.582   3.519  10.911  1.7607 -0.4459  2.0091
 8685TIP3   OH247545   2.411   5.405   0.144 -0.3443  0.0369  0.1722
 8685TIP3    H147546   2.350   5.479   0.145 -1.4515 -0.8109 -0.8159
 8685TIP3    H247547   2.407   5.369   0.232  0.8677  1.6344  0.9225
 8686TIP3   OH247548   5.080   6.066  15.456  0.1229  0.3598 -0.2501
 8686TIP3    H147549   5.015   6.128  15.489  1.0453 -0.1236  2.7215
 8686TIP3    H247550   5.102   6.012  15.531 -0.0490 -3.1561 -2.4999
 8687TIP3   OH247551   4.870   5.519   2.648  0.5175 -0.1310 -0.9714
 8687TIP3    H147552   4.902   5.597   2.693  1.0477 -2.1842  2.5773
 8687TIP3    H247553   4.779   5.541   2.626  0.6262  1.4576 -0.0153
 8688TIP3   OH247554   1.205   6.814  15.739 -0.0757  0.2917 -0.1100
 8688TIP3    H147555   1.230   6.727  15.772  0.5529 -0.2743 -1.9361
 8688TIP3    H247556   1.115   6.826  15.769 -0.5583 -1.4893 -0.7133
 8689TIP3   OH247557   1.987   4.269   4.627  0.3537  0.7294 -0.0894
 8689TIP3    H147558   1.933   4.332   4.578  1.1895  1.2842 -0.3210
 8689TIP3    H247559   2.076   4.284   4.595  0.9693  1.2781  1.7755
 8690TIP3   OH247560   5.962   6.584   1.988 -0.0490  0.0384  0.4937
 8690TIP3    H147561   5.897   6.521   1.957 -0.2948  0.5667 -0.0839
 8690TIP3    H247562   5.965   6.571   2.082  0.6146 -1.5103  0.2949
 8691TIP3   OH247563   4.745   0.523   1.656  0.4031  0.0179  0.4453
 8691TIP3    H147564   4.733   0.500   1.565  1.2574  0.7349  0.1273
 8691TIP3    H247565   4.729   0.442   1.705 -1.8839  0.0531 -0.1594
 8692TIP3   OH247566   6.041   3.875   6.530 -0.1379  1.1121 -0.1877
 8692TIP3    H147567   6.050   3.822   6.451 -0.7550  1.1570 -0.2901
 8692TIP3    H247568   6.097   3.951   6.513  1.8511 -0.1149  0.5236
 8693TIP3   OH247569   2.686   2.663   3.255 -0.2102  0.3780 -0.6607
 8693TIP3    H147570   2.734   2.585   3.227 -2.1730 -0.2037 -2.6220
 8693TIP3    H247571   2.645   2.637   3.338  1.3661  0.3140  0.1426
 8694TIP3   OH247572   4.768   2.469  15.686  0.5856  0.3053 -0.5122
 8694TIP3    H147573   4.689   2.505  15.727  1.1594  0.7255  0.2648
 8694TIP3    H247574   4.736   2.403  15.625 -0.4069  0.9977 -0.7676
 8695TIP3   OH247575   1.124   3.036   5.576 -0.0227 -0.2861 -0.4214
 8695TIP3    H147576   1.072   3.084   5.640 -1.0198  0.8196 -1.9925
 8695TIP3    H247577   1.152   3.103   5.513  0.5955 -1.3916 -1.3514
 8696TIP3   OH247578   2.948   1.932  15.250  0.1531 -0.7324  0.1088
 8696TIP3    H147579   3.014   1.879  15.204  0.4435  0.7382 -1.2618
 8696TIP3    H247580   2.998   2.007  15.285 -0.2655 -1.2364  1.8926
 8697TIP3   OH247581   2.274   3.510   5.066  0.5313  0.2024  0.4011
 8697TIP3    H147582   2.355   3.543   5.026  0.4538  0.4274  0.4295
 8697TIP3    H247583   2.218   3.488   4.992  0.3556  0.6985  0.3844
 8698TIP3   OH247584   5.088   6.346  16.267 -0.3498  0.0396 -0.0367
 8698TIP3    H147585   5.127   6.322  16.183  1.7797  0.6990  0.6931
 8698TIP3    H247586   5.029   6.419  16.247  1.1923  1.1174 -0.7865
 8699TIP3   OH247587   0.279   4.359   3.641 -0.2027  0.3193  0.0252
 8699TIP3    H147588   0.203   4.396   3.686  1.9639  2.3108  2.3369
 8699TIP3    H247589   0.300   4.423   3.573 -0.2595  0.0099 -0.2917
 8700TIP3   OH247590   5.073   5.259   3.194 -0.6293 -0.3518  0.2179
 8700TIP3    H147591   5.153   5.216   3.164 -0.7734 -0.0220 -0.6792
 8700TIP3    H247592   5.064   5.335   3.136 -0.6618  0.5824  1.4302
 8701TIP3   OH247593   5.594   0.749  13.789 -0.4804 -0.1696  0.1031
 8701TIP3    H147594   5.579   0.765  13.882 -1.8244 -1.1203  0.0748
 8701TIP3    H247595   5.526   0.686  13.764 -0.4796  0.4692 -1.6460
 8702TIP3   OH247596   0.692   1.816  14.021 -0.2889  0.0897  0.2582
 8702TIP3    H147597   0.745   1.889  13.989 -0.0926  0.1180  0.6416
 8702TIP3    H247598   0.725   1.798  14.109  0.0115 -0.7974 -0.0198
 8703TIP3   OH247599   5.469   2.803   4.357  0.1427  0.2613  0.0723
 8703TIP3    H147600   5.555   2.822   4.396  0.2068 -0.3022  0.2174
 8703TIP3    H247601   5.487   2.793   4.264 -0.2551  3.1976 -0.4083
 8704TIP3   OH247602   1.173   1.711   4.074 -0.3718 -0.2800 -0.3162
 8704TIP3    H147603   1.094   1.708   4.021 -1.6135  0.0910  1.4241
 8704TIP3    H247604   1.244   1.693   4.012 -1.9279 -2.3934 -1.6516
 8705TIP3   OH247605   3.063   1.639  17.118 -0.1101 -0.8800  0.6184
 8705TIP3    H147606   3.115   1.642  17.199  1.0010  2.7059 -0.0508
 8705TIP3    H247607   3.113   1.582  17.060  0.7082 -1.0523  1.4648
 8706TIP3   OH247608   4.429   3.818  13.151  0.1804  0.1236  0.1804
 8706TIP3    H147609   4.511   3.862  13.127 -0.8330  1.5884 -0.8116
 8706TIP3    H247610   4.425   3.742  13.093  0.1603  0.8595 -0.8134
 8707TIP3   OH247611   6.244   2.544  12.616  0.0173 -0.7014 -0.3850
 8707TIP3    H147612   6.156   2.540  12.578  0.1238  1.2639 -0.9695
 8707TIP3    H247613   6.294   2.597  12.554  1.3305 -0.8952  0.4750
 8708TIP3   OH247614   5.831   6.014  11.621  0.0109 -0.1302 -0.2742
 8708TIP3    H147615   5.875   5.930  11.614  0.5382 -0.0658  1.6823
 8708TIP3    H247616   5.740   5.995  11.600  0.1425 -1.1652  0.0348
 8709TIP3   OH247617   3.529   1.339   2.743 -0.3542  0.2823  0.4296
 8709TIP3    H147618   3.555   1.300   2.660 -0.6392  1.0545 -0.0309
 8709TIP3    H247619   3.440   1.305   2.758  0.6869 -2.0707  1.8278
 8710TIP3   OH247620   3.775   4.175   3.658  0.3227 -0.5835  0.3438
 8710TIP3    H147621   3.762   4.202   3.567  1.9259  1.9527  0.7493
 8710TIP3    H247622   3.863   4.137   3.659  0.7703  0.4038  0.9624
 8711TIP3   OH247623   0.411   5.656  16.785 -0.0120  0.2676 -0.0075
 8711TIP3    H147624   0.443   5.698  16.865 -0.7224  1.5018 -0.3516
 8711TIP3    H247625   0.393   5.565  16.811 -1.3002  0.9130  1.5395
 8712TIP3   OH247626   6.514   3.760  15.277 -0.2625  0.4392 -0.1693
 8712TIP3    H147627   6.457   3.816  15.224  1.0160 -0.4343 -2.6532
 8712TIP3    H247628   6.602   3.777  15.242  0.5219 -0.9621  1.0182
 8713TIP3   OH247629   4.107   3.197  12.352  0.0605  0.1544 -0.7604
 8713TIP3    H147630   4.055   3.135  12.403  0.5653 -0.0318 -0.4665
 8713TIP3    H247631   4.196   3.186  12.384  0.5446 -0.5681 -2.2466
 8714TIP3   OH247632   3.628   1.751   3.207  0.3506 -0.8879  0.0604
 8714TIP3    H147633   3.657   1.772   3.296 -1.0580 -1.6775  0.7503
 8714TIP3    H247634   3.663   1.663   3.192 -1.6046 -1.8817  0.9310
 8715TIP3   OH247635   6.252   1.669   3.731  0.1534  0.2337  0.3259
 8715TIP3    H147636   6.178   1.639   3.678  2.5243 -1.8705 -2.0826
 8715TIP3    H247637   6.253   1.764   3.718  0.3476 -0.1075 -3.2401
 8716TIP3   OH247638   5.275   4.937   0.871 -0.0797 -0.1062 -0.3316
 8716TIP3    H147639   5.228   5.000   0.926  0.4278  0.9649 -1.1056
 8716TIP3    H247640   5.245   4.852   0.902 -1.6594  0.5257 -0.0226
 8717TIP3   OH247641   4.346   6.662  12.463  0.8131 -0.0756  0.0059
 8717TIP3    H147642   4.327   6.726  12.394 -0.6564 -1.8294 -1.3177
 8717TIP3    H247643   4.295   6.693  12.538  1.3919  1.1566 -0.0827
 8718TIP3   OH247644   5.189   5.421  15.797  0.3831  0.5590  0.3735
 8718TIP3    H147645   5.256   5.360  15.829 -0.5505 -0.6701  0.0609
 8718TIP3    H247646   5.141   5.371  15.732 -1.2633  1.1960  1.0539
 8719TIP3   OH247647   6.644   4.359   0.480  0.2039  0.1973 -0.3914
 8719TIP3    H147648   6.684   4.408   0.408  1.2932  1.1188  0.8021
 8719TIP3    H247649   6.550   4.363   0.462  0.5133 -0.6897 -2.4247
 8720TIP3   OH247650   2.936   2.420   4.073  0.6463 -0.2561 -0.4280
 8720TIP3    H147651   2.941   2.356   4.002  0.0740 -0.2834 -0.4467
 8720TIP3    H247652   3.019   2.410   4.120  1.1075 -0.1040 -1.2059
 8721TIP3   OH247653   3.900   4.098  12.625  0.2291 -0.5764  0.0318
 8721TIP3    H147654   3.972   4.080  12.686 -0.2839 -0.5251  0.6605
 8721TIP3    H247655   3.944   4.125  12.544  0.9262  0.5627  0.7489
 8722TIP3   OH247656   6.668   4.890  14.298  0.0276  0.2593  0.0164
 8722TIP3    H147657   6.582   4.917  14.265 -0.2303  0.6163  0.9408
 8722TIP3    H247658   6.654   4.801  14.330  0.0637  0.2325 -0.0417
 8723TIP3   OH247659   5.572   2.802  12.522 -0.2887  0.0400 -0.1550
 8723TIP3    H147660   5.563   2.896  12.535 -2.3966 -0.1089 -0.2401
 8723TIP3    H247661   5.585   2.792  12.427  0.3693  0.2479 -0.0935
 8724TIP3   OH247662   3.502   1.760  15.939 -0.0378  0.2194 -0.3714
 8724TIP3    H147663   3.596   1.754  15.956  0.1427 -0.8062 -1.6214
 8724TIP3    H247664   3.478   1.676  15.901 -1.8110 -0.1396  1.3808
 8725TIP3   OH247665   5.282   6.468  16.441 -0.3752  0.6082  0.6049
 8725TIP3    H147666   5.228   6.397  16.407  1.6985 -0.4247 -0.7813
 8725TIP3    H247667   5.221   6.524  16.488 -2.3185 -1.3898  0.6431
 8726TIP3   OH247668   5.116   6.625   0.734 -0.0993  0.1129  0.0366
 8726TIP3    H147669   5.050   6.665   0.790 -0.6581 -0.4833 -0.1858
 8726TIP3    H247670   5.168   6.571   0.794 -0.9232 -0.8124 -0.0593
 8727TIP3   OH247671   2.890   2.053  13.121 -0.4189  0.3171 -0.3292
 8727TIP3    H147672   2.943   2.131  13.137  1.0225 -0.7174  0.1565
 8727TIP3    H247673   2.874   2.053  13.026 -0.2522  1.0777 -0.3578
 8728TIP3   OH247674   2.172   2.027   1.755 -0.3644 -0.0345 -0.5398
 8728TIP3    H147675   2.103   2.086   1.723 -2.2890 -1.4569  0.7296
 8728TIP3    H247676   2.215   2.077   1.825  0.8077  1.3451 -2.1660
 8729TIP3   OH247677   2.092   4.917  12.861  0.5921 -0.0573  0.6141
 8729TIP3    H147678   2.181   4.894  12.835  0.7667  0.2796  0.9035
 8729TIP3    H247679   2.055   4.958  12.784  0.6827 -0.2080  0.4891
 8730TIP3   OH247680   1.189   0.186  15.214  0.0466  0.2242 -1.0291
 8730TIP3    H147681   1.242   0.108  15.196 -1.0613 -1.0462  0.9017
 8730TIP3    H247682   1.222   0.219  15.298 -0.9170  0.5698 -0.7765
 8731TIP3   OH247683   4.299   5.649  16.807  0.3842  0.2780  0.0424
 8731TIP3    H147684   4.300   5.554  16.810  3.1137  0.2405  0.7491
 8731TIP3    H247685   4.335   5.677  16.891 -0.2837  1.9387 -0.1785
 8732TIP3   OH247686   0.316   0.165   0.277  0.4784  0.0163 -0.4695
 8732TIP3    H147687   0.392   0.173   0.219  1.2417  1.3989  0.6658
 8732TIP3    H247688   0.334   0.225   0.349 -1.9363  0.7870 -0.4181
 8733TIP3   OH247689   4.588   3.263  12.166  0.0844  0.2048  0.8071
 8733TIP3    H147690   4.612   3.336  12.110 -0.2347  0.4943  1.0436
 8733TIP3    H247691   4.657   3.198  12.152 -0.9826 -0.5682 -1.4358
 8734TIP3   OH247692   3.850   5.749   4.799  0.0971  0.4414  0.0590
 8734TIP3    H147693   3.804   5.688   4.742  0.5645  0.1156  0.0270
 8734TIP3    H247694   3.786   5.819   4.815  0.4961  1.4605 -2.2844
 8735TIP3   OH247695   4.260   3.381   3.193  0.4393  0.2550  0.3779
 8735TIP3    H147696   4.338   3.380   3.138  1.4496 -0.8758  1.7438
 8735TIP3    H247697   4.290   3.347   3.277 -1.3762  0.5157  1.1805
 8736TIP3   OH247698   1.385   1.691   2.975 -0.9534  0.1878  0.6089
 8736TIP3    H147699   1.329   1.618   3.000 -2.3774  1.3366  0.9116
 8736TIP3    H247700   1.325   1.757   2.941  0.1264  1.7250  1.5492
 8737TIP3   OH247701   1.329   1.154  14.119 -0.0404 -0.2252 -0.3835
 8737TIP3    H147702   1.314   1.248  14.113 -0.8882 -0.3243  0.0231
 8737TIP3    H247703   1.299   1.130  14.207 -0.9831 -1.0721 -0.9194
 8738TIP3   OH247704   0.380   2.724  12.176  0.1166 -0.3042  0.6502
 8738TIP3    H147705   0.396   2.805  12.129 -0.5890 -0.2557  0.4720
 8738TIP3    H247706   0.413   2.740  12.264  1.3942 -0.3766  0.1964
 8739TIP3   OH247707   6.005   5.201  13.345 -0.2618 -0.3690  0.3424
 8739TIP3    H147708   6.011   5.142  13.420  0.1048 -0.9053 -0.1055
 8739TIP3    H247709   5.967   5.282  13.382 -0.6212 -0.8181  0.9890
 8740TIP3   OH247710   1.786   5.795  13.134  0.1461 -0.4199  0.6945
 8740TIP3    H147711   1.747   5.880  13.114  2.0569  0.2956 -0.2329
 8740TIP3    H247712   1.875   5.815  13.161  1.1113 -2.2066 -0.9265
 8741TIP3   OH247713   2.419   5.084  11.081 -0.4306  0.0640  0.3840
 8741TIP3    H147714   2.438   4.991  11.080  1.9242  0.4888 -0.7232
 8741TIP3    H247715   2.503   5.126  11.098 -1.5724  1.9965  1.7653
 8742TIP3   OH247716   5.133   1.886  12.513 -0.8973 -0.2286 -0.2229
 8742TIP3    H147717   5.204   1.904  12.451  0.4050 -4.0107 -0.1004
 8742TIP3    H247718   5.064   1.845  12.459 -1.4276  0.0326  0.2425
 8743TIP3   OH247719   1.014   3.846   5.865  0.1524 -0.0185 -0.0102
 8743TIP3    H147720   0.991   3.866   5.774  0.4304  2.5717  0.3978
 8743TIP3    H247721   0.935   3.866   5.914  1.0000  2.1080  0.6315
 8744TIP3   OH247722   6.109   2.429  16.065 -0.0838  0.0268 -0.6245
 8744TIP3    H147723   6.092   2.505  16.009 -0.0108  0.1548 -0.4749
 8744TIP3    H247724   6.096   2.353  16.008  0.4779  0.1652 -0.9481
 8745TIP3   OH247725   6.598   0.932  12.757  0.3123 -0.0362  0.1900
 8745TIP3    H147726   6.528   0.997  12.762 -0.3226 -0.8016  1.8259
 8745TIP3    H247727   6.618   0.911  12.848  1.9631 -0.6096 -0.2639
 8746TIP3   OH247728   6.302   2.555  16.273  0.1168 -0.0571  0.8204
 8746TIP3    H147729   6.368   2.576  16.207 -0.4587 -1.3416 -0.2346
 8746TIP3    H247730   6.246   2.490  16.229 -1.0022 -0.0328  2.1687
 8747TIP3   OH247731   3.093   3.749  11.958 -0.1415  0.7462 -0.3329
 8747TIP3    H147732   3.139   3.674  11.997  0.3207  0.3893 -1.5091
 8747TIP3    H247733   3.161   3.815  11.947 -0.2571  0.8282 -0.5553
 8748TIP3   OH247734   1.918   1.609   4.423  0.0655  0.4699  0.0859
 8748TIP3    H147735   1.963   1.581   4.502 -0.2852  2.3174  0.9811
 8748TIP3    H247736   1.851   1.542   4.409  1.6439 -1.1748 -0.0668
 8749TIP3   OH247737   1.326   3.157   4.398  0.0261 -0.0663  0.4452
 8749TIP3    H147738   1.296   3.180   4.486 -1.1914 -0.1852  0.0800
 8749TIP3    H247739   1.270   3.084   4.372  0.1799  0.1545 -0.5455
 8750TIP3   OH247740   3.529   6.431   4.369 -0.2148  0.5019 -0.4102
 8750TIP3    H147741   3.530   6.348   4.321  2.3542  0.9697 -1.3035
 8750TIP3    H247742   3.617   6.439   4.405 -0.4987  2.7140 -0.0796
 8751TIP3   OH247743   2.567   2.795  16.089  0.4603  0.0440 -0.1317
 8751TIP3    H147744   2.582   2.781  16.182 -0.3240 -0.0087 -0.0054
 8751TIP3    H247745   2.622   2.870  16.066  2.7247 -1.5821 -0.2372
 8752TIP3   OH247746   0.282   1.748  15.364 -0.4289  0.0545 -0.4371
 8752TIP3    H147747   0.228   1.778  15.292 -0.2392  0.9778 -0.2042
 8752TIP3    H247748   0.343   1.820  15.380  1.2846 -1.1830 -1.0988
 8753TIP3   OH247749   1.116   2.372  16.773 -0.2388  0.0717 -0.0912
 8753TIP3    H147750   1.071   2.301  16.819 -2.0539  0.3358 -1.3220
 8753TIP3    H247751   1.061   2.448  16.788 -0.7997  0.2083 -2.4295
 8754TIP3   OH247752   2.125   3.913  13.634  0.1211 -0.2232 -0.4336
 8754TIP3    H147753   2.063   3.895  13.564  0.4579 -0.0090 -0.7874
 8754TIP3    H247754   2.070   3.930  13.711 -0.2667  0.2236 -0.8028
 8755TIP3   OH247755   0.670   5.597   1.376  0.3612  0.0218 -0.0202
 8755TIP3    H147756   0.761   5.577   1.400  0.6239 -0.0261 -1.0302
 8755TIP3    H247757   0.661   5.564   1.287 -1.2433 -1.7745  0.7282
 8756TIP3   OH247758   3.173   2.173   2.992 -0.3436  0.1278  0.3520
 8756TIP3    H147759   3.164   2.225   3.072  1.0105 -0.4542  0.9127
 8756TIP3    H247760   3.129   2.091   3.011  1.3395 -0.6355  1.1217
 8757TIP3   OH247761   3.032   6.151  10.719  0.6558 -0.2360 -0.3621
 8757TIP3    H147762   3.035   6.087  10.648 -0.9579  0.9586 -1.5843
 8757TIP3    H247763   3.093   6.219  10.693  2.0327 -0.9908  0.7236
 8758TIP3   OH247764   4.617   3.240   6.570  0.2011  0.1509 -0.4796
 8758TIP3    H147765   4.637   3.228   6.477  1.1617  1.0381 -0.4049
 8758TIP3    H247766   4.560   3.317   6.574 -0.0670 -0.0522 -0.3555
 8759TIP3   OH247767   5.790   4.173   2.426  0.1986  0.4230 -0.2029
 8759TIP3    H147768   5.841   4.193   2.505 -1.4257  1.6382  0.6123
 8759TIP3    H247769   5.730   4.104   2.455 -0.4898  0.9636 -0.3175
 8760TIP3   OH247770   6.780   2.356  12.681  0.9406 -0.5690 -0.1361
 8760TIP3    H147771   6.733   2.280  12.717  3.4753 -0.7493  3.3404
 8760TIP3    H247772   6.869   2.323  12.666  1.0043  0.6516 -3.0333
 8761TIP3   OH247773   4.693   6.129   3.282 -0.1140 -0.0048 -0.2947
 8761TIP3    H147774   4.655   6.208   3.244  0.4465  0.2148 -0.4002
 8761TIP3    H247775   4.690   6.064   3.212 -0.8138 -0.1658 -0.1303
 8762TIP3   OH247776   1.961   1.639   3.254 -0.2003  0.0449  0.2297
 8762TIP3    H147777   1.880   1.658   3.302 -0.2974  0.3481 -0.0530
 8762TIP3    H247778   1.974   1.544   3.265 -0.4830  0.0301  0.4444
 8763TIP3   OH247779   5.127   0.403  16.242 -0.2918  0.8278  0.1050
 8763TIP3    H147780   5.095   0.438  16.159  0.3369 -0.4246 -0.7002
 8763TIP3    H247781   5.170   0.477  16.284  1.6524  0.9246 -1.8691
 8764TIP3   OH247782   0.448   1.446  16.284 -0.3099 -0.2745  0.4600
 8764TIP3    H147783   0.453   1.452  16.379 -2.3266  1.2089  0.5461
 8764TIP3    H247784   0.418   1.356  16.267  1.0718 -0.8863  1.1272
 8765TIP3   OH247785   2.008   4.600  13.657 -0.2378  0.3707  0.5545
 8765TIP3    H147786   2.043   4.547  13.729  1.9326  0.9528 -0.0106
 8765TIP3    H247787   2.052   4.566  13.579 -1.9085  0.3197 -0.4133
 8766TIP3   OH247788   1.277   5.323  15.156 -0.3937  0.0951 -0.1343
 8766TIP3    H147789   1.318   5.304  15.240  1.5161 -1.7511 -1.3859
 8766TIP3    H247790   1.278   5.239  15.110 -0.3061  1.2954 -2.4533
 8767TIP3   OH247791   2.031   6.114   4.776  0.5586  0.9181  0.2707
 8767TIP3    H147792   2.082   6.054   4.722  1.1074  1.2980  0.3559
 8767TIP3    H247793   2.023   6.193   4.722 -1.8818  0.0975 -0.6786
 8768TIP3   OH247794   3.063   0.047  14.239 -0.1159 -0.3091  0.1497
 8768TIP3    H147795   3.029   0.012  14.321  1.0758 -0.2614  0.6928
 8768TIP3    H247796   3.104  -0.028  14.196  0.4344 -0.0740  0.2453
 8769TIP3   OH247797   0.930   1.860  13.524 -0.0620 -0.4481  0.2052
 8769TIP3    H147798   0.871   1.874  13.450 -0.7802  2.0202  1.1308
 8769TIP3    H247799   1.015   1.843  13.484 -0.6670 -0.3040 -1.1786
 8770TIP3   OH247800   3.843   3.199   6.241  0.7013  0.3591  0.1897
 8770TIP3    H147801   3.792   3.155   6.173  1.9746 -0.2408 -0.4279
 8770TIP3    H247802   3.780   3.221   6.309 -0.4889  0.3291 -0.8686
 8771TIP3   OH247803   5.289   1.448  10.698  0.5453 -0.4635  0.4202
 8771TIP3    H147804   5.239   1.400  10.764  0.9324 -2.8913 -0.9537
 8771TIP3    H247805   5.330   1.380  10.644  1.8789  1.4328 -1.1037
 8772TIP3   OH247806   2.533   1.688  15.671  0.3385  0.0767  0.0902
 8772TIP3    H147807   2.549   1.781  15.655  1.4718 -0.0888  0.2006
 8772TIP3    H247808   2.536   1.648  15.584 -0.8312  0.2304 -0.0332
 8773TIP3   OH247809   0.875   1.711   2.467 -0.2102  0.4551 -0.0792
 8773TIP3    H147810   0.858   1.624   2.429 -0.0398 -0.2338  1.3841
 8773TIP3    H247811   0.882   1.696   2.561  1.2699  1.8407  0.0782
 8774TIP3   OH247812   4.925   6.301   3.317 -0.0969  0.0138  0.2795
 8774TIP3    H147813   4.967   6.277   3.235 -0.7761 -0.6288  0.1139
 8774TIP3    H247814   4.874   6.224   3.342  0.3619  0.0740  1.4784
 8775TIP3   OH247815   5.193   2.523   3.041 -0.1637  0.0730  0.3132
 8775TIP3    H147816   5.201   2.580   2.964 -2.0248  0.8827  0.6619
 8775TIP3    H247817   5.123   2.462   3.018  1.6188 -2.0335  0.0430
 8776TIP3   OH247818   2.163   4.756   5.687  0.0623  0.1364 -0.0404
 8776TIP3    H147819   2.132   4.728   5.773 -0.2638  1.3434  0.2569
 8776TIP3    H247820   2.229   4.691   5.662  0.2135 -0.1840  1.1573
 8777TIP3   OH247821   6.468   2.790   1.298 -0.4661  0.4543 -0.4024
 8777TIP3    H147822   6.444   2.732   1.370 -0.2788  1.3047  0.3796
 8777TIP3    H247823   6.487   2.732   1.225  1.0810 -0.5804  0.7399
 8778TIP3   OH247824   0.112   2.033  15.720 -0.3053 -0.0184 -0.7658
 8778TIP3    H147825   0.042   2.094  15.745 -0.3037 -0.3142 -0.0097
 8778TIP3    H247826   0.192   2.085  15.726 -0.3215 -0.0416 -0.2866
 8779TIP3   OH247827   0.758   3.585   3.215  0.0509  0.0520  0.2617
 8779TIP3    H147828   0.699   3.567   3.289  0.2065 -0.1366  0.3413
 8779TIP3    H247829   0.807   3.662   3.242 -0.1983  0.2430  0.1726
 8780TIP3   OH247830   0.806   4.132  12.445 -0.1917 -0.4759 -0.4019
 8780TIP3    H147831   0.778   4.074  12.374 -0.5090 -1.5947  0.6077
 8780TIP3    H247832   0.858   4.075  12.503 -0.4587  0.2646  0.5839
 8781TIP3   OH247833   1.026   3.316  11.251  0.0219  0.2490  0.2897
 8781TIP3    H147834   1.066   3.330  11.337 -1.6385  0.6603  1.0349
 8781TIP3    H247835   0.963   3.245  11.266 -0.5349  0.5700 -0.5121
 8782TIP3   OH247836   1.245   1.362  10.591 -0.2334  0.7886 -0.0029
 8782TIP3    H147837   1.341   1.366  10.586 -0.2644  1.4389 -0.0909
 8782TIP3    H247838   1.217   1.353  10.500 -0.2158 -0.6054  0.1013
 8783TIP3   OH247839   6.089   6.649  13.776  0.5025 -0.1940 -0.3062
 8783TIP3    H147840   6.038   6.659  13.695 -1.1932  1.0210  0.8343
 8783TIP3    H247841   6.030   6.602  13.835  0.7334  1.0513  0.9822
 8784TIP3   OH247842   1.909   2.886   3.942  0.6113  0.0037  0.0450
 8784TIP3    H147843   1.848   2.924   4.005  0.5100  1.9718 -1.1424
 8784TIP3    H247844   1.892   2.792   3.946 -0.5532  0.2363  1.7150
 8785TIP3   OH247845   4.026   3.129   4.123  0.2520 -0.5852 -0.2199
 8785TIP3    H147846   4.015   3.048   4.173  2.8728 -1.1033 -0.3089
 8785TIP3    H247847   4.116   3.157   4.142 -0.0046  1.3753 -1.5467
 8786TIP3   OH247848   2.107   6.308  11.914  0.7275  0.0496  0.3883
 8786TIP3    H147849   2.074   6.220  11.932  0.7271  0.0565  0.4227
 8786TIP3    H247850   2.031   6.354  11.876  1.2366 -0.4901 -1.3490
 8787TIP3   OH247851   1.898   1.252  15.072 -0.4873  0.0876 -0.4517
 8787TIP3    H147852   1.852   1.187  15.125 -1.3398  1.0917  0.0620
 8787TIP3    H247853   1.925   1.203  14.994  2.6716 -1.9941  1.6887
 8788TIP3   OH247854   5.913   0.269  11.749 -0.2143 -0.3315  0.0132
 8788TIP3    H147855   5.935   0.326  11.675 -0.5929 -0.5643 -0.2803
 8788TIP3    H247856   5.945   0.183  11.723  0.3561 -0.2586  0.4566
 8789TIP3   OH247857   1.401   1.367   5.464  0.2153 -0.1755 -0.1335
 8789TIP3    H147858   1.394   1.460   5.445  0.3541 -0.4929 -1.9220
 8789TIP3    H247859   1.310   1.336   5.466  0.2171 -0.2762 -1.1513
 8790TIP3   OH247860   0.869   4.522   4.790 -0.0213 -0.2591  0.3879
 8790TIP3    H147861   0.810   4.447   4.793  0.5072 -0.7688 -0.9729
 8790TIP3    H247862   0.818   4.594   4.826 -1.4343 -0.7297 -0.5716
 8791TIP3   OH247863   2.947   1.746  14.506  0.0336 -0.3484  0.1092
 8791TIP3    H147864   2.930   1.679  14.440 -3.3410  0.4494 -0.0286
 8791TIP3    H247865   2.979   1.697  14.582 -2.9763 -2.3710  0.2684
 8792TIP3   OH247866   5.521   3.642   2.438 -0.0959 -0.5155  0.0137
 8792TIP3    H147867   5.581   3.593   2.495  0.5911 -1.5297 -1.5221
 8792TIP3    H247868   5.578   3.682   2.372 -0.9454  0.0267 -0.4120
 8793TIP3   OH247869   2.551   0.713   2.866  0.5252 -0.1875 -0.5683
 8793TIP3    H147870   2.605   0.784   2.832  0.8665 -0.2417 -0.1493
 8793TIP3    H247871   2.609   0.637   2.867 -0.2403 -0.8616 -2.4115
 8794TIP3   OH247872   1.580   2.987  12.780 -0.0840  0.5690  0.3261
 8794TIP3    H147873   1.597   2.935  12.701  0.6454  2.7075 -1.0154
 8794TIP3    H247874   1.658   2.976  12.834  1.7989  3.0388 -1.6315
 8795TIP3   OH247875   0.797   5.991  14.332 -0.4248  0.1969 -0.3299
 8795TIP3    H147876   0.724   5.965  14.389  0.0662 -0.7366 -0.1101
 8795TIP3    H247877   0.875   5.967  14.382  0.0122 -0.2327 -1.2123
 8796TIP3   OH247878   2.308   0.315  16.818 -0.1205 -0.0517  0.1686
 8796TIP3    H147879   2.268   0.328  16.904 -0.5843 -0.6606  0.0569
 8796TIP3    H247880   2.358   0.395  16.802 -0.9225  0.5390  0.5277
 8797TIP3   OH247881   0.605   2.236  16.881  0.2090  0.2786 -0.2131
 8797TIP3    H147882   0.598   2.170  16.950 -0.9969  1.4845  0.8977
 8797TIP3    H247883   0.679   2.291  16.908 -0.1223  0.6184  0.0153
 8798TIP3   OH247884   5.646   0.808  12.034 -0.2149  0.8827 -0.4904
 8798TIP3    H147885   5.624   0.894  12.000 -0.6325  0.6016 -0.9532
 8798TIP3    H247886   5.716   0.776  11.977 -1.8569 -0.1633 -2.0265
 8799TIP3   OH247887   4.118   5.129   6.870  0.1710  0.2172  0.3032
 8799TIP3    H147888   4.131   5.198   6.934 -1.3993  0.5741  0.2787
 8799TIP3    H247889   4.163   5.160   6.792 -0.5436  1.2593  0.2789
 8800TIP3   OH247890   1.998   0.485  12.401  0.4448 -0.5409 -0.4523
 8800TIP3    H147891   1.930   0.423  12.429  0.4579 -0.7178 -0.8073
 8800TIP3    H247892   1.949   0.562  12.371  0.3704 -0.8785 -1.2271
 8801TIP3   OH247893   1.839   6.454  14.527  0.3363  0.0156  0.3772
 8801TIP3    H147894   1.804   6.492  14.447  1.3054  0.9189  0.3612
 8801TIP3    H247895   1.925   6.421  14.503  1.1196  1.3017  1.2644
 8802TIP3   OH247896   3.545   2.299   0.084  0.3222  0.2731  0.3661
 8802TIP3    H147897   3.469   2.355   0.066 -0.5827 -0.5097  1.5514
 8802TIP3    H247898   3.577   2.272  -0.002  0.3847  2.0594 -0.2163
 8803TIP3   OH247899   4.222   6.074   1.879 -0.4456  0.2281 -0.1466
 8803TIP3    H147900   4.132   6.071   1.849  0.2982  1.0985 -2.7375
 8803TIP3    H247901   4.236   6.164   1.908 -0.5292 -0.0561  0.8430
 8804TIP3   OH247902   2.592   0.462  14.315  0.0280 -0.1504 -0.1629
 8804TIP3    H147903   2.562   0.373  14.298 -0.1092 -0.2420  0.5160
 8804TIP3    H247904   2.665   0.452  14.375  0.4269  0.1618 -0.5876
 8805TIP3   OH247905   1.488   4.306  17.145  0.1252 -0.7202  0.1233
 8805TIP3    H147906   1.412   4.249  17.138  0.1002 -0.6154 -0.5042
 8805TIP3    H247907   1.563   4.248  17.130  0.0481 -0.3977 -1.7930
 8806TIP3   OH247908   1.692   4.481   2.269  0.3974  0.1962 -0.5360
 8806TIP3    H147909   1.758   4.419   2.239  0.4196 -0.2757  0.4665
 8806TIP3    H247910   1.720   4.507   2.357  0.2493  1.4395 -0.8266
 8807TIP3   OH247911   0.056   6.348  13.566 -0.2495 -0.1749 -0.7518
 8807TIP3    H147912   0.044   6.389  13.480  1.4654  1.5443 -0.2321
 8807TIP3    H247913   0.130   6.288  13.553  0.0279  0.1071 -0.4916
 8808TIP3   OH247914   6.414   0.640  13.167 -0.1499 -0.3211 -0.7454
 8808TIP3    H147915   6.396   0.557  13.212 -1.2393 -0.4749 -1.4131
 8808TIP3    H247916   6.414   0.616  13.074  3.0921 -0.2143 -0.8731
 8809TIP3   OH247917   1.897   4.077  14.125 -0.0864 -0.3829 -0.4842
 8809TIP3    H147918   1.978   4.119  14.155 -0.6502  1.0633 -0.8874
 8809TIP3    H247919   1.905   4.077  14.029 -1.2093  1.2252 -0.6217
 8810TIP3   OH247920   0.377   3.152   4.643 -0.0115 -0.0604  0.5041
 8810TIP3    H147921   0.288   3.118   4.632  0.5531 -1.8322  1.0499
 8810TIP3    H247922   0.431   3.074   4.657  1.9365  0.8066 -1.6229
 8811TIP3   OH247923   6.120   2.869   6.229  0.1066 -0.5509 -0.1679
 8811TIP3    H147924   6.159   2.810   6.164  0.4312 -1.3037  0.6870
 8811TIP3    H247925   6.066   2.811   6.283 -1.1252  0.2606 -0.4916
 8812TIP3   OH247926   3.327   1.046  14.922  0.2360  0.0084  0.3954
 8812TIP3    H147927   3.262   1.096  14.873  0.7799 -0.3172 -0.6745
 8812TIP3    H247928   3.275   0.991  14.981 -0.5374 -1.0519 -1.2076
 8813TIP3   OH247929   4.587   0.772  16.305 -0.5426  0.3180  0.2347
 8813TIP3    H147930   4.555   0.770  16.215 -0.5816 -2.8156  0.2153
 8813TIP3    H247931   4.508   0.774  16.359 -0.5468  0.7192  0.2192
 8814TIP3   OH247932   1.071   5.794   6.822 -0.3430  0.2499  0.4992
 8814TIP3    H147933   1.098   5.834   6.739  0.7880 -2.0831 -0.3609
 8814TIP3    H247934   0.999   5.849   6.853  2.1852  3.9906  0.4292
 8815TIP3   OH247935   0.217   4.804   5.095 -0.2355 -0.3823  0.1097
 8815TIP3    H147936   0.254   4.871   5.038 -1.0608  0.1100  0.1336
 8815TIP3    H247937   0.125   4.798   5.068 -0.4666 -0.6274  0.9369
 8816TIP3   OH247938   6.138   1.458  11.266 -0.0573 -0.1186  0.4353
 8816TIP3    H147939   6.109   1.381  11.315  2.6258 -1.2172  0.4534
 8816TIP3    H247940   6.205   1.497  11.321  0.9081  0.3381 -1.0132
 8817TIP3   OH247941   2.862   2.112  12.856 -0.0093 -0.5414 -0.0578
 8817TIP3    H147942   2.801   2.088  12.786 -0.2157 -0.5300  0.1161
 8817TIP3    H247943   2.888   2.202  12.834  0.8491 -0.9484 -0.7681
 8818TIP3   OH247944   1.608   3.978  16.940 -0.3341  0.2347 -0.1865
 8818TIP3    H147945   1.656   4.059  16.921  2.4130 -1.3476 -0.6058
 8818TIP3    H247946   1.630   3.958  17.031  1.6580 -1.5353 -0.9527
 8819TIP3   OH247947   1.197   0.309  11.595  0.2468  0.2449  0.4727
 8819TIP3    H147948   1.271   0.365  11.571 -1.1458  1.6777 -0.6997
 8819TIP3    H247949   1.229   0.220  11.583  2.2799  0.7661  1.5829
 8820TIP3   OH247950   6.087   4.831  14.222 -0.4751  0.1054 -0.0092
 8820TIP3    H147951   6.028   4.756  14.223 -0.6442  0.2120 -1.0765
 8820TIP3    H247952   6.141   4.819  14.145  1.5117 -0.4146  1.3790
 8821TIP3   OH247953   4.415   1.823   3.687  0.1274 -0.4844  0.3902
 8821TIP3    H147954   4.410   1.919   3.684 -0.4488 -0.4844  1.1875
 8821TIP3    H247955   4.329   1.794   3.656  0.3161 -0.7436  0.1122
 8822TIP3   OH247956   4.853   4.612  11.808  0.2993  0.0044 -0.0493
 8822TIP3    H147957   4.793   4.542  11.782  1.0935 -1.5956  2.0918
 8822TIP3    H247958   4.796   4.682  11.839 -0.4844 -0.7409  0.2272
 8823TIP3   OH247959   1.400   0.502   1.569  0.5268 -0.0847  0.0248
 8823TIP3    H147960   1.350   0.481   1.648  0.0361  1.4784  0.1673
 8823TIP3    H247961   1.490   0.514   1.600  0.3935  0.2203  0.2958
 8824TIP3   OH247962   0.459   4.025  12.529  0.7692 -1.1012  0.1836
 8824TIP3    H147963   0.465   4.062  12.617  1.0441 -1.1756  0.1964
 8824TIP3    H247964   0.504   3.941  12.536 -0.6371 -1.8770  0.3969
 8825TIP3   OH247965   6.113   3.220  11.501 -0.4990 -0.2856  0.1139
 8825TIP3    H147966   6.198   3.207  11.542 -0.1427  1.6832  0.1392
 8825TIP3    H247967   6.120   3.176  11.416  0.0277 -1.3287  0.6818
 8826TIP3   OH247968   3.777   3.118   1.286  0.4371 -0.7011  0.5687
 8826TIP3    H147969   3.780   3.079   1.373 -1.7022  0.8826  1.4689
 8826TIP3    H247970   3.701   3.177   1.289 -0.1111 -1.0408 -2.5687
 8827TIP3   OH247971   2.411   0.262  15.954 -0.3752 -0.1512  0.0312
 8827TIP3    H147972   2.377   0.234  15.870 -1.8661 -0.8720  0.8377
 8827TIP3    H247973   2.399   0.357  15.955 -2.3869 -0.3566  0.2441
 8828TIP3   OH247974   4.457   3.187   5.849  0.4260 -0.2847 -0.1680
 8828TIP3    H147975   4.458   3.171   5.943 -1.3130  0.1685 -0.0454
 8828TIP3    H247976   4.374   3.233   5.833 -0.9823 -3.2888 -2.4108
 8829TIP3   OH247977   3.685   3.329   1.908 -0.0147  0.3261  0.1994
 8829TIP3    H147978   3.747   3.391   1.946 -1.5427  1.3681  1.0950
 8829TIP3    H247979   3.680   3.353   1.815  1.8597 -0.6299 -0.2027
 8830TIP3   OH247980   1.942   6.162  16.367  0.0832 -0.2363 -0.3945
 8830TIP3    H147981   1.979   6.246  16.395 -0.1970 -0.0305 -0.6274
 8830TIP3    H247982   2.001   6.096  16.402  1.2632  0.1194 -1.6315
 8831TIP3   OH247983   5.999   0.798   0.731  0.2679  0.1321  0.2404
 8831TIP3    H147984   5.956   0.829   0.811  0.8664 -1.1511  1.1048
 8831TIP3    H247985   6.020   0.706   0.750  1.9218  0.2724 -0.7771
 8832TIP3   OH247986   1.580   0.346  15.808 -0.1857 -0.4179 -0.1669
 8832TIP3    H147987   1.618   0.349  15.896  0.5478 -1.0429 -0.4482
 8832TIP3    H247988   1.631   0.279  15.762 -0.7938 -0.3530 -0.9608
 8833TIP3   OH247989   6.528   5.818  14.738  0.6856  0.2082  0.4448
 8833TIP3    H147990   6.584   5.837  14.813 -0.7766  0.5878  1.4863
 8833TIP3    H247991   6.519   5.723  14.738  1.8483  0.0683 -0.1654
 8834TIP3   OH247992   5.624   2.065  16.421  0.5489  0.3687  0.4737
 8834TIP3    H147993   5.706   2.029  16.389  0.1765 -1.3602  1.3647
 8834TIP3    H247994   5.626   2.157  16.393  1.4783 -0.3276 -2.0341
 8835TIP3   OH247995   2.918   3.749   6.166 -0.2986  0.3183 -0.0115
 8835TIP3    H147996   2.949   3.731   6.255  0.0945  1.3068  0.0539
 8835TIP3    H247997   2.824   3.766   6.177 -0.0722  1.4140  0.3648
 8836TIP3   OH247998   3.388   2.469  12.573  0.3864 -0.5155  0.5661
 8836TIP3    H147999   3.379   2.420  12.655 -0.2724 -0.9006  0.2713
 8836TIP3    H248000   3.417   2.556  12.600 -0.5095 -0.4214  1.2712
 8837TIP3   OH248001   2.558   0.114  13.086  0.2635 -0.1483  0.5428
 8837TIP3    H148002   2.486   0.095  13.146  0.2383  1.0155  0.9008
 8837TIP3    H248003   2.636   0.113  13.141  0.2738  0.6393  0.5494
 8838TIP3   OH248004   6.825   2.257  15.493  0.8551  0.0052  0.2915
 8838TIP3    H148005   6.844   2.268  15.586 -1.4400  0.0995  0.7994
 8838TIP3    H248006   6.733   2.231  15.489  0.2009  2.2117 -2.0420
 8839TIP3   OH248007   4.016   4.813   0.297 -0.9765  0.2925 -0.1333
 8839TIP3    H148008   3.985   4.823   0.387 -3.4466 -2.9355 -0.4193
 8839TIP3    H248009   4.093   4.757   0.304 -0.4666  0.9957  0.0048
 8840TIP3   OH248010   2.678   6.577  11.976  0.1971  0.0216  0.0219
 8840TIP3    H148011   2.728   6.573  11.895 -1.7236  0.1227 -1.2236
 8840TIP3    H248012   2.729   6.636  12.033  0.0958  2.4591 -2.2202
 8841TIP3   OH248013   6.717   6.449   5.217  0.5474  0.4167  0.6156
 8841TIP3    H148014   6.748   6.397   5.143  0.3435  0.1405  0.7235
 8841TIP3    H248015   6.768   6.418   5.292  1.0621  0.9937  0.5176
 8842TIP3   OH248016   2.433   0.694   0.597  0.3591 -0.8625  0.1851
 8842TIP3    H148017   2.429   0.615   0.542  0.0914 -1.9838  1.7476
 8842TIP3    H248018   2.366   0.679   0.664  1.1465  0.1543  1.2229
 8843TIP3   OH248019   0.588   6.335   2.825  0.1039  0.0301  0.2847
 8843TIP3    H148020   0.636   6.413   2.797 -1.0634  0.7869  0.3100
 8843TIP3    H248021   0.545   6.304   2.746 -0.3558  0.0873  0.5099
 8844TIP3   OH248022   1.801   1.250   1.474  0.9648 -0.5408  0.1972
 8844TIP3    H148023   1.750   1.198   1.412 -0.2728 -0.3805  1.0553
 8844TIP3    H248024   1.865   1.189   1.510  0.3226 -1.1562  0.3025
 8845TIP3   OH248025   1.745   1.809  12.297  0.2081 -0.3089 -0.2490
 8845TIP3    H148026   1.756   1.749  12.223 -1.4209 -3.3736  1.7540
 8845TIP3    H248027   1.780   1.760  12.372 -0.3520  1.6826  1.3830
 8846TIP3   OH248028   5.614   5.718   1.751  0.6209 -0.4811 -0.0823
 8846TIP3    H148029   5.555   5.651   1.716  1.6130 -0.6721 -1.4864
 8846TIP3    H248030   5.570   5.801   1.735 -0.8585 -0.7520  2.1331
 8847TIP3   OH248031   4.069   0.499  14.191 -0.4085  0.0676 -0.0378
 8847TIP3    H148032   3.985   0.476  14.231  0.1876 -0.3185  1.0451
 8847TIP3    H248033   4.129   0.506  14.265  0.8030 -0.8597 -0.8913
 8848TIP3   OH248034   4.107   2.499   4.025  0.4429 -0.0704 -0.5157
 8848TIP3    H148035   4.137   2.590   4.027  2.9543 -0.8283 -0.5832
 8848TIP3    H248036   4.101   2.474   4.117 -1.5306  0.4820 -0.4413
 8849TIP3   OH248037   0.135   0.385   3.768  0.2755  0.0864 -0.0718
 8849TIP3    H148038   0.091   0.465   3.799  1.5651  1.2205 -1.0357
 8849TIP3    H248039   0.168   0.408   3.681  0.4275 -1.6202 -0.5012
 8850TIP3   OH248040   3.459   2.356   2.199 -0.0726  0.0890 -0.2082
 8850TIP3    H148041   3.543   2.316   2.175  0.3924  0.4978  0.7137
 8850TIP3    H248042   3.454   2.435   2.145  0.1442  0.0843 -0.2358
 8851TIP3   OH248043   5.307   6.764   3.767  0.2626 -0.5855 -0.4167
 8851TIP3    H148044   5.216   6.742   3.786  0.5640 -1.7789 -0.2287
 8851TIP3    H248045   5.357   6.715   3.832  0.9728  1.7005  0.8615
 8852TIP3   OH248046   1.421   0.686  15.859  0.2966 -0.0487  0.0177
 8852TIP3    H148047   1.402   0.632  15.936  0.5768  1.1842  0.9723
 8852TIP3    H248048   1.366   0.763  15.869  0.6701  0.3298 -0.7951
 8853TIP3   OH248049   3.583   4.052   4.922 -0.6308 -0.4256  0.6694
 8853TIP3    H148050   3.633   3.971   4.928  0.4057  0.2539  1.3730
 8853TIP3    H248051   3.581   4.071   4.828  1.3676  0.0815  0.6790
 8854TIP3   OH248052   1.439   4.042  16.609  0.0593 -0.1331 -0.3123
 8854TIP3    H148053   1.427   3.947  16.610 -0.4380 -0.0723 -0.0932
 8854TIP3    H248054   1.530   4.055  16.583 -0.1576 -0.6359 -1.3612
 8855TIP3   OH248055   2.497   5.548  16.252  0.0865 -0.4848 -0.0677
 8855TIP3    H148056   2.436   5.616  16.223  0.7978  0.4580  0.5912
 8855TIP3    H248057   2.442   5.483  16.295 -1.0131 -1.8275 -3.1512
 8856TIP3   OH248058   5.111   2.682   1.652  0.1834 -0.4341 -0.1603
 8856TIP3    H148059   5.018   2.682   1.628 -0.1807 -0.4828  1.1922
 8856TIP3    H248060   5.153   2.733   1.582 -1.2893  2.1121  0.6640
 8857TIP3   OH248061   0.532   3.566  15.768  0.5777 -0.2382  0.2144
 8857TIP3    H148062   0.614   3.545  15.813  0.4084  0.7695  1.0333
 8857TIP3    H248063   0.471   3.589  15.839 -0.2968 -0.5699 -0.4092
 8858TIP3   OH248064   3.714   0.201  16.067  0.3144  0.1792  0.4555
 8858TIP3    H148065   3.794   0.252  16.082  2.9233 -2.9153 -1.7596
 8858TIP3    H248066   3.715   0.134  16.135 -1.3326  0.9803  1.3409
 8859TIP3   OH248067   3.997   4.996   1.674 -0.4018 -0.9028  0.1999
 8859TIP3    H148068   4.047   4.986   1.755 -2.3503 -1.4625  1.3934
 8859TIP3    H248069   3.977   4.906   1.647  0.0682 -0.7177 -0.8235
 8860TIP3   OH248070   6.695   4.413   3.940  0.4510 -0.0587 -0.1949
 8860TIP3    H148071   6.629   4.391   4.006  0.3129 -1.5618 -0.8074
 8860TIP3    H248072   6.652   4.477   3.884 -0.0703 -0.1442  0.0950
 8861TIP3   OH248073   0.494   2.226  12.941 -0.4375 -0.0360  0.4791
 8861TIP3    H148074   0.506   2.186  13.028 -0.4116 -0.9256  0.0817
 8861TIP3    H248075   0.583   2.243  12.910 -0.4647  1.4969  1.1475
 8862TIP3   OH248076   4.257   3.779   3.513  0.5125  0.1624 -0.0840
 8862TIP3    H148077   4.195   3.826   3.569 -0.6999 -1.8416  0.3558
 8862TIP3    H248078   4.343   3.810   3.542 -0.2030  2.5530 -0.2839
 8863TIP3   OH248079   4.401   3.334   1.979 -0.0386  0.6852  0.9890
 8863TIP3    H148080   4.419   3.374   1.894  0.4455  1.9252  1.6508
 8863TIP3    H248081   4.415   3.240   1.965 -0.0657  0.8586 -0.3174
 8864TIP3   OH248082   3.564   1.138  15.293 -0.1927  0.6355 -0.3309
 8864TIP3    H148083   3.553   1.159  15.200 -1.4469 -0.8232 -0.5504
 8864TIP3    H248084   3.594   1.047  15.294 -2.0661 -0.0324  0.6953
 8865TIP3   OH248085   5.101   0.336   1.557 -1.1335  0.4431  0.4234
 8865TIP3    H148086   5.111   0.409   1.619 -2.0245 -0.5406  1.7891
 8865TIP3    H248087   5.105   0.258   1.612 -1.4903 -0.4890 -0.8401
 8866TIP3   OH248088   2.950   3.692   1.922  0.1020  0.2232  0.0452
 8866TIP3    H148089   2.924   3.757   1.987  0.6234  0.6673 -0.1786
 8866TIP3    H248090   3.045   3.695   1.922  0.1164 -0.1257 -0.3830
 8867TIP3   OH248091   4.274   2.130   2.756 -0.0540  0.8326  0.5785
 8867TIP3    H148092   4.219   2.053   2.744  2.8686 -1.1261 -2.0395
 8867TIP3    H248093   4.332   2.107   2.829  0.8425  0.4418 -0.2272
 8868TIP3   OH248094   0.566   2.324  13.689 -0.6470  0.4699 -0.4192
 8868TIP3    H148095   0.516   2.243  13.678 -2.1998  1.3860 -0.3764
 8868TIP3    H248096   0.636   2.300  13.750 -0.9148 -0.8889 -0.5995
 8869TIP3   OH248097   4.309   5.257  15.016  0.0429  0.4867  0.5340
 8869TIP3    H148098   4.251   5.199  15.065 -0.6938  0.1261 -0.7087
 8869TIP3    H248099   4.389   5.206  15.003  0.0509  0.4017  0.9079
 8870TIP3   OH248100   0.220   1.845  14.405  0.1160  0.4699  0.2053
 8870TIP3    H148101   0.129   1.870  14.425 -0.8145 -1.1091 -1.6690
 8870TIP3    H248102   0.243   1.785  14.476 -0.6384  0.2039  0.2431
 8871TIP3   OH248103   4.965   6.325  11.150 -0.4083 -0.2363  0.2655
 8871TIP3    H148104   4.967   6.416  11.180 -1.1310 -0.8763  2.4810
 8871TIP3    H248105   4.872   6.307  11.134 -0.5901 -1.1980  2.1096
 8872TIP3   OH248106   4.485   3.977  14.010 -0.3236  0.7443 -1.0812
 8872TIP3    H148107   4.576   3.989  13.981  0.0936  0.9334  0.2559
 8872TIP3    H248108   4.493   3.941  14.098 -1.5584  1.0597 -0.8301
 8873TIP3   OH248109   0.350   2.172   4.472  0.1150  0.0666  0.0453
 8873TIP3    H148110   0.421   2.128   4.518 -0.0875 -0.1350  0.1687
 8873TIP3    H248111   0.347   2.130   4.386 -0.1376 -0.2268  0.1956
 8874TIP3   OH248112   0.672   4.474  12.015 -0.3060  0.4530  0.1350
 8874TIP3    H148113   0.765   4.465  12.038 -0.8568 -3.4682  1.6428
 8874TIP3    H248114   0.629   4.491  12.099 -1.2412 -1.9907  0.2238
 8875TIP3   OH248115   3.433   0.620   3.865 -0.0420  0.3264  0.0571
 8875TIP3    H148116   3.353   0.666   3.839 -0.6541 -1.1849 -0.8685
 8875TIP3    H248117   3.441   0.548   3.802  3.0430  1.4316 -1.0381
 8876TIP3   OH248118   2.341   6.466   4.599  0.9042  0.1796 -0.1744
 8876TIP3    H148119   2.323   6.372   4.601  0.9296  0.1852  1.4784
 8876TIP3    H248120   2.374   6.486   4.686 -0.2578  1.9433 -0.0781
 8877TIP3   OH248121   6.667   5.358   2.425 -0.4417  0.3323  0.0329
 8877TIP3    H148122   6.628   5.436   2.384 -0.4570  0.6947  0.7145
 8877TIP3    H248123   6.606   5.336   2.495 -1.7151 -1.7562 -1.6115
 8878TIP3   OH248124   0.629   0.545  14.510  0.4401 -0.1663  0.0819
 8878TIP3    H148125   0.544   0.538  14.467  0.7892 -2.0818 -0.3879
 8878TIP3    H248126   0.679   0.605  14.455 -0.1099 -0.2346 -0.5032
 8879TIP3   OH248127   3.579   5.187   4.957  0.0223  0.3637  0.3333
 8879TIP3    H148128   3.499   5.238   4.968  0.6039  1.0260  1.9446
 8879TIP3    H248129   3.551   5.096   4.959 -0.7835  0.5954 -0.1457
 8880TIP3   OH248130   2.989   3.387  11.478 -0.0794 -0.1256 -0.4001
 8880TIP3    H148131   2.953   3.299  11.470 -1.0480  0.0565  1.4861
 8880TIP3    H248132   3.082   3.376  11.457 -0.2614 -1.5060 -0.5893
 8881TIP3   OH248133   4.604   3.598  12.750 -0.2048  0.0262 -0.0755
 8881TIP3    H148134   4.577   3.512  12.718  0.5924 -0.3609  0.2540
 8881TIP3    H248135   4.676   3.579  12.811  0.6435  0.9870 -0.7498
 8882TIP3   OH248136   5.453   4.784  12.865  0.0925 -0.1792 -0.2071
 8882TIP3    H148137   5.541   4.795  12.900 -0.0439 -0.1811  0.1410
 8882TIP3    H248138   5.400   4.849  12.910  0.0968  0.4708 -1.1055
 8883TIP3   OH248139   6.265   6.662  11.137 -0.0948 -0.7057 -0.6186
 8883TIP3    H148140   6.200   6.625  11.197  0.2601  0.5690  0.6135
 8883TIP3    H248141   6.223   6.741  11.103 -0.5241 -1.7031 -2.5750
 8884TIP3   OH248142   0.736   2.210   0.306 -0.5326 -0.2460 -0.4851
 8884TIP3    H148143   0.806   2.185   0.367  1.4590  2.0743 -1.6549
 8884TIP3    H248144   0.682   2.272   0.355 -1.8190 -1.9888  0.3970
 8885TIP3   OH248145   3.883   5.917   4.076 -0.0461  0.0736 -0.3243
 8885TIP3    H148146   3.918   5.990   4.127 -0.4506 -0.5547  0.9027
 8885TIP3    H248147   3.948   5.902   4.008  0.5918  0.8452  0.0982
 8886TIP3   OH248148   3.930   3.029  11.166 -0.4220  0.2313  0.4776
 8886TIP3    H148149   4.001   3.003  11.225  1.4519  1.5681 -1.0425
 8886TIP3    H248150   3.923   2.958  11.103  0.3452  0.5564  0.0107
 8887TIP3   OH248151   6.184   2.641   2.978  0.1889  0.0120  0.5001
 8887TIP3    H148152   6.238   2.620   2.902  1.0388 -0.0957  1.1274
 8887TIP3    H248153   6.146   2.727   2.957  0.4399  0.0000 -0.0236
 8888TIP3   OH248154   0.738   4.084  11.548 -0.1562 -0.5170 -0.2318
 8888TIP3    H148155   0.651   4.048  11.565 -0.0552 -0.4105  0.5483
 8888TIP3    H248156   0.793   4.049  11.619  0.2981 -0.1079 -0.3752
 8889TIP3   OH248157   5.410   6.207  15.276  0.6012 -0.2969 -0.2382
 8889TIP3    H148158   5.331   6.156  15.295  0.4714  0.4001  1.2132
 8889TIP3    H248159   5.379   6.281  15.224  0.2177  0.2082  0.6982
 8890TIP3   OH248160   0.619   5.618  14.605  0.5300  0.3754 -0.2987
 8890TIP3    H148161   0.613   5.544  14.544 -0.8803 -1.5294  1.9812
 8890TIP3    H248162   0.713   5.633  14.614  0.8606 -1.2430 -0.7138
 8891TIP3   OH248163   3.160   3.032  12.610 -0.2056  0.3879 -0.1016
 8891TIP3    H148164   3.119   3.092  12.672 -1.7489 -1.5122  0.7904
 8891TIP3    H248165   3.198   3.090  12.543  0.2962  2.4274  1.8223
 8892TIP3   OH248166   4.923   1.835  11.757  0.9099 -0.4093 -0.1648
 8892TIP3    H148167   4.857   1.893  11.794 -1.2745 -2.4187 -0.6182
 8892TIP3    H248168   4.929   1.763  11.819  1.6601 -0.9286 -0.8172
 8893TIP3   OH248169   1.697   5.913  13.861  0.0965 -0.2029  0.4238
 8893TIP3    H148170   1.647   5.864  13.795  1.2028 -0.2667 -0.3947
 8893TIP3    H248171   1.769   5.854  13.884  0.8836  0.6360  0.1517
 8894TIP3   OH248172   4.675   5.188   0.841  0.0572 -0.3839  0.2179
 8894TIP3    H148173   4.758   5.141   0.853  0.4100 -0.0264 -0.6544
 8894TIP3    H248174   4.669   5.246   0.916  1.6935  1.1281 -0.7345
 8895TIP3   OH248175   1.358   1.479   6.342  0.2185  0.7229  0.0713
 8895TIP3    H148176   1.295   1.543   6.373 -0.3245 -0.0493  0.6115
 8895TIP3    H248177   1.312   1.395   6.347  0.5493  0.4055 -1.6270
 8896TIP3   OH248178   1.476   6.177   1.485 -0.7437  0.0722  0.4011
 8896TIP3    H148179   1.385   6.203   1.469 -1.2171 -1.3330  0.6151
 8896TIP3    H248180   1.474   6.138   1.573 -0.3702 -1.7534 -0.3552
 8897TIP3   OH248181   1.805   5.599  11.795 -0.0398  0.0242  0.5001
 8897TIP3    H148182   1.829   5.510  11.818  4.0806  0.8537  0.2237
 8897TIP3    H248183   1.736   5.623  11.858  0.9172 -2.3387  2.5881
 8898TIP3   OH248184   4.363   0.605   4.946 -0.4440 -0.2129  0.3284
 8898TIP3    H148185   4.361   0.572   4.856 -2.0239  1.6071 -0.3644
 8898TIP3    H248186   4.375   0.699   4.937 -2.3743  0.2535  1.8989
 8899TIP3   OH248187   5.442   2.292  11.076  0.0177 -0.1953 -0.0036
 8899TIP3    H148188   5.443   2.383  11.044  0.3845 -0.5136 -0.9378
 8899TIP3    H248189   5.523   2.285  11.127 -0.4465  0.2465  0.8165
 8900TIP3   OH248190   4.684   3.323   5.084 -0.0364 -0.3260 -0.0611
 8900TIP3    H148191   4.671   3.388   5.153  0.3242 -1.3647  1.0332
 8900TIP3    H248192   4.772   3.289   5.100 -0.3789 -1.3792 -0.3347
 8901TIP3   OH248193   6.765   1.291   5.997  0.1362 -0.5691 -0.5805
 8901TIP3    H148194   6.704   1.304   6.069  0.3040  3.0580 -0.9092
 8901TIP3    H248195   6.845   1.259   6.038 -0.5324 -0.9219  0.4772
 8902TIP3   OH248196   5.274   0.803  15.560  0.2054  0.0566  0.3597
 8902TIP3    H148197   5.182   0.788  15.538 -0.0268  0.6220  0.9310
 8902TIP3    H248198   5.306   0.860  15.490  0.3014 -0.6749 -0.1982
 8903TIP3   OH248199   2.871   2.646   1.179 -0.4085 -0.1215 -0.1391
 8903TIP3    H148200   2.813   2.713   1.141  2.2564  1.7415 -1.2208
 8903TIP3    H248201   2.824   2.564   1.165 -1.3977  0.8793 -3.9986
 8904TIP3   OH248202   2.802   2.031   2.334 -0.0476 -0.0300  0.4311
 8904TIP3    H148203   2.790   2.038   2.239  1.8390  0.6741  0.2123
 8904TIP3    H248204   2.832   2.118   2.361  2.3950 -1.0150  1.1792
 8905TIP3   OH248205   0.836   0.431   2.960 -0.3345  0.2996 -0.1226
 8905TIP3    H148206   0.768   0.375   2.997  0.2258 -0.4749 -0.2479
 8905TIP3    H248207   0.796   0.518   2.956 -0.6891  0.2474  1.5512
 8906TIP3   OH248208   0.495   4.325   1.023  0.2526 -0.1704 -0.0869
 8906TIP3    H148209   0.551   4.340   0.947  0.8450  0.1800  0.4135
 8906TIP3    H248210   0.473   4.232   1.018  1.7617 -0.5649  0.3079
 8907TIP3   OH248211   3.722   0.816  13.016  0.0057  0.1267 -0.6331
 8907TIP3    H148212   3.716   0.813  13.112  0.5458 -1.9114 -0.6016
 8907TIP3    H248213   3.805   0.862  12.999 -0.7600  1.7286 -0.2002
 8908TIP3   OH248214   0.032   2.047  13.343 -0.7580  0.2210  0.3063
 8908TIP3    H148215   0.105   1.997  13.379 -0.3730 -0.4359 -1.2922
 8908TIP3    H248216  -0.045   1.994  13.363 -0.4922 -0.4001 -0.2549
 8909TIP3   OH248217   4.540   5.011  16.602  0.1286 -0.6171 -0.2245
 8909TIP3    H148218   4.499   5.048  16.680  0.2393 -0.7769 -0.0879
 8909TIP3    H248219   4.594   5.082  16.567  3.3419 -1.6615  2.1309
 8910TIP3   OH248220   6.734   1.829   3.440 -0.5397  0.1954  0.2082
 8910TIP3    H148221   6.657   1.863   3.486 -1.4179 -0.6756 -0.5905
 8910TIP3    H248222   6.756   1.748   3.486 -0.2404  0.3142  0.2790
 8911TIP3   OH248223   4.847   2.382   3.717 -0.3134  0.0941 -1.0307
 8911TIP3    H148224   4.860   2.288   3.724 -0.4429  0.1370 -0.0756
 8911TIP3    H248225   4.833   2.397   3.623  0.2041 -0.7606 -1.2602
 8912TIP3   OH248226   4.684   0.649  12.617  0.0589 -0.0240 -0.6288
 8912TIP3    H148227   4.757   0.654  12.555  1.1716  1.1487  0.6912
 8912TIP3    H248228   4.703   0.572  12.671  0.1718  0.1160 -0.4678
 8913TIP3   OH248229   6.805   5.322  16.164  0.5795  0.7449  0.1043
 8913TIP3    H148230   6.766   5.244  16.202  0.2763  1.2155  0.7720
 8913TIP3    H248231   6.830   5.376  16.239 -0.1289  1.7390 -0.3532
 8914TIP3   OH248232   0.441   6.076  12.069  0.4933 -0.1515  0.0949
 8914TIP3    H148233   0.407   6.053  12.156 -0.6821 -0.9303 -0.5591
 8914TIP3    H248234   0.364   6.079  12.013  1.2818  0.0389 -1.0015
 8915TIP3   OH248235   0.110   4.449   4.359 -0.1745 -0.0142  0.2647
 8915TIP3    H148236   0.157   4.376   4.401  1.1709 -0.4044 -1.8119
 8915TIP3    H248237   0.133   4.525   4.412  0.0277 -0.7497  1.2805
 8916TIP3   OH248238   0.003   1.582  10.851  0.1728 -0.0564 -0.1024
 8916TIP3    H148239  -0.003   1.621  10.764  1.3070 -1.9441 -1.0963
 8916TIP3    H248240  -0.088   1.569  10.879 -0.2042  0.1624 -1.1994
 8917TIP3   OH248241   1.069   4.459   4.098  0.5867  0.0749 -0.3623
 8917TIP3    H148242   1.000   4.394   4.094  0.3484  0.3794 -2.4181
 8917TIP3    H248243   1.038   4.531   4.042  1.7139  1.0716  0.2277
 8918TIP3   OH248244   3.493   2.645  15.237  0.1234  0.3226  0.1689
 8918TIP3    H148245   3.413   2.655  15.186 -1.2376 -0.8342  1.9306
 8918TIP3    H248246   3.515   2.733  15.267 -0.5096  0.6359 -0.2782
 8919TIP3   OH248247   0.161   6.728  14.912 -0.0877  0.7942  0.1094
 8919TIP3    H148248   0.183   6.647  14.867  0.9486  1.4459 -0.6063
 8919TIP3    H248249   0.245   6.760  14.947 -0.7160  0.7943  1.6867
 8920TIP3   OH248250   4.639   4.959  14.728  0.1148  0.1973 -0.1731
 8920TIP3    H148251   4.701   4.963  14.801  0.3688  2.5926 -0.4238
 8920TIP3    H248252   4.692   4.980  14.651 -0.8871  2.0639 -0.4207
 8921TIP3   OH248253   0.479   3.437  11.111  0.1214  0.3087 -0.7890
 8921TIP3    H148254   0.504   3.409  11.023  0.9748  0.0998 -0.4905
 8921TIP3    H248255   0.513   3.368  11.168  0.2296  0.8119 -0.2346
 8922TIP3   OH248256   2.147   5.531   0.604 -0.3827 -0.6355 -1.1324
 8922TIP3    H148257   2.053   5.530   0.621 -0.1432  0.3999  0.4666
 8922TIP3    H248258   2.176   5.441   0.619 -0.9479 -0.7149 -0.5002
 8923TIP3   OH248259   6.776   4.907  15.187  0.6699 -0.3626  0.2321
 8923TIP3    H148260   6.692   4.870  15.213  0.4373 -0.9568 -1.2902
 8923TIP3    H248261   6.833   4.894  15.264 -0.5946  0.0606  1.2846
 8924TIP3   OH248262   0.690   5.767   2.878  0.3189 -0.2824 -0.2832
 8924TIP3    H148263   0.784   5.761   2.895  0.2423  0.6994  0.5305
 8924TIP3    H248264   0.653   5.804   2.958 -0.9011 -1.5590 -0.2226
 8925TIP3   OH248265   0.699   0.347   1.701  0.2154  0.1043 -0.7066
 8925TIP3    H148266   0.641   0.422   1.713  0.2330 -0.0536  0.5107
 8925TIP3    H248267   0.659   0.298   1.629 -2.5663 -1.2366  1.5171
 8926TIP3   OH248268   3.385   5.936  15.069  0.3784 -0.6677 -0.0384
 8926TIP3    H148269   3.326   5.905  15.138 -1.0000  0.0016 -0.8564
 8926TIP3    H248270   3.380   6.031  15.073 -0.7765 -0.5853 -1.8234
 8927TIP3   OH248271   4.459   5.669  17.032  0.4519  0.1748  0.2074
 8927TIP3    H148272   4.407   5.700  17.105  2.6815  2.6298  0.9168
 8927TIP3    H248273   4.527   5.735  17.021  2.7592 -2.2342 -1.3334
 8928TIP3   OH248274   6.321   6.593  16.069 -0.3419  0.4524  0.0685
 8928TIP3    H148275   6.287   6.619  15.983 -2.0454  0.9382  0.8392
 8928TIP3    H248276   6.404   6.638  16.077  0.1144 -0.0378 -1.5402
 8929TIP3   OH248277   3.702   6.836  14.295 -0.1059  0.2287  0.2458
 8929TIP3    H148278   3.723   6.894  14.222  0.3002 -0.9535 -0.5961
 8929TIP3    H248279   3.607   6.827  14.292 -0.2271  1.2147  0.6825
 8930TIP3   OH248280   2.906   2.905  14.347  0.0842  0.0084  0.4942
 8930TIP3    H148281   2.969   2.930  14.279  0.5484  0.4541  1.0787
 8930TIP3    H248282   2.929   2.816  14.371 -0.5304 -0.4156 -0.4255
 8931TIP3   OH248283   2.786   1.990   3.187  0.3601 -0.2271 -0.4258
 8931TIP3    H148284   2.716   2.026   3.241  1.0180  2.1590 -1.0287
 8931TIP3    H248285   2.819   1.915   3.236 -0.2747  0.7404  1.5703
 8932TIP3   OH248286   5.545   0.411  14.732  0.3399 -0.4659  0.7328
 8932TIP3    H148287   5.616   0.368  14.780  1.6154 -2.1434 -2.3536
 8932TIP3    H248288   5.589   0.481  14.683 -0.4841 -0.2073  0.3474
 8933TIP3   OH248289   3.832   3.650   5.353  0.0929 -0.1189 -0.1093
 8933TIP3    H148290   3.879   3.732   5.367  0.3785  0.0529 -1.8816
 8933TIP3    H248291   3.801   3.655   5.263 -2.5347 -0.6634  0.7018
 8934TIP3   OH248292   3.110   0.745   0.061 -0.5874  0.1095 -0.6775
 8934TIP3    H148293   3.158   0.702  -0.010  0.3773  0.8378 -0.4917
 8934TIP3    H248294   3.028   0.772   0.022 -0.2084  0.1967 -1.4231
 8935TIP3   OH248295   5.708   4.797  11.716 -0.0726  0.5957  0.1438
 8935TIP3    H148296   5.773   4.744  11.762 -0.2955 -0.3224 -0.5596
 8935TIP3    H248297   5.740   4.801  11.626 -0.1550  1.5279  0.1416
 8936TIP3   OH248298   4.294   0.224  12.867  0.2014 -0.1036  0.0756
 8936TIP3    H148299   4.228   0.188  12.927  0.0210 -2.1602 -1.2401
 8936TIP3    H248300   4.337   0.146  12.830  2.0695  1.1577 -0.5322
 8937TIP3   OH248301   5.684   6.151  11.209  0.1257 -0.5866 -0.1234
 8937TIP3    H148302   5.610   6.102  11.173 -0.3799  0.9570 -1.2679
 8937TIP3    H248303   5.759   6.093  11.195 -0.7643 -2.0132  0.6950
 8938TIP3   OH248304   1.058   0.992  12.056  0.3113  0.2243  0.5124
 8938TIP3    H148305   0.987   1.006  11.993 -0.0195 -0.5148  0.7078
 8938TIP3    H248306   1.037   0.908  12.097  0.9480  0.3208  1.0462
 8939TIP3   OH248307   1.562   0.246   6.485 -0.0608 -0.4228 -0.4215
 8939TIP3    H148308   1.597   0.258   6.574  0.7783  0.1817 -0.8172
 8939TIP3    H248309   1.560   0.151   6.473 -1.8917 -0.5956  0.8761
 8940TIP3   OH248310   1.901   2.544  13.551 -0.1200  0.4669  0.2907
 8940TIP3    H148311   1.909   2.609  13.621 -0.0982  0.3149  0.4320
 8940TIP3    H248312   1.908   2.594  13.470 -2.8451  1.0506  0.3362
 8941TIP3   OH248313   6.431   1.940  12.063  0.2906 -0.7260 -0.1954
 8941TIP3    H148314   6.401   1.986  12.142 -0.0016 -0.5706 -0.3961
 8941TIP3    H248315   6.505   1.887  12.093  0.3600 -0.4499  0.1224
 8942TIP3   OH248316   6.074   3.553   6.190  0.2324 -0.0827 -0.3641
 8942TIP3    H148317   6.114   3.487   6.246  0.0050 -1.5336 -1.8170
 8942TIP3    H248318   5.980   3.541   6.204  0.1677 -0.5762 -1.1366
 8943TIP3   OH248319   4.340   2.211   3.261  0.7410 -0.3107  0.2578
 8943TIP3    H148320   4.257   2.259   3.261  1.1271  0.3566  0.3280
 8943TIP3    H248321   4.395   2.256   3.197  0.8882 -1.0492 -0.1530
 8944TIP3   OH248322   3.260   3.559  14.217 -0.3545 -0.3002 -0.9845
 8944TIP3    H148323   3.297   3.478  14.182 -0.0722 -0.6599  0.0938
 8944TIP3    H248324   3.171   3.536  14.242  0.7401 -1.3627  2.6025
 8945TIP3   OH248325   6.592   6.549  12.295 -0.1503  0.0300 -0.0189
 8945TIP3    H148326   6.588   6.641  12.324 -2.2819 -0.0160  0.0458
 8945TIP3    H248327   6.525   6.505  12.348 -0.1792 -1.2484 -1.0807
 8946TIP3   OH248328   5.506   1.580   1.636 -0.0508 -0.9676  0.1988
 8946TIP3    H148329   5.482   1.538   1.719 -1.3255  0.7181  0.7296
 8946TIP3    H248330   5.494   1.511   1.571 -1.3156 -1.6741  1.1352
 8947TIP3   OH248331   0.063   3.370  14.511 -0.7737  0.3718  0.4777
 8947TIP3    H148332   0.042   3.309  14.441  0.5785 -1.1710  1.3570
 8947TIP3    H248333   0.152   3.401  14.490  0.0392 -0.8504  1.9697
 8948TIP3   OH248334   1.276   3.339  12.835  0.3261 -0.5441 -0.2276
 8948TIP3    H148335   1.227   3.296  12.766  1.4681 -1.5187 -0.4510
 8948TIP3    H248336   1.319   3.413  12.792  0.1785 -0.5160 -0.3266
 8949TIP3   OH248337   4.721   1.679  16.041  0.7560 -0.1447  0.1548
 8949TIP3    H148338   4.676   1.755  16.005 -0.7481 -1.5107 -0.9961
 8949TIP3    H248339   4.671   1.655  16.119 -0.4888 -1.5434 -1.0131
 8950TIP3   OH248340   3.506   2.619  10.753 -0.6683  0.1368 -0.0861
 8950TIP3    H148341   3.450   2.543  10.737 -0.5415  0.0156  0.0557
 8950TIP3    H248342   3.579   2.609  10.692 -1.4362  0.9519 -1.1907
 8951TIP3   OH248343   0.919   0.148  15.153 -0.3134  0.5105 -0.5762
 8951TIP3    H148344   0.855   0.128  15.221 -0.2613 -1.6587 -1.0927
 8951TIP3    H248345   1.003   0.123  15.191  0.3259  3.3474  0.1041
 8952TIP3   OH248346   0.322   3.092  14.678  0.0662  0.3876 -0.4247
 8952TIP3    H148347   0.273   3.098  14.595 -2.2525  0.0819  0.8359
 8952TIP3    H248348   0.373   3.012  14.670 -1.1775 -0.3748 -1.0547
 8953TIP3   OH248349   6.045   1.925  17.065 -0.4061  0.0329  0.5442
 8953TIP3    H148350   6.013   1.850  17.016  1.4439 -0.8622  0.5926
 8953TIP3    H248351   5.993   1.925  17.146  0.4508 -2.0858  1.1728
 8954TIP3   OH248352   0.718   4.615   2.657 -0.1206  0.3228 -0.1129
 8954TIP3    H148353   0.665   4.540   2.682 -0.7447  0.8532  0.1847
 8954TIP3    H248354   0.689   4.636   2.568 -1.1160  1.1893  0.3842
 8955TIP3   OH248355   4.900   3.434   5.437 -0.2164  0.3412  0.1188
 8955TIP3    H148356   4.850   3.353   5.452  0.8619 -0.1219  1.4656
 8955TIP3    H248357   4.890   3.483   5.519  2.7214 -0.4771  1.0994
 8956TIP3   OH248358   6.224   1.903   4.341 -0.8032  0.0716  0.2456
 8956TIP3    H148359   6.236   1.811   4.365  1.2177  0.2770  0.1264
 8956TIP3    H248360   6.213   1.902   4.246 -2.2066 -0.1319  0.3784
 8957TIP3   OH248361   6.229   4.134  12.292 -0.7881  0.1802  0.2021
 8957TIP3    H148362   6.227   4.157  12.385 -1.9039 -1.5849  0.6674
 8957TIP3    H248363   6.282   4.054  12.289 -3.7631 -1.9170 -0.0738
 8958TIP3   OH248364   3.612   2.669  12.137  0.3019  0.0874 -0.0668
 8958TIP3    H148365   3.586   2.711  12.055  0.7565 -0.0269 -0.2750
 8958TIP3    H248366   3.532   2.665  12.189 -0.3704 -1.3122 -1.1384
 8959TIP3   OH248367   1.002   6.511  14.525  0.2708 -0.2141  0.3807
 8959TIP3    H148368   0.937   6.513  14.454  0.1574 -1.6074  0.4149
 8959TIP3    H248369   0.962   6.456  14.592  0.3342  1.1793  1.6058
 8960TIP3   OH248370   6.802   0.615  13.946 -0.2946 -0.1157  0.5807
 8960TIP3    H148371   6.855   0.636  13.869  1.6600  0.3941  1.9802
 8960TIP3    H248372   6.715   0.648  13.926  0.7567  2.2398 -0.4663
 8961TIP3   OH248373   1.310   4.432   3.272  0.1672 -0.3226  0.4520
 8961TIP3    H148374   1.322   4.492   3.198 -1.6759 -0.7909 -0.2746
 8961TIP3    H248375   1.314   4.489   3.349 -2.0050  0.8985 -0.2314
 8962TIP3   OH248376   2.863   6.464   2.943  0.3409  0.0650  0.8014
 8962TIP3    H148377   2.835   6.390   2.997  1.1230  0.3846  1.6805
 8962TIP3    H248378   2.884   6.533   3.006  1.5038  0.3724  0.1193
 8963TIP3   OH248379   5.053   5.006   3.645 -0.0827  0.4703  0.2204
 8963TIP3    H148380   5.132   5.049   3.613 -0.3525  0.5945 -0.2932
 8963TIP3    H248381   5.063   4.914   3.621 -0.3700  0.5967 -0.4031
 8964TIP3   OH248382   6.179   2.014  13.314 -0.3068 -0.0940  0.3705
 8964TIP3    H148383   6.128   1.935  13.294  0.1191 -0.1930 -0.3539
 8964TIP3    H248384   6.145   2.080  13.254  0.5321 -0.2115 -0.2553
 8965TIP3   OH248385   0.698   3.995   1.411  0.1775 -0.5572  0.1792
 8965TIP3    H148386   0.693   3.899   1.414  0.7870 -0.7631 -2.6654
 8965TIP3    H248387   0.698   4.022   1.502  3.0577 -3.4449  1.2094
 8966TIP3   OH248388   4.668   6.273   1.212  0.5533  0.1632  0.0140
 8966TIP3    H148389   4.609   6.324   1.158  0.5283  2.2242  1.8381
 8966TIP3    H248390   4.615   6.248   1.288  0.8238 -1.8857 -0.4095
 8967TIP3   OH248391   0.009   5.669  11.477 -0.4625  1.0958 -0.1553
 8967TIP3    H148392   0.097   5.702  11.493 -0.0450  1.0200 -2.1387
 8967TIP3    H248393   0.022   5.588  11.428 -1.6131  0.2258  0.9144
 8968TIP3   OH248394   6.221   2.525   2.289  0.0571  0.0274  0.1795
 8968TIP3    H148395   6.271   2.536   2.370  0.0711  1.7034 -0.0258
 8968TIP3    H248396   6.144   2.580   2.301 -0.1960 -0.1157 -0.7432
 8969TIP3   OH248397   3.239   1.623   2.690  0.1438 -0.5825  0.4388
 8969TIP3    H148398   3.335   1.625   2.695  0.1186  2.4502  2.4951
 8969TIP3    H248399   3.219   1.649   2.600  1.3257  1.1813  0.6332
 8970TIP3   OH248400   6.449   3.308   5.512 -0.1878  0.0803  0.0004
 8970TIP3    H148401   6.415   3.346   5.593 -1.1611  0.2280 -0.4630
 8970TIP3    H248402   6.508   3.375   5.477 -0.6028  0.4747  0.0432
 8971TIP3   OH248403   0.705   1.628  15.439 -0.3519 -0.3287  0.2134
 8971TIP3    H148404   0.771   1.620  15.508  0.5717 -2.1444 -0.7937
 8971TIP3    H248405   0.676   1.538  15.423 -1.1210  0.1370 -1.2218
 8972TIP3   OH248406   1.159   0.420  15.551  0.4504  0.4817 -0.2119
 8972TIP3    H148407   1.198   0.487  15.496  0.2626  0.0645 -0.8627
 8972TIP3    H248408   1.210   0.423  15.632  1.1051  0.7017 -0.6236
 8973TIP3   OH248409   0.329   3.689   0.884 -0.0438  0.3766  0.2300
 8973TIP3    H148410   0.248   3.720   0.923  0.4134  0.5620  1.0483
 8973TIP3    H248411   0.386   3.669   0.958  1.2157  1.7220 -0.3102
 8974TIP3   OH248412   1.689   2.582   5.548  0.0389  0.3145 -0.4408
 8974TIP3    H148413   1.665   2.508   5.492 -0.5099  0.0337  0.1484
 8974TIP3    H248414   1.610   2.634   5.555  0.0961  0.3460  0.0625
 8975TIP3   OH248415   6.541   2.742   0.500  0.1461  0.2321  0.1478
 8975TIP3    H148416   6.573   2.726   0.411 -1.7381  1.3280 -0.7802
 8975TIP3    H248417   6.446   2.744   0.492 -0.1161 -0.3805  2.3399
 8976TIP3   OH248418   1.838   1.570   2.133 -0.1607  0.2843 -0.1928
 8976TIP3    H148419   1.767   1.559   2.070  1.2384  2.2324 -2.2331
 8976TIP3    H248420   1.822   1.655   2.173  0.0041 -0.1290  0.7977
 8977TIP3   OH248421   5.015   4.807  14.791 -0.2540  0.3625 -0.4744
 8977TIP3    H148422   5.087   4.842  14.739 -0.9275 -0.5096 -2.0620
 8977TIP3    H248423   4.983   4.882  14.841  2.8023  0.4123  1.6400
 8978TIP3   OH248424   6.785   6.477  12.697  0.3200 -0.1843 -0.4918
 8978TIP3    H148425   6.760   6.569  12.702  1.0885  0.0138 -0.1746
 8978TIP3    H248426   6.824   6.467  12.610  1.8167  0.2094  0.1098
 8979TIP3   OH248427   5.977   4.989   4.896 -0.3669  0.1258 -0.8583
 8979TIP3    H148428   5.902   5.048   4.894 -0.3706  0.1291 -0.6764
 8979TIP3    H248429   5.940   4.902   4.878 -1.2563 -0.7248  3.7091
 8980TIP3   OH248430   3.704   5.986  11.682 -0.1336 -0.4790  0.0067
 8980TIP3    H148431   3.710   5.900  11.640  0.2989 -0.0395 -0.8585
 8980TIP3    H248432   3.766   6.040  11.633 -0.9850  0.5360  0.0344
 8981TIP3   OH248433   3.069   0.594   6.527  0.3008 -0.2584  0.5548
 8981TIP3    H148434   3.142   0.639   6.484 -0.8670  0.8275 -0.3558
 8981TIP3    H248435   3.111   0.522   6.575  1.9255  0.1032 -0.2365
 8982TIP3   OH248436   6.733   5.185   2.772 -0.4430  0.1117  0.2162
 8982TIP3    H148437   6.716   5.235   2.852 -2.5720 -1.3853  0.7726
 8982TIP3    H248438   6.652   5.138   2.755  1.1442 -2.4611 -0.7937
 8983TIP3   OH248439   4.723   4.938   2.822  0.1072  0.1370  0.0675
 8983TIP3    H148440   4.738   5.033   2.825  0.3569  0.1288 -0.7425
 8983TIP3    H248441   4.649   4.924   2.881  1.3439  0.5746  1.8300
 8984TIP3   OH248442   1.202   4.018   2.604 -0.1623 -0.4112 -0.1872
 8984TIP3    H148443   1.140   3.994   2.674 -0.2887  1.0153  0.2187
 8984TIP3    H248444   1.146   4.043   2.530 -0.0330 -2.7896 -1.1708
 8985TIP3   OH248445   5.360   1.360   2.903  0.5411 -0.3528  0.2349
 8985TIP3    H148446   5.286   1.413   2.930  1.5424  0.7640  0.8874
 8985TIP3    H248447   5.411   1.416   2.845  0.5999 -1.2979 -0.6604
 8986TIP3   OH248448   0.757   1.097   4.812 -0.7037  0.3807 -0.0059
 8986TIP3    H148449   0.701   1.085   4.889  0.0554  1.2710  0.7056
 8986TIP3    H248450   0.742   1.188   4.786  0.3104  0.5940  0.1240
 8987TIP3   OH248451   4.239   2.655  13.497 -0.0701  0.2306  0.3973
 8987TIP3    H148452   4.144   2.647  13.495 -0.0100 -0.5339  0.4402
 8987TIP3    H248453   4.271   2.568  13.474  0.6179  0.2660  1.1779
 8988TIP3   OH248454   3.726   2.868  13.483  0.0961 -1.0781 -0.0587
 8988TIP3    H148455   3.802   2.891  13.537  1.7874 -0.0855 -2.6359
 8988TIP3    H248456   3.676   2.950  13.478  0.2653 -0.9958 -0.4443
 8989TIP3   OH248457   0.100   1.963   4.934  0.6204 -0.0467  0.0923
 8989TIP3    H148458   0.189   1.937   4.958  0.1676 -1.0264  0.7715
 8989TIP3    H248459   0.100   1.959   4.838  0.9504 -1.3420  0.1160
 8990TIP3   OH248460   4.980   1.258  13.317 -0.5432 -0.5375 -0.1029
 8990TIP3    H148461   4.984   1.353  13.323 -1.7253 -0.4518 -0.4388
 8990TIP3    H248462   5.036   1.227  13.388  1.0502  0.3942 -0.9175
 8991TIP3   OH248463   6.403   6.748   4.241  0.3884 -0.7128  0.0814
 8991TIP3    H148464   6.371   6.659   4.257  0.8680 -1.2594 -1.7612
 8991TIP3    H248465   6.498   6.740   4.244  0.4354  0.0078  1.0931
 8992TIP3   OH248466   6.675   2.550   4.979  0.0674  0.1678  0.0256
 8992TIP3    H148467   6.727   2.555   4.899 -0.5923 -0.7740 -0.4771
 8992TIP3    H248468   6.703   2.625   5.031  0.8214  0.5343 -0.8959
 8993TIP3   OH248469   4.247   4.861   3.312  0.0417 -0.0444 -0.3358
 8993TIP3    H148470   4.163   4.879   3.354 -0.2318  0.0608 -0.9153
 8993TIP3    H248471   4.285   4.947   3.297 -0.3550 -0.0171 -1.2734
 8994TIP3   OH248472   2.646   4.978  11.481  0.0039 -0.2406  0.0246
 8994TIP3    H148473   2.727   4.982  11.533 -0.2199 -1.0149  0.4462
 8994TIP3    H248474   2.675   4.997  11.391  0.5976 -0.1457  0.2294
 8995TIP3   OH248475   0.107   4.732   3.923  0.1127  0.0931 -0.2603
 8995TIP3    H148476   0.025   4.778   3.938  0.3532  0.8300 -1.1534
 8995TIP3    H248477   0.118   4.677   4.001 -1.1388  0.0984 -0.0670
 8996TIP3   OH248478   2.938   2.312  12.679 -0.1440 -0.8384 -0.5322
 8996TIP3    H148479   3.019   2.348  12.642  1.3060 -1.2099  2.0723
 8996TIP3    H248480   2.871   2.378  12.658  0.6947 -0.6694 -3.0206
 8997TIP3   OH248481   0.867   4.134   5.239  0.3299 -0.1211 -0.5977
 8997TIP3    H148482   0.942   4.178   5.279 -0.4020  0.5916  0.0103
 8997TIP3    H248483   0.795   4.149   5.300  0.1463 -2.5760 -0.1123
 8998TIP3   OH248484   6.760   3.096  15.808 -0.4992 -0.6826  0.4921
 8998TIP3    H148485   6.673   3.107  15.769 -0.0569  0.1546 -0.2813
 8998TIP3    H248486   6.808   3.042  15.746 -0.3328 -0.8118  0.7307
 8999TIP3   OH248487   0.239   3.354   0.678 -0.1565  0.4459  0.0848
 8999TIP3    H148488   0.174   3.320   0.616  0.1591 -0.9606  0.5096
 8999TIP3    H248489   0.186   3.397   0.746 -0.5512  0.8948 -0.4918
 9000TIP3   OH248490   6.533   5.074   5.368 -0.0641 -0.2441  0.0431
 9000TIP3    H148491   6.462   5.029   5.414 -2.2169  1.1926 -1.7268
 9000TIP3    H248492   6.559   5.013   5.299 -1.9350  0.4687 -1.3870
 9001TIP3   OH248493   4.008   3.785   1.112  0.3390 -0.3228  0.0117
 9001TIP3    H148494   3.998   3.690   1.117 -0.9062 -0.1259  2.0650
 9001TIP3    H248495   4.018   3.813   1.202 -0.8045  1.6341 -0.4141
 9002TIP3   OH248496   5.317   6.656   5.765  0.3088  0.4850 -0.0767
 9002TIP3    H148497   5.369   6.716   5.819  3.5372 -1.3068 -0.9474
 9002TIP3    H248498   5.332   6.685   5.675  0.2706 -0.3907 -0.3761
 9003TIP3   OH248499   3.590   5.659  16.599  0.1705 -0.2747  0.1715
 9003TIP3    H148500   3.539   5.739  16.607  1.0806  0.3493 -0.0767
 9003TIP3    H248501   3.680   5.685  16.622  0.7216 -0.9291 -1.1473
 9004TIP3   OH248502   0.630   6.800   0.875 -0.0501  0.2192  0.6233
 9004TIP3    H148503   0.614   6.756   0.791 -0.1266  1.8258 -0.2510
 9004TIP3    H248504   0.724   6.813   0.877  0.0662 -0.6452  1.2465
 9005TIP3   OH248505   6.110   2.606   5.588  0.6688 -0.1781 -0.2704
 9005TIP3    H148506   6.135   2.698   5.574 -0.4483  0.0275 -1.0272
 9005TIP3    H248507   6.057   2.584   5.512  0.1018 -1.1492  0.3869
 9006TIP3   OH248508   2.110   1.297   0.395  0.4382  0.3286  0.0877
 9006TIP3    H148509   2.135   1.387   0.375  0.1881  0.1297 -1.2171
 9006TIP3    H248510   2.165   1.244   0.337 -0.2139 -0.2967  0.0355
 9007TIP3   OH248511   1.808   2.632   3.987 -0.0705 -0.0998  0.4798
 9007TIP3    H148512   1.733   2.573   3.975  0.6960 -1.0087  0.1028
 9007TIP3    H248513   1.863   2.588   4.051 -0.0305  0.7561  1.0539
 9008TIP3   OH248514   2.397   6.110  15.429  0.5630  0.7782  0.2490
 9008TIP3    H148515   2.351   6.036  15.388  0.3918  1.9876 -1.8634
 9008TIP3    H248516   2.339   6.137  15.501  0.8489 -1.3726  1.3813
 9009TIP3   OH248517   5.817   5.196   0.351 -0.1386  0.3752 -0.0824
 9009TIP3    H148518   5.907   5.230   0.348  0.1799 -0.4458  0.0255
 9009TIP3    H248519   5.763   5.268   0.318  0.6356  0.6192 -0.8374
 9010TIP3   OH248520   4.743   5.374  15.855  0.2036  0.0667  0.8440
 9010TIP3    H148521   4.679   5.302  15.856 -0.5415  0.7013  0.0923
 9010TIP3    H248522   4.698   5.445  15.809  1.1596  0.8069  1.0356
 9011TIP3   OH248523   5.791   1.555  11.233 -0.2899  0.0219 -0.1975
 9011TIP3    H148524   5.827   1.590  11.314 -1.0779 -0.6027  0.4287
 9011TIP3    H248525   5.704   1.522  11.256  0.3978 -2.3826 -0.7370
 9012TIP3   OH248526   0.023   2.983  13.463 -0.3567 -0.2585 -0.4588
 9012TIP3    H148527   0.082   2.983  13.538 -2.1909  0.4801  1.0657
 9012TIP3    H248528  -0.049   2.925  13.488 -1.7862  1.2025 -0.9511
 9013TIP3   OH248529   2.049   1.731   1.242  0.1191  0.1755 -0.2990
 9013TIP3    H148530   2.094   1.682   1.312  0.6422  1.0698 -0.0007
 9013TIP3    H248531   2.098   1.708   1.162 -0.5063 -0.8830 -0.3999
 9014TIP3   OH248532   6.528   3.641   1.267  0.1388  0.3128  0.3274
 9014TIP3    H148533   6.496   3.694   1.340  0.9097  0.4259  0.5983
 9014TIP3    H248534   6.615   3.612   1.295  0.0568 -0.4411 -0.1481
 9015TIP3   OH248535   0.595   3.654  13.269 -0.0244 -0.1976 -0.1299
 9015TIP3    H148536   0.660   3.641  13.200  0.1820  2.5072 -0.5271
 9015TIP3    H248537   0.647   3.672  13.347 -0.1798  2.9120 -0.6419
 9016TIP3   OH248538   0.958   4.213   1.115  0.0475 -0.0133 -0.3649
 9016TIP3    H148539   1.001   4.280   1.061 -1.0442  0.9887 -0.0336
 9016TIP3    H248540   0.967   4.244   1.205  1.2767 -1.3468  0.0033
 9017TIP3   OH248541   3.878   5.011   1.402  0.0540  0.1517 -0.0220
 9017TIP3    H148542   3.944   4.986   1.467 -0.5316 -0.2927  0.4129
 9017TIP3    H248543   3.874   5.106   1.407  0.3419  0.1493  0.2745
 9018TIP3   OH248544   2.326   0.107  11.097  0.1401 -0.0051 -0.0686
 9018TIP3    H148545   2.303   0.083  11.008  1.9799 -0.7301 -0.3788
 9018TIP3    H248546   2.292   0.035  11.151 -0.2229  0.0187 -0.2614
 9019TIP3   OH248547   6.827   6.774   4.662  0.0044  0.3948 -0.5339
 9019TIP3    H148548   6.917   6.806   4.651  0.9156 -1.8204 -0.0985
 9019TIP3    H248549   6.772   6.849   4.643  1.9675  2.0192 -0.0896
 9020TIP3   OH248550   5.904   5.705   5.212 -0.3013  0.2036  0.0145
 9020TIP3    H148551   5.843   5.741   5.148  1.3205  0.6286 -1.3623
 9020TIP3    H248552   5.923   5.777   5.272 -1.2422  0.0218  0.5456
 9021TIP3   OH248553   2.827   5.492   3.186  0.8741  0.1167 -0.4270
 9021TIP3    H148554   2.764   5.438   3.234  0.4607  0.0361 -1.0596
 9021TIP3    H248555   2.900   5.502   3.247 -0.1001  0.9200  0.6424
 9022TIP3   OH248556   4.403   6.151   0.616 -0.1631  0.2460 -0.4308
 9022TIP3    H148557   4.429   6.060   0.633 -1.5010  0.1295  1.2365
 9022TIP3    H248558   4.336   6.144   0.548  0.1965  0.0576 -0.7729
 9023TIP3   OH248559   5.540   1.507  15.646 -0.3540  0.0552  0.6496
 9023TIP3    H148560   5.502   1.428  15.607 -0.3970 -0.0951  0.9873
 9023TIP3    H248561   5.469   1.571  15.645  0.1199  0.5846 -1.0076
 9024TIP3   OH248562   0.146   1.180   1.966  1.2890 -0.7641  0.0078
 9024TIP3    H148563   0.112   1.159   1.879  0.2727  2.0468 -0.3753
 9024TIP3    H248564   0.069   1.182   2.022  1.7195 -0.8126  0.6159
 9025TIP3   OH248565   2.168   1.402  11.409 -0.1679  0.4679  0.1456
 9025TIP3    H148566   2.114   1.458  11.465  0.6578  1.6177 -0.1777
 9025TIP3    H248567   2.194   1.458  11.336 -1.5351 -1.1130 -1.6417
 9026TIP3   OH248568   3.927   3.577  15.751 -0.0279  0.0409 -0.8303
 9026TIP3    H148569   3.996   3.636  15.722  0.3656 -0.2558 -0.4965
 9026TIP3    H248570   3.849   3.633  15.756  1.0128  1.4313  2.8741
 9027TIP3   OH248571   3.324   6.655  13.155  0.5297 -0.3267 -0.5005
 9027TIP3    H148572   3.335   6.675  13.062  0.3913  2.6755  0.0110
 9027TIP3    H248573   3.413   6.636  13.185  1.0010  1.1586 -0.8252
 9028TIP3   OH248574   2.647   6.024   2.359 -0.3458 -0.0591 -0.0592
 9028TIP3    H148575   2.575   6.085   2.376  0.3660  0.3622  1.6534
 9028TIP3    H248576   2.646   5.966   2.435 -0.0625 -1.2495 -0.9515
 9029TIP3   OH248577   0.110   5.765   5.577 -0.2235 -0.8390  0.6654
 9029TIP3    H148578   0.090   5.779   5.485 -0.2143  1.7224  0.9722
 9029TIP3    H248579   0.026   5.769   5.622 -0.0374  0.0251  0.9590
 9030TIP3   OH248580   3.602   0.400   5.652  0.1379 -0.0007 -0.0202
 9030TIP3    H148581   3.621   0.389   5.559 -1.4292  1.8445 -0.6326
 9030TIP3    H248582   3.545   0.326   5.674  0.1402 -0.1929 -0.6355
 9031TIP3   OH248583   3.845   3.688   0.310 -0.1189 -0.2945  0.3899
 9031TIP3    H148584   3.874   3.598   0.300 -0.4526 -0.5392  1.5222
 9031TIP3    H248585   3.922   3.735   0.342 -0.4010 -0.5357  1.4526
 9032TIP3   OH248586   0.210   4.183   1.881 -0.1412 -0.8165 -0.2123
 9032TIP3    H148587   0.126   4.154   1.916 -0.1133  0.3465  0.9012
 9032TIP3    H248588   0.187   4.238   1.806 -0.5082  0.8651  1.0726
 9033TIP3   OH248589   3.886   5.032   4.813  0.1278  0.5236  0.7658
 9033TIP3    H148590   3.878   5.114   4.862 -1.0986  1.0382 -0.2311
 9033TIP3    H248591   3.931   4.972   4.873  1.7018  2.1138  1.2818
 9034TIP3   OH248592   3.886   2.306   1.536  0.2134 -0.3222 -0.1609
 9034TIP3    H148593   3.812   2.256   1.502  0.6681 -1.8664  0.9891
 9034TIP3    H248594   3.873   2.395   1.502 -1.6533 -0.7653 -0.7246
 9035TIP3   OH248595   4.999   1.765   1.530 -0.0174  0.6710  0.2201
 9035TIP3    H148596   4.978   1.855   1.508 -0.7050  0.8396  1.4482
 9035TIP3    H248597   4.932   1.740   1.594  1.8789  0.2641  2.1588
 9036TIP3   OH248598   3.325   3.308  11.881  0.1318 -0.6357 -0.4784
 9036TIP3    H148599   3.342   3.381  11.940  0.7936  0.8311 -2.3615
 9036TIP3    H248600   3.401   3.251  11.890  0.3721 -0.2695 -0.1517
 9037TIP3   OH248601   3.776   4.746  13.109 -0.0212  0.1449  0.1420
 9037TIP3    H148602   3.709   4.812  13.091 -1.3869 -0.6221  2.1096
 9037TIP3    H248603   3.837   4.789  13.169  1.2169  0.7752 -1.4893
 9038TIP3   OH248604   0.589   5.485   1.120  0.7769 -0.2616 -0.5594
 9038TIP3    H148605   0.660   5.447   1.069  1.2544 -1.1524  0.7172
 9038TIP3    H248606   0.525   5.414   1.129  0.9867 -0.3105  0.5941
 9039TIP3   OH248607   5.334   0.614   4.834  0.1133  0.0479  0.6436
 9039TIP3    H148608   5.364   0.677   4.900  0.5181  1.7515 -1.0703
 9039TIP3    H248609   5.411   0.594   4.782 -0.6675  0.8321 -0.9147
 9040TIP3   OH248610   5.822   5.859   4.362  0.1393  0.0737  0.2873
 9040TIP3    H148611   5.911   5.895   4.357 -0.2214  0.8771 -0.9220
 9040TIP3    H248612   5.823   5.784   4.303 -0.5570  1.4465 -1.5453
 9041TIP3   OH248613   5.971   6.686   2.952 -0.5708 -0.5082 -0.1355
 9041TIP3    H148614   6.029   6.669   3.026  0.5913 -2.0515 -1.3507
 9041TIP3    H248615   6.027   6.685   2.875 -2.0028 -0.7552 -1.2346
 9042TIP3   OH248616   0.389   2.249   5.948  0.1662  0.0687  0.2172
 9042TIP3    H148617   0.353   2.324   5.995  0.4859  0.0086  0.5661
 9042TIP3    H248618   0.424   2.286   5.867 -2.5147 -0.1375 -1.1731
 9043TIP3   OH248619   1.058   1.978  16.129  0.0536 -0.3982  0.5684
 9043TIP3    H148620   0.984   1.935  16.085  0.8695 -1.8701  0.5800
 9043TIP3    H248621   1.025   2.065  16.153 -0.9549 -0.1692 -1.4501
 9044TIP3   OH248622   4.339   1.300  14.318  0.0371  0.1557  0.1461
 9044TIP3    H148623   4.321   1.341  14.403 -2.0845  0.2195 -0.2858
 9044TIP3    H248624   4.377   1.370  14.265  1.0928  0.1967  0.9188
 9045TIP3   OH248625   2.905   0.184   1.558 -0.0871 -0.0681 -1.0540
 9045TIP3    H148626   2.852   0.232   1.494 -0.3383  0.0283 -0.7762
 9045TIP3    H248627   2.917   0.246   1.630 -0.8212 -0.5903 -0.4795
 9046TIP3   OH248628   1.695   5.484   4.798 -0.1794 -0.2669  0.5455
 9046TIP3    H148629   1.733   5.568   4.824 -2.0700  0.3966  1.3593
 9046TIP3    H248630   1.672   5.443   4.881  0.5752 -1.5442  0.1405
 9047TIP3   OH248631   2.387   5.567   2.869  0.1897 -0.0540  0.5421
 9047TIP3    H148632   2.414   5.616   2.946 -0.1022  0.0231  0.5952
 9047TIP3    H248633   2.364   5.634   2.804 -2.3028 -0.0582  1.3166
 9048TIP3   OH248634   0.620   0.788  12.509 -0.1752 -0.0835  0.0835
 9048TIP3    H148635   0.535   0.749  12.530 -0.3194  0.2534  0.1187
 9048TIP3    H248636   0.646   0.746  12.427 -1.3481  1.3169 -1.0550
 9049TIP3   OH248637   0.173   5.081   1.902  0.0825 -0.6352 -0.3728
 9049TIP3    H148638   0.198   5.105   1.991 -0.3566  1.4037 -0.7674
 9049TIP3    H248639   0.081   5.105   1.895 -0.5222 -2.7951 -0.7379
 9050TIP3   OH248640   5.281   3.115   2.887  0.0126 -0.0129 -0.6716
 9050TIP3    H148641   5.200   3.160   2.862 -0.2897 -1.2685 -2.0975
 9050TIP3    H248642   5.323   3.092   2.804  1.7591  0.4337  0.0370
 9051TIP3   OH248643   5.284   1.196  14.272  0.6668  0.5133 -0.2316
 9051TIP3    H148644   5.285   1.115  14.221 -0.6443 -0.5064  1.2756
 9051TIP3    H248645   5.227   1.255  14.223 -1.4646 -0.8233  0.5125
 9052TIP3   OH248646   2.008   0.211  17.104 -0.0888 -0.0804  0.1158
 9052TIP3    H148647   2.082   0.265  17.134 -0.7370  0.8015  0.1847
 9052TIP3    H248648   1.988   0.245  17.016 -0.2925 -0.4470  0.0171
 9053TIP3   OH248649   4.846   4.807  13.215  0.2776  0.0181  0.0660
 9053TIP3    H148650   4.879   4.717  13.210  3.7855  1.2056 -2.0397
 9053TIP3    H248651   4.845   4.826  13.309  0.0228 -2.0153  0.5328
 9054TIP3   OH248652   5.973   6.807  16.775  0.2694  0.0965 -0.4005
 9054TIP3    H148653   5.903   6.747  16.749 -1.8045  2.2885 -0.2022
 9054TIP3    H248654   6.013   6.766  16.852 -0.1291 -1.6648 -1.0877
 9055TIP3   OH248655   2.103   5.559  11.356  0.4164 -0.4455  0.1857
 9055TIP3    H148656   2.056   5.639  11.334  2.1412  0.5833  0.0795
 9055TIP3    H248657   2.071   5.535  11.444 -0.2364  0.2326  0.1431
 9056TIP3   OH248658   0.139   0.065  13.055 -0.3494 -0.1126  0.5646
 9056TIP3    H148659   0.166   0.079  13.146  1.6342  0.0904 -0.0073
 9056TIP3    H248660   0.220   0.044  13.009 -1.2896 -0.0597 -1.2024
 9057TIP3   OH248661   3.528   5.354   0.441  0.4656  0.6012 -0.3482
 9057TIP3    H148662   3.469   5.430   0.444 -1.4047 -0.7847 -0.3531
 9057TIP3    H248663   3.579   5.366   0.361 -3.0606 -0.3781 -3.0031
 9058TIP3   OH248664   2.379   0.674   3.088  0.1905 -0.3236 -0.1587
 9058TIP3    H148665   2.386   0.749   3.147  0.5452 -0.9891  0.6684
 9058TIP3    H248666   2.432   0.698   3.012  2.2875 -0.6403  1.1015
 9059TIP3   OH248667   3.569   2.524  12.823 -0.1043  0.1175 -0.2978
 9059TIP3    H148668   3.617   2.453  12.780 -0.0844  1.0972 -1.9678
 9059TIP3    H248669   3.635   2.567  12.879  0.3264 -0.0973 -0.6375
 9060TIP3   OH248670   2.772   2.906  13.044 -0.8399  0.0954  0.2737
 9060TIP3    H148671   2.714   2.837  13.077  1.5931 -2.4640 -0.4518
 9060TIP3    H248672   2.754   2.910  12.950 -0.7134  0.1554  0.2515
 9061TIP3   OH248673   3.967   0.374   4.675 -0.2695 -0.1249  0.2870
 9061TIP3    H148674   3.887   0.411   4.714  0.3391 -0.1033  1.5805
 9061TIP3    H248675   3.991   0.436   4.607  0.6441  1.8753  2.2981
 9062TIP3   OH248676   4.491   1.375  11.368 -0.1412 -0.5400  0.2283
 9062TIP3    H148677   4.398   1.397  11.368 -0.1897 -0.5968 -1.2486
 9062TIP3    H248678   4.495   1.285  11.399 -0.5035 -0.3218  0.9298
 9063TIP3   OH248679   4.502   6.220   2.395 -0.5915 -0.2595  0.1634
 9063TIP3    H148680   4.546   6.218   2.480  1.9949  2.0831 -0.9572
 9063TIP3    H248681   4.565   6.183   2.334 -2.0103 -0.9618 -0.9320
 9064TIP3   OH248682   3.452   6.452  16.104 -0.2851  0.3669 -0.3192
 9064TIP3    H148683   3.500   6.438  16.023  1.7150 -1.7753  1.1256
 9064TIP3    H248684   3.387   6.519  16.082  1.4633  1.3094 -3.1347
 9065TIP3   OH248685   4.401   4.457  13.772 -0.2131  0.5810  0.1074
 9065TIP3    H148686   4.407   4.532  13.713 -1.6833  0.4925 -0.1851
 9065TIP3    H248687   4.472   4.399  13.744  2.5113  2.8072  1.8166
 9066TIP3   OH248688   1.550   1.711  13.688 -0.2171 -0.5214 -0.3509
 9066TIP3    H148689   1.573   1.789  13.740  1.1304 -1.4972  0.5944
 9066TIP3    H248690   1.462   1.688  13.717 -0.1210 -0.0955  0.3147
 9067TIP3   OH248691   0.227   4.614  11.821 -0.2104  0.4955 -0.0079
 9067TIP3    H148692   0.136   4.593  11.842  0.2079  0.2014  1.6478
 9067TIP3    H248693   0.270   4.623  11.906  1.0887  1.6535 -0.7489
 9068TIP3   OH248694   2.955   5.248   5.727  0.0195 -0.1920 -0.2428
 9068TIP3    H148695   2.962   5.162   5.687 -0.0244  0.3574 -1.4889
 9068TIP3    H248696   3.033   5.295   5.696  0.2129  0.1290  0.6810
 9069TIP3   OH248697   5.738   4.745   5.146  0.0215  0.1908  0.0327
 9069TIP3    H148698   5.745   4.677   5.214  2.2904  0.0287 -0.2895
 9069TIP3    H248699   5.801   4.811   5.173  0.7558  0.2563 -1.7570
 9070TIP3   OH248700   1.007   3.462   0.343 -0.0197 -0.4455 -0.4078
 9070TIP3    H148701   0.957   3.457   0.261 -1.6828 -0.8385  0.5860
 9070TIP3    H248702   0.956   3.410   0.405 -0.0499  1.7115  1.4985
 9071TIP3   OH248703   3.167   5.020  13.717  0.1825  0.0855 -0.2641
 9071TIP3    H148704   3.136   5.031  13.807 -0.3370 -1.2445 -0.2665
 9071TIP3    H248705   3.088   5.023  13.664  0.4270  0.2538 -0.6213
 9072TIP3   OH248706   4.716   0.105  15.581  0.2547  0.0031  0.1088
 9072TIP3    H148707   4.697   0.177  15.640  1.0386  2.0335 -1.9574
 9072TIP3    H248708   4.672   0.127  15.499  0.7558 -1.7224 -0.6973
 9073TIP3   OH248709   3.321   3.420   2.342 -0.2978 -0.4237  0.7245
 9073TIP3    H148710   3.309   3.416   2.247 -2.3121  0.5860  0.8859
 9073TIP3    H248711   3.301   3.510   2.365  2.7641  0.1100  1.8607
 9074TIP3   OH248712   0.483   6.009   4.225 -0.1138  0.5372 -0.1867
 9074TIP3    H148713   0.533   6.042   4.300  0.2814  0.5670 -0.4649
 9074TIP3    H248714   0.533   6.036   4.148 -1.3810  1.9903 -0.5509
 9075TIP3   OH248715   2.277   3.447  16.692  0.2917  0.3776  0.3636
 9075TIP3    H148716   2.340   3.375  16.684  0.2362  0.2629  0.8901
 9075TIP3    H248717   2.303   3.510  16.625 -0.4034 -0.6717 -0.9172
 9076TIP3   OH248718   0.224   2.572  10.600  0.1607 -0.1482 -0.5136
 9076TIP3    H148719   0.229   2.665  10.621 -0.9958  0.0192 -0.9020
 9076TIP3    H248720   0.301   2.556  10.546  2.1612 -0.1596  2.0861
 9077TIP3   OH248721   3.085   5.282  14.571  0.7917  0.0959  0.2710
 9077TIP3    H148722   3.075   5.285  14.476 -1.0692  0.2992  0.4316
 9077TIP3    H248723   3.070   5.372  14.599 -0.0240 -0.2189  0.8589
 9078TIP3   OH248724   3.441   3.560  12.378  0.2696 -0.0343  0.2487
 9078TIP3    H148725   3.425   3.648  12.413  0.0457  0.2989 -0.6560
 9078TIP3    H248726   3.434   3.502  12.454  0.9156  0.7734  0.9531
 9079TIP3   OH248727   2.248   4.060   6.823 -0.1348  0.8578 -0.0968
 9079TIP3    H148728   2.234   4.148   6.789  0.5470  0.9645 -0.1097
 9079TIP3    H248729   2.343   4.050   6.827 -0.1311 -0.8783 -2.7101
 9080TIP3   OH248730   0.944   5.839   0.396  0.0974 -0.6314  0.0568
 9080TIP3    H148731   0.966   5.749   0.373  0.4640 -0.5937  0.2542
 9080TIP3    H248732   0.989   5.892   0.330  0.0023 -0.5882  0.0277
 9081TIP3   OH248733   5.511   2.047  12.647  0.4985 -0.1962  0.3753
 9081TIP3    H148734   5.421   2.071  12.668  0.6002 -0.0170  0.6101
 9081TIP3    H248735   5.532   1.976  12.707  0.7139  0.1655  0.7302
 9082TIP3   OH248736   2.705   0.880  15.781 -0.1951  0.1479  0.6171
 9082TIP3    H148737   2.669   0.826  15.710 -0.4441  1.2198 -0.0852
 9082TIP3    H248738   2.631   0.898  15.838 -0.4178  0.9250  0.0890
 9083TIP3   OH248739   6.033   5.333   1.465 -0.3897  0.2212 -0.3083
 9083TIP3    H148740   6.094   5.285   1.521 -1.3409 -1.4867 -0.6823
 9083TIP3    H248741   6.089   5.376   1.401  0.5417  0.2675  0.5010
 9084TIP3   OH248742   6.640   5.992   2.128  0.1109 -0.1844 -0.2267
 9084TIP3    H148743   6.646   5.975   2.222  0.7217  0.5840 -0.1117
 9084TIP3    H248744   6.723   6.035   2.106 -0.1808 -0.0127 -1.0449
 9085TIP3   OH248745   6.369   4.202   2.649  0.1175 -0.3412 -0.6358
 9085TIP3    H148746   6.446   4.225   2.598  0.6936  0.3532  0.4913
 9085TIP3    H248747   6.388   4.113   2.681  0.1269 -0.4507 -0.9443
 9086TIP3   OH248748   4.995   1.656  15.027 -0.0970  0.4029 -0.3099
 9086TIP3    H148749   4.912   1.689  14.992 -1.3211 -0.1670  1.8681
 9086TIP3    H248750   5.032   1.731  15.074 -2.2364 -0.6368  3.5041
 9087TIP3   OH248751   2.671   3.686  15.418  1.0474  0.2313  0.4494
 9087TIP3    H148752   2.723   3.698  15.338 -0.0945 -0.9813 -0.5240
 9087TIP3    H248753   2.638   3.774  15.438 -0.0043  0.3167 -1.4168
 9088TIP3   OH248754   1.137   3.403  13.655 -0.3354  0.0608 -0.2285
 9088TIP3    H148755   1.103   3.320  13.687 -0.5730 -0.1266 -0.9628
 9088TIP3    H248756   1.062   3.463  13.658 -0.2933  0.1133 -0.2046
 9089TIP3   OH248757   6.753   6.262  16.825  0.0776  0.1561  0.4062
 9089TIP3    H148758   6.740   6.337  16.767  0.1439  0.6296  0.9937
 9089TIP3    H248759   6.673   6.257  16.877  0.1656 -0.0410  0.5212
 9090TIP3   OH248760   1.245   6.410  14.964 -0.5591  0.4168 -0.3738
 9090TIP3    H148761   1.289   6.335  14.925 -0.7483  0.3627 -0.4866
 9090TIP3    H248762   1.314   6.458  15.009 -0.1257  1.0419 -1.6363
 9091TIP3   OH248763   5.682   3.007  15.631  0.0133  0.3932 -0.0186
 9091TIP3    H148764   5.667   2.914  15.650  1.1533  0.2531  0.2278
 9091TIP3    H248765   5.690   3.011  15.535  0.4385  0.1589  0.0048
 9092TIP3   OH248766   3.112   2.297   2.436 -0.7148 -0.4033 -0.2575
 9092TIP3    H148767   3.118   2.306   2.531 -0.1002 -0.4129 -0.2933
 9092TIP3    H248768   3.167   2.222   2.415  1.8060  1.5277 -0.9486
 9093TIP3   OH248769   2.258   0.996  11.663  0.1813  0.1010 -0.7389
 9093TIP3    H148770   2.276   1.083  11.626  2.4955  0.2632  0.5369
 9093TIP3    H248771   2.285   0.935  11.595  1.6911  0.4057 -0.4481
 9094TIP3   OH248772   0.279   6.380   3.667  0.2307  0.4735 -0.4950
 9094TIP3    H148773   0.320   6.296   3.647 -0.9071  0.0235 -1.0689
 9094TIP3    H248774   0.244   6.410   3.583 -0.3126  0.9776 -0.0972
 9095TIP3   OH248775   5.640   6.438  14.372 -0.2595 -0.1701  0.4714
 9095TIP3    H148776   5.721   6.386  14.372 -0.4134 -0.4090  0.3867
 9095TIP3    H248777   5.572   6.378  14.343 -0.3394  0.2395 -0.2078
 9096TIP3   OH248778   0.644   1.950  12.984  0.1526  0.2367 -0.0249
 9096TIP3    H148779   0.702   1.999  13.042 -0.9145 -0.0624  1.3384
 9096TIP3    H248780   0.634   1.864  13.026 -0.3541 -0.1288 -0.8449
 9097TIP3   OH248781   0.406   3.831   2.322 -0.3469 -0.1536  0.5974
 9097TIP3    H148782   0.395   3.838   2.228 -0.5869  0.3633  0.6592
 9097TIP3    H248783   0.453   3.910   2.347  0.5135 -0.7130  0.7973
 9098TIP3   OH248784   4.820   3.192   0.143 -0.3064  0.2987 -0.1429
 9098TIP3    H148785   4.776   3.165   0.223  2.0431  0.0538  1.1463
 9098TIP3    H248786   4.798   3.285   0.134 -1.8859 -0.0471 -0.1452
 9099TIP3   OH248787   6.621   0.985   5.811 -0.6104  0.2802 -0.0940
 9099TIP3    H148788   6.684   0.999   5.741 -0.4650 -1.3526 -0.3100
 9099TIP3    H248789   6.671   0.998   5.891 -0.0723 -0.6493 -0.2705
 9100TIP3   OH248790   3.559   2.079   2.881 -0.6039 -0.1051  0.6547
 9100TIP3    H148791   3.527   2.026   2.808  1.5377  0.4884 -0.8228
 9100TIP3    H248792   3.578   2.017   2.951 -1.6388 -0.8107  0.3355
 9101TIP3   OH248793   0.039   2.135  16.540  0.1303 -0.3110 -0.1139
 9101TIP3    H148794   0.041   2.043  16.566  0.7899 -0.1878  0.2997
 9101TIP3    H248795   0.014   2.182  16.620  0.2333 -0.0971 -0.2056
 9102TIP3   OH248796   4.986   2.844   5.710  0.0838  0.3350  0.0370
 9102TIP3    H148797   5.051   2.883   5.768  0.4356 -1.4861  0.9574
 9102TIP3    H248798   4.905   2.841   5.762 -0.0143  0.1342 -0.1232
 9103TIP3   OH248799   3.204   5.144  14.799  0.0181  0.1244  0.0178
 9103TIP3    H148800   3.124   5.095  14.820  0.2110  0.1690  0.9304
 9103TIP3    H248801   3.186   5.185  14.715 -0.5351 -0.6910 -0.2768
 9104TIP3   OH248802   1.024   3.470   3.317  0.2140  0.0708 -0.3738
 9104TIP3    H148803   0.988   3.394   3.272 -0.4131 -0.1579  0.5055
 9104TIP3    H248804   0.988   3.467   3.405  3.2881 -0.8336  0.9967
 9105TIP3   OH248805   1.081   3.058  11.005 -0.6282 -0.0062 -0.3172
 9105TIP3    H148806   1.124   3.140  11.027 -0.4960  0.3336 -1.7695
 9105TIP3    H248807   0.993   3.083  10.977 -1.3178 -0.5681  1.2051
 9106TIP3   OH248808   0.110   3.887   1.690  0.3465  0.7877  0.7169
 9106TIP3    H148809   0.089   3.906   1.781  0.2586 -1.3672  1.1923
 9106TIP3    H248810   0.027   3.860   1.651  0.4717  1.2516  0.1018
 9107TIP3   OH248811   2.348   2.808   5.701  0.0849  0.4201  0.0445
 9107TIP3    H148812   2.312   2.722   5.720  0.9730  0.3007  1.3453
 9107TIP3    H248813   2.272   2.865   5.693 -0.4928  0.1929  2.7703
 9108TIP3   OH248814   5.672   0.753  15.291  0.2659 -0.0897  0.1385
 9108TIP3    H148815   5.745   0.786  15.342 -1.2477  0.7528  1.8443
 9108TIP3    H248816   5.666   0.813  15.216  1.8730 -0.7479 -0.5700
 9109TIP3   OH248817   3.050   6.744   5.917 -0.5867  0.9225  0.5523
 9109TIP3    H148818   3.011   6.663   5.952  0.7945 -0.6533 -1.3227
 9109TIP3    H248819   2.986   6.812   5.939 -1.8143 -0.6491  2.2033
 9110TIP3   OH248820   5.498   0.962  11.120  0.5496  0.1227  0.3063
 9110TIP3    H148821   5.447   0.996  11.194  1.3953  0.8154  0.5954
 9110TIP3    H248822   5.449   0.886  11.090  0.2941 -0.3108  1.7352
 9111TIP3   OH248823   4.499   4.606   3.839  0.3955 -0.5157  1.1341
 9111TIP3    H148824   4.537   4.587   3.753 -0.6203  0.5555  0.4184
 9111TIP3    H248825   4.411   4.568   3.835  0.3440 -0.4675  1.7167
 9112TIP3   OH248826   4.156   2.383   2.355 -0.0367 -0.1710  0.5274
 9112TIP3    H148827   4.183   2.474   2.342 -2.0892  0.5162  0.7891
 9112TIP3    H248828   4.147   2.373   2.449 -2.9614  0.3985  0.3929
 9113TIP3   OH248829   3.957   5.755  11.581 -0.6572 -0.1688 -0.1163
 9113TIP3    H148830   3.948   5.836  11.531  0.9244  0.3827  0.4534
 9113TIP3    H248831   4.047   5.755  11.612 -1.4107 -0.7629  2.2672
 9114TIP3   OH248832   2.480   5.654  16.570  0.0888 -0.0363 -0.7452
 9114TIP3    H148833   2.543   5.690  16.507 -0.8682  0.3837 -1.4907
 9114TIP3    H248834   2.530   5.641  16.650  0.8489  1.3724 -0.9734
 9115TIP3   OH248835   4.686   4.481   6.474  0.1750  0.1469 -0.4808
 9115TIP3    H148836   4.661   4.390   6.492  0.7112 -0.3345 -2.0009
 9115TIP3    H248837   4.777   4.476   6.447  0.1518  1.1191 -0.7623
 9116TIP3   OH248838   6.551   2.752   3.065  0.2514 -0.5816  0.6075
 9116TIP3    H148839   6.531   2.844   3.085  1.0427 -0.4787  0.9505
 9116TIP3    H248840   6.499   2.733   2.987  0.1758  0.1947  0.4566
 9117TIP3   OH248841   5.935   2.918  16.036  0.3060 -0.2917 -0.2847
 9117TIP3    H148842   5.925   2.885  16.125 -1.6056 -1.8384 -0.9836
 9117TIP3    H248843   6.029   2.912  16.018  0.5607 -1.2436  1.1619
 9118TIP3   OH248844   4.575   2.523   4.357  0.1447 -0.4223 -0.3553
 9118TIP3    H148845   4.541   2.606   4.324  1.0958  0.4751  0.8439
 9118TIP3    H248846   4.545   2.458   4.293 -2.0945  0.5714 -0.4329
 9119TIP3   OH248847   3.461   2.701  11.022  0.4317  0.1326  0.3543
 9119TIP3    H148848   3.469   2.609  11.047  1.7628  0.4520  1.2001
 9119TIP3    H248849   3.476   2.701  10.927 -0.2029 -0.5845  0.2443
 9120TIP3   OH248850   3.750   2.323  15.783 -0.0170  0.2600 -0.1688
 9120TIP3    H148851   3.677   2.376  15.751 -1.0681 -0.9501  0.1483
 9120TIP3    H248852   3.711   2.238  15.804  0.7939  0.5980  3.2789
 9121TIP3   OH248853   6.234   4.420   3.643  0.1702 -0.1503  0.7129
 9121TIP3    H148854   6.283   4.412   3.561 -1.6177  1.1446 -0.5556
 9121TIP3    H248855   6.294   4.386   3.710  1.8851 -0.7687 -1.0350
 9122TIP3   OH248856   2.253   0.775   1.359  0.0413 -0.1021 -0.4404
 9122TIP3    H148857   2.289   0.757   1.272  1.1251  0.9799 -0.2246
 9122TIP3    H248858   2.177   0.716   1.365  1.1357 -1.6796 -1.3021
 9123TIP3   OH248859   3.087   1.601   5.611 -0.0857  0.1702 -0.5121
 9123TIP3    H148860   2.999   1.565   5.623  0.5886 -1.9300 -1.3062
 9123TIP3    H248861   3.128   1.594   5.697 -0.7483  1.4219 -0.0721
 9124TIP3   OH248862   0.542   0.188  15.296 -0.8019  0.2410 -0.2795
 9124TIP3    H148863   0.626   0.182  15.341 -1.0460  2.3690  0.5632
 9124TIP3    H248864   0.565   0.187  15.203  0.0219 -0.5096 -0.0856
 9125TIP3   OH248865   3.188   1.806  11.551 -0.1344  0.3565 -0.0416
 9125TIP3    H148866   3.198   1.884  11.605 -0.1408  0.2910  0.0549
 9125TIP3    H248867   3.093   1.790  11.548 -0.1526  0.5149 -0.2941
 9126TIP3   OH248868   2.331   1.474  12.208 -0.0927  0.3786  0.5303
 9126TIP3    H148869   2.406   1.531  12.228 -0.8395  1.4079  0.4630
 9126TIP3    H248870   2.259   1.535  12.192 -1.0319 -0.6073  0.9293
 9127TIP3   OH248871   5.261   3.637   1.755  0.6318 -0.0134 -0.0439
 9127TIP3    H148872   5.310   3.694   1.697  1.8223 -0.5247  0.4256
 9127TIP3    H248873   5.320   3.564   1.773 -0.3515 -0.7160  0.4476
 9128TIP3   OH248874   2.148   5.625   2.509  0.0535  0.7927  0.1540
 9128TIP3    H148875   2.122   5.534   2.498  1.5840  0.4489 -0.8634
 9128TIP3    H248876   2.135   5.643   2.603 -0.6196 -0.3379  0.2881
 9129TIP3   OH248877   3.114   2.156  14.756 -0.2710  0.4115  0.3457
 9129TIP3    H148878   3.128   2.247  14.728  1.2996 -0.0197 -0.4050
 9129TIP3    H248879   3.059   2.118  14.688  1.3038  0.1079 -0.8204
 9130TIP3   OH248880   4.743   3.505  15.666 -0.2071 -0.3516  0.1792
 9130TIP3    H148881   4.685   3.578  15.646  0.8898  0.8484  1.1886
 9130TIP3    H248882   4.728   3.443  15.595  0.2498  1.7139 -1.8647
 9131TIP3   OH248883   2.098   5.920  16.073 -0.1288  0.1703  0.4770
 9131TIP3    H148884   2.085   5.977  15.998  0.1252  1.2988  1.2638
 9131TIP3    H248885   2.013   5.876  16.085 -0.2683  0.2338 -0.2484
 9132TIP3   OH248886   1.778   2.523  11.402  0.0204  0.3769  0.4395
 9132TIP3    H148887   1.794   2.617  11.405  0.6633  0.3753 -1.4811
 9132TIP3    H248888   1.723   2.511  11.325 -0.2782 -0.7955  0.8248
 9133TIP3   OH248889   4.280   0.026  12.290  0.5212 -0.1956  0.6507
 9133TIP3    H148890   4.196   0.055  12.256  1.1632 -0.2698 -1.1020
 9133TIP3    H248891   4.328   0.106  12.308  0.9595 -0.1111 -0.7398
 9134TIP3   OH248892   1.171   3.942  12.822  0.0129  0.7445 -0.1454
 9134TIP3    H148893   1.134   3.987  12.898 -0.4365 -1.9493  1.3256
 9134TIP3    H248894   1.222   3.870  12.859 -0.3116 -0.7384 -2.4142
 9135TIP3   OH248895   4.071   1.385  11.924 -0.7056  0.3934  0.0589
 9135TIP3    H148896   4.065   1.293  11.952 -0.8721  0.7380  1.2382
 9135TIP3    H248897   3.982   1.419  11.936 -1.4545 -0.0271 -3.2860
 9136TIP3   OH248898   0.627   6.177   0.888  0.2487  0.8549 -0.1779
 9136TIP3    H148899   0.647   6.270   0.897  2.0310  0.5883 -0.9611
 9136TIP3    H248900   0.713   6.135   0.877 -0.4226 -1.0171  1.1947
 9137TIP3   OH248901   1.881   0.223  14.713 -0.4264 -0.2752 -0.9527
 9137TIP3    H148902   1.854   0.245  14.802 -2.2636  1.2352 -1.8065
 9137TIP3    H248903   1.907   0.307  14.674  0.1275 -0.8661 -1.9147
 9138TIP3   OH248904   5.502   5.103  11.928 -0.4656 -0.0617 -1.1525
 9138TIP3    H148905   5.570   5.133  11.867  1.9423 -3.0044 -0.1118
 9138TIP3    H248906   5.477   5.017  11.895  0.0384 -1.2113  1.3226
 9139TIP3   OH248907   2.084   3.391   5.864  0.0247  0.5288 -0.8655
 9139TIP3    H148908   2.124   3.431   5.942 -1.3281  0.6088 -0.1840
 9139TIP3    H248909   2.075   3.299   5.887  0.4231  0.3819 -1.2825
 9140TIP3   OH248910   3.256   6.199  13.075 -0.3897  0.2811 -0.4900
 9140TIP3    H148911   3.257   6.217  13.169 -1.7703 -0.5909 -0.2734
 9140TIP3    H248912   3.333   6.245  13.041  0.7914 -0.2937  1.2326
 9141TIP3   OH248913   6.444   2.656  14.356 -0.1278  0.0822 -0.1921
 9141TIP3    H148914   6.365   2.670  14.408  1.1556  1.0848  1.5662
 9141TIP3    H248915   6.488   2.741  14.355  1.7597 -0.8418  0.2999
 9142TIP3   OH248916   4.771   5.187   4.448 -0.4538 -0.1475 -0.3048
 9142TIP3    H148917   4.698   5.232   4.407 -1.2494 -1.5072 -0.4614
 9142TIP3    H248918   4.808   5.132   4.379 -0.0715 -0.4009  0.0872
 9143TIP3   OH248919   2.112   2.802  11.107 -0.5125 -0.3790  0.7754
 9143TIP3    H148920   2.067   2.726  11.072 -1.2190  0.4767 -0.2413
 9143TIP3    H248921   2.205   2.778  11.107 -0.4668 -0.4776 -1.6407
 9144TIP3   OH248922   6.467   2.541  12.141 -0.3662 -0.2710 -0.1277
 9144TIP3    H148923   6.455   2.519  12.234  1.1932 -0.5008  0.0558
 9144TIP3    H248924   6.417   2.475  12.094 -2.6585  0.8959  0.5394
 9145TIP3   OH248925   3.219   3.853  12.678  0.5966 -0.3936 -0.5059
 9145TIP3    H148926   3.223   3.941  12.715 -1.5162 -0.6421  0.4940
 9145TIP3    H248927   3.259   3.797  12.745  1.6990 -0.2334 -1.0248
 9146TIP3   OH248928   4.480   3.976   6.498  0.4415 -0.4005  0.1369
 9146TIP3    H148929   4.520   4.062   6.511  0.2636 -0.3431  0.3179
 9146TIP3    H248930   4.405   3.993   6.442 -0.4105 -0.2105  1.2895
 9147TIP3   OH248931   2.176   1.568   1.469 -0.2565 -0.1784 -0.0024
 9147TIP3    H148932   2.189   1.635   1.535 -1.1816 -0.0083  0.0236
 9147TIP3    H248933   2.252   1.510   1.478 -0.6505 -0.4999  1.6188
 9148TIP3   OH248934   2.714   6.413  13.531 -1.6247 -0.2260 -0.5139
 9148TIP3    H148935   2.710   6.321  13.560 -2.0312  0.4568  1.8158
 9148TIP3    H248936   2.669   6.461  13.600 -0.6583  1.8348 -1.2537
 9149TIP3   OH248937   6.380   3.788   1.076  0.3890 -0.3082  0.3166
 9149TIP3    H148938   6.409   3.712   1.126 -1.9042 -0.2185  1.9470
 9149TIP3    H248939   6.340   3.846   1.141 -0.0697  1.1955 -1.2228
 9150TIP3   OH248940   3.011   1.518  16.592  0.1846 -0.3593  0.2441
 9150TIP3    H148941   3.058   1.585  16.641  0.0729 -1.1322  1.4447
 9150TIP3    H248942   2.943   1.567  16.546  0.6448  0.4619  0.4040
 9151TIP3   OH248943   5.825   5.846   3.712 -0.0447 -0.7560 -0.2809
 9151TIP3    H148944   5.809   5.764   3.664 -0.3477 -0.8221 -0.0752
 9151TIP3    H248945   5.783   5.913   3.658  1.3492 -0.5336 -1.1362
 9152TIP3   OH248946   5.506   6.626   2.954 -0.0892  0.1301  0.0612
 9152TIP3    H148947   5.453   6.696   2.994  0.4723 -0.7225  2.4956
 9152TIP3    H248948   5.471   6.545   2.991  1.5099 -0.6099  0.0504
 9153TIP3   OH248949   1.217   2.867   5.375 -1.2381  0.6294 -0.6663
 9153TIP3    H148950   1.138   2.825   5.341 -2.1229  0.1017  1.8902
 9153TIP3    H248951   1.189   2.913   5.454  0.5436  2.5720 -1.0457
 9154TIP3   OH248952   3.196   3.376  11.136  0.1026  0.1549 -0.1850
 9154TIP3    H148953   3.198   3.283  11.158 -0.4011  0.0207 -0.6747
 9154TIP3    H248954   3.194   3.377  11.040  2.5358  0.7101 -0.2903
 9155TIP3   OH248955   5.446   2.762  16.519  0.2226 -0.3600  0.4690
 9155TIP3    H148956   5.412   2.796  16.602  1.2166 -0.0520  0.7595
 9155TIP3    H248957   5.526   2.812  16.504 -0.6768  0.6214 -1.4133
 9156TIP3   OH248958   4.946   6.030   4.755 -0.7911 -0.1995  0.0491
 9156TIP3    H148959   4.988   5.994   4.677  0.6491  0.6745  0.3841
 9156TIP3    H248960   4.973   5.971   4.826 -1.1579 -0.3359  0.0784
 9157TIP3   OH248961   6.692   3.009  14.295  0.2605 -0.1475  0.1439
 9157TIP3    H148962   6.749   3.081  14.267  1.0069 -0.6034  0.4533
 9157TIP3    H248963   6.640   3.046  14.366  0.3576  0.1960  0.0403
 9158TIP3   OH248964   5.111   0.897  14.406  0.2449  0.0648 -0.3475
 9158TIP3    H148965   5.111   0.802  14.416 -1.8488 -0.0487 -1.0584
 9158TIP3    H248966   5.203   0.918  14.388  0.9588 -1.6573  0.9815
 9159TIP3   OH248967   3.479   5.869   4.771 -0.8117 -0.1238  0.1378
 9159TIP3    H148968   3.508   5.803   4.834 -1.5779 -1.7259 -1.0959
 9159TIP3    H248969   3.386   5.849   4.758 -0.5806 -0.1318 -1.7728
 9160TIP3   OH248970   1.449   0.993   2.487  0.1580 -0.2619 -0.1435
 9160TIP3    H148971   1.387   0.933   2.529 -0.0821 -0.0525 -0.1972
 9160TIP3    H248972   1.522   0.999   2.549  0.8829 -1.7671 -0.7848
 9161TIP3   OH248973   6.468   2.269   4.409  0.5025 -0.2399  0.4566
 9161TIP3    H148974   6.536   2.292   4.347 -1.2199  0.8308 -1.1348
 9161TIP3    H248975   6.461   2.345   4.467  2.6800 -1.5554  2.6523
 9162TIP3   OH248976   0.633   1.603   5.752  0.1601  0.5318  0.9593
 9162TIP3    H148977   0.544   1.585   5.780  0.4522 -0.8370  1.0824
 9162TIP3    H248978   0.651   1.537   5.685  0.8298  1.2535  0.4014
 9163TIP3   OH248979   5.176   6.677  13.428 -0.7225 -0.3290 -0.9144
 9163TIP3    H148980   5.136   6.764  13.429 -2.0349 -0.9103 -1.0717
 9163TIP3    H248981   5.188   6.654  13.520 -2.2868 -0.8188 -0.8151
 9164TIP3   OH248982   2.249   3.320  14.071 -0.0694  0.2279 -0.1966
 9164TIP3    H148983   2.279   3.401  14.113 -1.2203  0.3276  0.4856
 9164TIP3    H248984   2.247   3.256  14.143 -2.1085  0.4096 -0.0329
 9165TIP3   OH248985   3.671   4.061   5.406 -0.2457  0.0624  0.2125
 9165TIP3    H148986   3.626   4.091   5.327  2.0587 -0.6672 -1.4883
 9165TIP3    H248987   3.622   3.983   5.433 -0.1215 -0.6421 -1.4919
 9166TIP3   OH248988   0.497   2.732  16.470 -0.2242  0.4573  0.1601
 9166TIP3    H148989   0.460   2.820  16.464  1.0723  1.0493  0.3331
 9166TIP3    H248990   0.575   2.743  16.524  0.6210 -0.5720 -0.7895
 9167TIP3   OH248991   2.407   1.331   2.573  0.4174 -0.2858  0.3333
 9167TIP3    H148992   2.425   1.375   2.490 -0.4963  0.5353  0.5576
 9167TIP3    H248993   2.447   1.387   2.640  0.0238 -0.2635  0.5531
 9168TIP3   OH248994   6.090   4.167   1.235  0.0472 -0.4059  0.0128
 9168TIP3    H148995   6.128   4.085   1.267 -0.8108 -1.1902 -0.9032
 9168TIP3    H248996   6.155   4.201   1.174 -0.4452 -1.4588 -1.1343
 9169TIP3   OH248997   0.937   6.757  12.368 -0.3590  0.2424  0.0998
 9169TIP3    H148998   0.952   6.684  12.309 -1.5481  0.4717 -0.5223
 9169TIP3    H248999   0.991   6.738  12.445 -0.8490 -1.4186  0.0639
 9170TIP3   OH249000   6.090   1.525   0.626 -0.2692  0.3178  0.2312
 9170TIP3    H149001   6.160   1.503   0.688  0.7398 -2.6306 -1.7458
 9170TIP3    H249002   6.130   1.584   0.563  0.1296 -0.4298 -0.2287
 9171TIP3   OH249003   2.446   0.154   5.434  0.9719 -0.6541 -0.3408
 9171TIP3    H149004   2.507   0.086   5.462  1.2318 -0.1744  0.2753
 9171TIP3    H249005   2.467   0.229   5.489  0.6292 -0.1000 -0.9556
 9172TIP3   OH249006   5.704   6.587   0.547  1.0433  0.1080 -0.5236
 9172TIP3    H149007   5.782   6.535   0.530  0.6670 -0.5170 -0.3506
 9172TIP3    H249008   5.663   6.597   0.461  2.0905  1.7301 -0.8852
 9173TIP3   OH249009   0.894   2.514   0.197 -0.4274 -0.2065 -0.4984
 9173TIP3    H149010   0.828   2.447   0.216 -0.3371 -0.3581 -0.7062
 9173TIP3    H249011   0.848   2.578   0.142 -0.9582  0.7325  0.9828
 9174TIP3   OH249012   4.143   5.326  12.342 -0.2535  0.6833  0.7555
 9174TIP3    H149013   4.227   5.372  12.344 -0.6576  1.5838 -1.0473
 9174TIP3    H249014   4.129   5.306  12.250 -2.1932  0.8701  0.9763
 9175TIP3   OH249015   1.214   0.994  13.906 -0.6101  0.0143 -0.0931
 9175TIP3    H149016   1.278   0.936  13.864 -0.2865 -0.1251  0.5789
 9175TIP3    H249017   1.267   1.048  13.965 -1.4464 -2.4408  3.1643
 9176TIP3   OH249018   5.993   0.464  16.437  0.0148 -0.2181 -0.9491
 9176TIP3    H149019   5.929   0.487  16.371  0.6590 -0.2388 -1.5969
 9176TIP3    H249020   6.014   0.372  16.420 -0.3264 -0.4276 -0.2746
 9177TIP3   OH249021   0.592   2.048  12.477  0.0990  0.2634 -0.1074
 9177TIP3    H149022   0.595   2.016  12.567 -0.8533 -0.3408 -0.2784
 9177TIP3    H249023   0.554   2.135  12.483  0.4489  0.4015  0.1176
 9178TIP3   OH249024   2.000   3.760  12.825  0.6776  0.0618 -0.3687
 9178TIP3    H149025   2.077   3.707  12.803  0.5071  0.5632 -2.4046
 9178TIP3    H249026   1.930   3.724  12.770 -0.9556 -1.2188  2.3725
 9179TIP3   OH249027   2.237   2.877   1.075 -0.3363  0.2479 -0.1143
 9179TIP3    H149028   2.224   2.843   1.164 -0.4626  2.2033  0.6628
 9179TIP3    H249029   2.269   2.966   1.088  0.6096  0.2303 -2.0535
 9180TIP3   OH249030   6.531   5.409   0.540  0.3462 -0.1893  0.1642
 9180TIP3    H149031   6.595   5.473   0.509 -0.2914 -0.7085 -2.4888
 9180TIP3    H249032   6.557   5.390   0.630  2.3438  1.5193  0.0184
 9181TIP3   OH249033   1.135   1.496  14.803 -0.3970 -0.0444 -0.6172
 9181TIP3    H149034   1.167   1.460  14.885  3.8479  0.9482 -1.6009
 9181TIP3    H249035   1.078   1.569  14.828  0.1162 -0.3064  1.4172
 9182TIP3   OH249036   3.202   3.775   0.156  0.3275 -0.2347 -0.1044
 9182TIP3    H149037   3.250   3.789   0.238 -0.4004  1.0288  0.1346
 9182TIP3    H249038   3.174   3.863   0.130  1.5447 -0.4412 -2.3312
 9183TIP3   OH249039   6.696   6.314  15.759 -0.1917  0.0124  0.1560
 9183TIP3    H149040   6.791   6.321  15.748 -0.0936 -1.8336 -0.4328
 9183TIP3    H249041   6.683   6.319  15.854  0.6238 -0.9045  0.3299
 9184TIP3   OH249042   0.473   5.759  15.097 -0.0829  0.2112 -0.0600
 9184TIP3    H149043   0.405   5.748  15.030  0.1859 -1.3259 -0.1214
 9184TIP3    H249044   0.434   5.722  15.176 -0.0974  1.2931  0.4613
 9185TIP3   OH249045   1.214   1.417  17.019  0.4469  0.4265  0.1906
 9185TIP3    H149046   1.299   1.447  16.988  1.1446 -0.1426  1.4993
 9185TIP3    H249047   1.204   1.329  16.983 -0.1493  0.9306 -0.9447
 9186TIP3   OH249048   0.655   0.387   1.132  0.1459 -0.2932 -0.4280
 9186TIP3    H149049   0.731   0.331   1.116  3.0325  3.1515  0.1302
 9186TIP3    H249050   0.657   0.450   1.061  0.7012  2.6379  1.9988
 9187TIP3   OH249051   2.828   5.330   0.136 -0.8011 -0.0351  0.2727
 9187TIP3    H149052   2.917   5.361   0.120 -0.5254 -0.6878  0.4913
 9187TIP3    H249053   2.839   5.261   0.202 -1.4669 -0.1308  0.2834
 9188TIP3   OH249054   2.497   2.249   5.440 -0.5539 -0.5877  0.6305
 9188TIP3    H149055   2.427   2.259   5.376 -0.5918  0.7686  0.8706
 9188TIP3    H249056   2.539   2.166   5.416 -2.1201 -1.3370  0.3922
 9189TIP3   OH249057   5.153   4.464  10.678  0.1954  0.2077 -0.4189
 9189TIP3    H149058   5.209   4.501  10.610 -0.4947  1.2579 -0.4373
 9189TIP3    H249059   5.067   4.505  10.664  0.2395  1.1088  1.5685
 9190TIP3   OH249060   6.461   5.903  16.539 -0.0895  0.2297 -0.4884
 9190TIP3    H149061   6.489   5.854  16.461  0.5341  0.3651 -0.3565
 9190TIP3    H249062   6.473   5.995  16.515 -3.0732  0.4808 -1.4457
 9191TIP3   OH249063   0.311   3.949   3.241 -0.3207  0.2219  0.0082
 9191TIP3    H149064   0.357   3.897   3.308 -0.8007  0.8245  0.8282
 9191TIP3    H249065   0.284   4.028   3.287 -0.5877  0.6953 -0.9364
 9192TIP3   OH249066   4.547   4.004   1.606 -0.7229 -0.4755  0.1507
 9192TIP3    H149067   4.619   3.965   1.655 -1.3134 -0.5306  0.9893
 9192TIP3    H249068   4.586   4.080   1.562 -0.2016 -0.3892  0.7525
 9193TIP3   OH249069   1.653   5.423  15.880  0.2240 -0.3453 -0.0872
 9193TIP3    H149070   1.602   5.503  15.871  0.6851 -0.0314  0.0619
 9193TIP3    H249071   1.596   5.354  15.845  0.9573  0.4512 -3.2209
 9194TIP3   OH249072   6.627   4.842   3.180  0.2967 -0.0735  0.2363
 9194TIP3    H149073   6.671   4.814   3.260 -0.6562 -1.1698  0.4200
 9194TIP3    H249074   6.537   4.812   3.191  0.3016 -0.8855 -1.5394
 9195TIP3   OH249075   4.329   6.763   5.392  0.3077 -0.4517 -0.5766
 9195TIP3    H149076   4.357   6.826   5.326  0.0689 -1.2986 -1.5161
 9195TIP3    H249077   4.241   6.737   5.366  0.3469 -1.0718 -0.1276
 9196TIP3   OH249078   4.012   4.510   1.937  0.1631  0.2393 -0.2671
 9196TIP3    H149079   3.969   4.585   1.976 -0.7028 -1.0354  1.3536
 9196TIP3    H249080   4.015   4.445   2.007  4.5742  0.1314 -0.2976
 9197TIP3   OH249081   4.006   5.378   1.729  0.1284  0.0157  0.2473
 9197TIP3    H149082   4.044   5.459   1.693  1.5303 -1.5094 -1.9823
 9197TIP3    H249083   4.075   5.343   1.785  0.5259 -0.8111 -0.7278
 9198TIP3   OH249084   0.163   6.408  12.843  1.0263  0.2520 -0.5583
 9198TIP3    H149085   0.166   6.477  12.910 -1.1011  0.0572 -0.1974
 9198TIP3    H249086   0.082   6.424  12.796  0.7233 -1.7216 -0.7949
 9199TIP3   OH249087   0.185   6.547  13.094  0.5118  0.4272 -0.0308
 9199TIP3    H149088   0.129   6.553  13.172  1.9049  0.6140  0.9815
 9199TIP3    H249089   0.208   6.638  13.074 -1.0708  0.5358 -1.6297
 9200TIP3   OH249090   6.248   5.891   2.413  0.2844  0.3556 -0.0412
 9200TIP3    H149091   6.272   5.930   2.497  0.5361  0.1249 -0.0030
 9200TIP3    H249092   6.331   5.858   2.378  0.0121 -0.5643  0.1441
 9201TIP3   OH249093   1.363   5.672  12.988  0.2533  0.1824 -0.2227
 9201TIP3    H149094   1.410   5.628  13.058  0.1805  0.4977  0.0247
 9201TIP3    H249095   1.322   5.748  13.030  2.5780  2.0708 -1.1308
 9202TIP3   OH249096   4.210   3.320   0.118  0.2874 -0.4983  0.1581
 9202TIP3    H149097   4.232   3.238   0.162  1.8111  0.1506  0.6719
 9202TIP3    H249098   4.239   3.308   0.027  0.6588 -0.4833  0.2723
 9203TIP3   OH249099   1.603   2.982  16.192 -0.4263  0.4049  0.2559
 9203TIP3    H149100   1.636   3.071  16.204 -0.1669  0.2374  0.8214
 9203TIP3    H249101   1.535   2.991  16.124 -0.5498  1.0634  0.4539
 9204TIP3   OH249102   0.939   3.885   4.465  0.0316  1.0505 -0.1048
 9204TIP3    H149103   0.940   3.908   4.373 -0.1647  0.2267 -0.3229
 9204TIP3    H249104   0.855   3.917   4.497 -0.3035  0.5070 -0.4364
 9205TIP3   OH249105   1.563   2.060  13.597 -0.3349  0.7905  0.4035
 9205TIP3    H149106   1.625   2.040  13.526  0.3635 -0.9929  1.4360
 9205TIP3    H249107   1.611   2.120  13.654 -0.1068  0.5798  0.4348
 9206TIP3   OH249108   3.189   6.303  17.022  0.3836  0.1033  0.2252
 9206TIP3    H149109   3.207   6.355  16.944  1.7152  1.3875  1.3304
 9206TIP3    H249110   3.145   6.225  16.989 -0.2224  1.1723 -1.6660
 9207TIP3   OH249111   6.179   5.925   1.953  0.1611  0.2779  0.1079
 9207TIP3    H149112   6.191   5.946   1.860  0.6307 -0.1401  0.0691
 9207TIP3    H249113   6.267   5.908   1.985 -0.1775 -1.7455  0.0875
 9208TIP3   OH249114   4.806   4.347  13.660  0.0543 -0.3363 -0.2597
 9208TIP3    H149115   4.788   4.262  13.619 -0.6008  0.9426 -2.8087
 9208TIP3    H249116   4.735   4.404  13.629 -0.6863  0.7389  2.9688
 9209TIP3   OH249117   0.579   1.716   1.710  0.3541  0.2236 -0.0147
 9209TIP3    H149118   0.524   1.689   1.783 -0.4195  0.1540 -0.6134
 9209TIP3    H249119   0.666   1.726   1.748  0.1517 -0.7113  0.7197
 9210TIP3   OH249120   3.896   0.425  11.332 -0.1869  0.0130  0.7124
 9210TIP3    H149121   3.915   0.507  11.377 -1.7501  2.1905 -2.2576
 9210TIP3    H249122   3.801   0.421  11.329 -0.1563 -2.0535  0.9046
 9211TIP3   OH249123   6.603   5.427   4.487 -0.1883  0.7570  0.2744
 9211TIP3    H149124   6.682   5.392   4.445 -0.5352 -1.0141  0.9818
 9211TIP3    H249125   6.610   5.522   4.478  1.4154  0.5768 -0.7370
 9212TIP3   OH249126   5.482   6.717   1.831  0.1789 -0.2915  0.1882
 9212TIP3    H149127   5.460   6.643   1.887  0.7690 -1.3448 -0.9292
 9212TIP3    H249128   5.578   6.716   1.826  0.1609  0.1030 -0.3977
 9213TIP3   OH249129   1.647   6.362   1.371 -0.1291 -0.0586 -1.3988
 9213TIP3    H149130   1.571   6.315   1.405  0.8284 -1.2084 -0.7942
 9213TIP3    H249131   1.678   6.415   1.445 -2.2695  3.0973 -2.5416
 9214TIP3   OH249132   5.990   1.193   3.000 -0.3740  0.5717  0.4264
 9214TIP3    H149133   6.057   1.131   3.028 -1.1754 -0.3933  0.2589
 9214TIP3    H249134   5.925   1.139   2.954 -0.2887  1.7494 -1.1696
 9215TIP3   OH249135   5.586   3.952  16.713 -0.7608 -0.9490 -0.0164
 9215TIP3    H149136   5.586   3.861  16.685  1.9513 -0.6756 -1.3181
 9215TIP3    H249137   5.677   3.981  16.699 -1.0525  1.4175  2.1545
 9216TIP3   OH249138   1.330   4.816  16.845 -0.9374  0.0138 -0.4801
 9216TIP3    H149139   1.263   4.873  16.807  1.0007  2.3489 -0.6514
 9216TIP3    H249140   1.367   4.868  16.917  0.3359 -1.4228 -0.0552
 9217TIP3   OH249141   4.109   1.728   3.071  0.2211 -0.3501 -0.0652
 9217TIP3    H149142   4.145   1.814   3.051  0.9321 -0.3884  0.9530
 9217TIP3    H249143   4.103   1.726   3.167 -0.7662 -1.0516 -0.1252
 9218TIP3   OH249144   6.025   0.302   1.336 -0.0606  0.4625  0.5343
 9218TIP3    H149145   5.998   0.390   1.313  0.6807  0.4683 -0.3711
 9218TIP3    H249146   6.111   0.291   1.294 -1.0991 -1.4600 -1.2660
 9219TIP3   OH249147   4.650   5.098   5.500 -0.4690  0.0863  0.1296
 9219TIP3    H149148   4.571   5.072   5.546 -1.1704  0.6472 -0.7299
 9219TIP3    H249149   4.638   5.192   5.482 -0.1135 -0.0640 -0.9738
 9220TIP3   OH249150   1.838   1.842  15.568 -0.1802  0.2536  0.7238
 9220TIP3    H149151   1.875   1.756  15.545  1.1530  1.1960 -0.8391
 9220TIP3    H249152   1.745   1.824  15.583 -0.0482 -1.3758 -0.1428
 9221TIP3   OH249153   5.208   1.306  12.136 -0.0352 -0.0854  0.1460
 9221TIP3    H149154   5.127   1.301  12.086 -1.3777 -1.3887  2.2982
 9221TIP3    H249155   5.187   1.266  12.220  3.3328 -2.1021  0.1991
 9222TIP3   OH249156   5.896   4.423   0.600  0.4690 -0.0580 -0.9352
 9222TIP3    H149157   5.914   4.468   0.683 -1.1446  0.1020 -0.6468
 9222TIP3    H249158   5.806   4.448   0.579  0.4188 -1.1514 -2.0719
 9223TIP3   OH249159   6.251   5.186  16.473 -0.0034 -0.1163 -0.6012
 9223TIP3    H149160   6.196   5.119  16.513  1.9500 -1.9932 -0.8500
 9223TIP3    H249161   6.233   5.265  16.524  1.5329 -2.0719  3.4868
 9224TIP3   OH249162   6.208   1.653  16.987 -0.7208 -0.0914 -0.2532
 9224TIP3    H149163   6.252   1.736  17.004  1.1888 -0.9799 -0.6486
 9224TIP3    H249164   6.203   1.612  17.074 -1.5828  0.3593 -0.0720
 9225TIP3   OH249165   0.756   2.959  15.202  0.1798  0.6754  0.2380
 9225TIP3    H149166   0.832   2.908  15.228 -1.1405 -1.9113 -0.6556
 9225TIP3    H249167   0.786   3.009  15.125  1.1660  0.3031  0.3719
 9226TIP3   OH249168   4.269   0.864  11.132 -0.2656  0.2420 -0.5995
 9226TIP3    H149169   4.223   0.781  11.121  1.2375 -0.5720 -1.0952
 9226TIP3    H249170   4.235   0.900  11.213 -0.5066 -1.1710 -0.0402
 9227TIP3   OH249171   0.808   2.881  15.941 -0.1285 -0.0541  0.2171
 9227TIP3    H149172   0.750   2.913  15.872 -0.0673  1.1230  0.6861
 9227TIP3    H249173   0.879   2.837  15.895 -1.6482 -2.0202 -0.3595
 9228TIP3   OH249174   0.504   5.785  17.010  0.6267  0.6236  0.0132
 9228TIP3    H149175   0.481   5.878  17.003  1.0563  0.6693 -1.0175
 9228TIP3    H249176   0.593   5.780  16.975  0.0093 -0.4095 -1.5306
 9229TIP3   OH249177   0.603   3.106   0.102 -0.0258 -0.3195 -0.5889
 9229TIP3    H149178   0.636   3.099   0.191 -1.2031 -1.0656 -0.1947
 9229TIP3    H249179   0.592   3.200   0.088  0.1610 -0.2000  0.0407
 9230TIP3   OH249180   5.599   3.236   4.804 -0.2591 -0.6692  0.7006
 9230TIP3    H149181   5.531   3.265   4.864 -0.0042 -0.7389  1.0258
 9230TIP3    H249182   5.551   3.197   4.731 -0.6529  1.3764 -0.1995
 9231TIP3   OH249183   4.900   0.825  17.108 -0.3338  0.0203 -0.3803
 9231TIP3    H149184   4.992   0.818  17.132 -0.6193 -0.8439  0.5013
 9231TIP3    H249185   4.859   0.870  17.181 -1.1129 -2.2014  0.6638
 9232TIP3   OH249186   0.440   3.245  12.707  0.0857  0.4423  0.1131
 9232TIP3    H149187   0.485   3.328  12.693 -0.3100  0.3343 -2.1744
 9232TIP3    H249188   0.353   3.258  12.668 -0.0601 -0.9560 -0.0946
 9233TIP3   OH249189   5.371   0.408   4.352  0.4862 -0.2060 -0.5421
 9233TIP3    H149190   5.281   0.408   4.385  0.7123 -0.9256  0.0942
 9233TIP3    H249191   5.365   0.365   4.267  0.3857 -1.2431 -0.0215
 9234TIP3   OH249192   5.665   4.651  12.654 -0.1172 -0.2364  0.0863
 9234TIP3    H149193   5.687   4.583  12.718 -1.4827  1.5600  2.6355
 9234TIP3    H249194   5.570   4.645  12.644 -0.2063  0.9890  0.0365
 9235TIP3   OH249195   0.892   6.354  12.293 -0.3134 -0.4609  0.4742
 9235TIP3    H149196   0.911   6.262  12.275 -2.7227 -0.9264 -0.1094
 9235TIP3    H249197   0.828   6.378  12.226 -1.3771  0.9786  1.9440
 9236TIP3   OH249198   0.132   2.387  16.439 -0.5447  0.1823 -0.1347
 9236TIP3    H149199   0.087   2.302  16.444 -1.3285  0.5167 -1.2047
 9236TIP3    H249200   0.170   2.399  16.526  0.7830 -1.9111 -0.3595
 9237TIP3   OH249201   5.767   0.125   4.396  0.3956 -0.0197  0.0444
 9237TIP3    H149202   5.699   0.116   4.328 -0.0325  0.1288  0.4477
 9237TIP3    H249203   5.808   0.210   4.376 -0.6403  0.6716  0.7713
 9238TIP3   OH249204   6.688   5.339  11.491 -0.5769 -0.3573  0.4716
 9238TIP3    H149205   6.650   5.397  11.557 -0.5075  0.4425 -0.1723
 9238TIP3    H249206   6.777   5.323  11.522 -0.7367 -0.4754  0.8752
 9239TIP3   OH249207   0.241   2.753   2.179 -0.9696 -0.4288  1.0030
 9239TIP3    H149208   0.244   2.669   2.225 -1.8690  0.3573  2.5317
 9239TIP3    H249209   0.332   2.783   2.179 -0.5328 -1.6102 -0.0436
 9240TIP3   OH249210   2.600   4.886   0.810 -0.5745 -0.5111  0.1872
 9240TIP3    H149211   2.622   4.850   0.724  1.7134  0.1211  0.4512
 9240TIP3    H249212   2.620   4.815   0.871 -0.3929 -0.3146  0.3556
 9241TIP3   OH249213   5.270   6.081   2.579  0.4092  0.7282  0.1643
 9241TIP3    H149214   5.310   6.163   2.550  1.6706  0.9507  2.3032
 9241TIP3    H249215   5.330   6.013   2.548  1.9350  0.9864  2.3298
 9242TIP3   OH249216   1.254   1.182  12.179  0.1626 -0.3221 -0.2185
 9242TIP3    H149217   1.197   1.112  12.145  0.9483 -0.6120 -1.0008
 9242TIP3    H249218   1.260   1.244  12.107  0.6037 -0.1529 -0.0340
 9243TIP3   OH249219   5.139   2.282  15.157 -0.1478  0.0760  0.6018
 9243TIP3    H149220   5.172   2.248  15.073  0.8573  0.1409  0.9595
 9243TIP3    H249221   5.118   2.374  15.139 -2.9922 -0.6479 -0.4085
 9244TIP3   OH249222   3.287   5.825   6.255  0.0272 -0.4364  0.5503
 9244TIP3    H149223   3.253   5.736   6.241 -0.4653 -0.5265  2.0878
 9244TIP3    H249224   3.254   5.849   6.342  0.7139  0.9967  0.4317
 9245TIP3   OH249225   0.360   1.818   0.231 -0.1579  0.2620 -0.2885
 9245TIP3    H149226   0.388   1.790   0.144 -1.0578  0.2248 -0.5694
 9245TIP3    H249227   0.339   1.737   0.277  3.1757 -0.0338  1.0422
 9246TIP3   OH249228   0.779   3.240  15.982 -0.5111  0.1643  0.0599
 9246TIP3    H149229   0.725   3.174  15.938 -0.9217  0.0003  0.7863
 9246TIP3    H249230   0.717   3.287  16.039  0.2508 -0.6037  1.5744
 9247TIP3   OH249231   1.617   3.231  15.327  0.4613  0.0448  0.3843
 9247TIP3    H149232   1.627   3.286  15.249  0.7037  0.2523  0.5595
 9247TIP3    H249233   1.630   3.291  15.401 -0.4345 -0.0166  0.6003
 9248TIP3   OH249234   1.739   6.166   1.232 -0.1651 -0.4336  0.3931
 9248TIP3    H149235   1.720   6.241   1.289 -0.8879 -0.4086  0.1270
 9248TIP3    H249236   1.722   6.198   1.143  2.5541  0.0606 -0.0500
 9249TIP3   OH249237   4.854   3.703   5.964  0.0947 -0.3267 -0.0613
 9249TIP3    H149238   4.854   3.760   5.888 -0.9395 -1.9920 -1.4031
 9249TIP3    H249239   4.788   3.740   6.022  0.1345  0.3659 -0.4490
 9250TIP3   OH249240   5.136   0.573  14.144 -0.3529 -0.4850 -0.0094
 9250TIP3    H149241   5.204   0.549  14.081 -1.3058 -0.7530 -0.9669
 9250TIP3    H249242   5.087   0.643  14.101 -1.1359 -0.7975  0.3546
 9251TIP3   OH249243   4.730   5.754  15.906  0.2382 -0.3634  0.3232
 9251TIP3    H149244   4.688   5.712  15.831 -0.2071  0.3917  0.1463
 9251TIP3    H249245   4.815   5.783  15.873 -0.0071  0.0786  0.0687
 9252TIP3   OH249246   0.575   0.850   1.589  0.6412 -0.3255  0.1153
 9252TIP3    H149247   0.514   0.901   1.535  0.8986  0.6498  0.7162
 9252TIP3    H249248   0.633   0.916   1.627  1.6693 -1.1776  0.0665
 9253TIP3   OH249249   5.774   1.859  12.651  0.1894 -0.2001  0.0121
 9253TIP3    H149250   5.687   1.828  12.628 -0.6170  0.6933  1.7124
 9253TIP3    H249251   5.760   1.919  12.724  2.2258  0.0272  0.2738
 9254TIP3   OH249252   6.741   6.040   5.739  0.0576  0.2824 -0.3162
 9254TIP3    H149253   6.768   6.093   5.814 -1.5968 -0.7501  1.0926
 9254TIP3    H249254   6.762   5.950   5.763 -0.6745 -0.0885 -0.9918
 9255TIP3   OH249255   4.025   3.111   3.281  0.1188  0.4451  0.2671
 9255TIP3    H149256   4.029   3.204   3.256 -1.5659  0.7881  1.1278
 9255TIP3    H249257   4.045   3.110   3.375  1.1316 -0.2142  0.0673
 9256TIP3   OH249258   0.923   2.554   4.022 -0.0510  0.0660 -0.1655
 9256TIP3    H149259   0.876   2.559   4.105  0.7545  1.1398  0.2482
 9256TIP3    H249260   0.970   2.471   4.026 -0.2847 -0.0473  0.3162
 9257TIP3   OH249261   6.415   2.386   3.811  0.2867 -0.1230 -1.1394
 9257TIP3    H149262   6.494   2.435   3.833 -0.2061  0.1295  0.1511
 9257TIP3    H249263   6.447   2.299   3.786  0.9107 -0.5396  0.9270
 9258TIP3   OH249264   6.368   1.092  11.446  0.5666  0.6180  0.0795
 9258TIP3    H149265   6.279   1.114  11.418  0.2664  0.5159  0.9240
 9258TIP3    H249266   6.358   1.016  11.504  1.2781  0.1712 -0.3677
 9259TIP3   OH249267   1.342   5.011   0.912 -0.2137 -0.1505  0.2343
 9259TIP3    H149268   1.381   5.046   0.832  0.5505  1.7167  1.3783
 9259TIP3    H249269   1.310   4.924   0.886 -0.7023  0.6900 -2.2893
 9260TIP3   OH249270   4.358   5.288  15.746  1.0501  0.4946  0.3828
 9260TIP3    H149271   4.273   5.329  15.757  0.6806 -0.6309  2.0300
 9260TIP3    H249272   4.415   5.358  15.712 -0.2515  1.5307  0.2811
 9261TIP3   OH249273   0.308   6.335  15.971  0.2438  0.2789  0.0863
 9261TIP3    H149274   0.248   6.270  16.007 -1.6910  1.0046 -1.6284
 9261TIP3    H249275   0.346   6.293  15.894  2.0395 -0.1949  1.1941
 9262TIP3   OH249276   0.744   0.682   1.397  0.0071 -0.0458 -0.6399
 9262TIP3    H149277   0.697   0.729   1.465  1.8632  0.1414  0.5921
 9262TIP3    H249278   0.695   0.601   1.384 -0.0099 -0.4198  1.4458
 9263TIP3   OH249279   2.402   1.789  12.850  0.2369  0.2917  0.4635
 9263TIP3    H149280   2.385   1.718  12.912  1.4179  0.6075  1.1766
 9263TIP3    H249281   2.363   1.758  12.768 -0.0409 -0.7945  0.9829
 9264TIP3   OH249282   4.709   6.663  11.104 -0.1289  0.0735  0.3189
 9264TIP3    H149283   4.666   6.687  11.186  1.3632 -0.9036  1.4411
 9264TIP3    H249284   4.678   6.728  11.041 -0.9193  1.1664  1.7693
 9265TIP3   OH249285   3.576   0.682  11.913 -0.1716  0.1812  0.5920
 9265TIP3    H149286   3.670   0.691  11.895 -0.3516  0.1846 -0.4091
 9265TIP3    H249287   3.540   0.768  11.894 -0.4743  0.0021  0.3661
 9266TIP3   OH249288   6.211   0.751   3.458 -0.6845 -0.0466  0.4041
 9266TIP3    H149289   6.251   0.665   3.472 -1.0602 -0.2996 -0.0576
 9266TIP3    H249290   6.121   0.740   3.488 -0.4766  0.4625  1.2454
 9267TIP3   OH249291   5.175   0.375  15.604 -0.4395  0.1761 -0.3987
 9267TIP3    H149292   5.116   0.407  15.537 -0.9985 -1.9464 -1.0018
 9267TIP3    H249293   5.263   0.392  15.569 -0.7219  0.0681 -1.1672
 9268TIP3   OH249294   0.139   6.814  16.111  0.0334  0.2889 -0.2286
 9268TIP3    H149295   0.163   6.855  16.028  0.5783 -2.7473 -1.7073
 9268TIP3    H249296   0.222   6.805  16.158  0.6189 -2.3360 -1.5664
 9269TIP3   OH249297   6.724   6.376   5.990 -0.9246 -0.0073  0.2922
 9269TIP3    H149298   6.780   6.299   5.982  0.5085  1.0943 -0.9332
 9269TIP3    H249299   6.663   6.354   6.061  0.6646 -1.4992  1.2804
 9270TIP3   OH249300   3.176   1.004  12.772 -0.3555  0.3707  0.9355
 9270TIP3    H149301   3.212   1.088  12.744  1.1309  0.3380  2.5268
 9270TIP3    H249302   3.157   0.957  12.691  1.2726  1.2596 -0.0135
 9271TIP3   OH249303   3.720   6.216  12.227 -0.3647  1.0633  0.2432
 9271TIP3    H149304   3.704   6.122  12.232  0.8761  0.8739  1.7072
 9271TIP3    H249305   3.708   6.238  12.135 -2.2406 -0.2005  0.1376
 9272TIP3   OH249306   4.881   0.738  16.133 -0.2653 -0.6814 -0.1259
 9272TIP3    H149307   4.801   0.738  16.187 -1.5415  0.1470 -1.9340
 9272TIP3    H249308   4.907   0.646  16.130 -1.7825 -1.1335 -0.3664
 9273TIP3   OH249309   1.063   6.797   5.001  0.4166 -0.3469 -0.4878
 9273TIP3    H149310   1.122   6.726   4.974 -0.4440 -0.7784 -1.3246
 9273TIP3    H249311   0.987   6.752   5.037  0.3498  0.1932  0.0563
 9274TIP3   OH249312   1.840   0.131   1.815 -0.1986 -0.3814 -0.1603
 9274TIP3    H149313   1.917   0.076   1.821 -0.1488 -0.1505  2.0335
 9274TIP3    H249314   1.770   0.079   1.854 -0.5831  0.3415  0.1410
 9275TIP3   OH249315   3.555   3.798   0.330 -0.5401  0.1738 -0.4936
 9275TIP3    H149316   3.556   3.891   0.307 -1.5610  0.2577 -0.2468
 9275TIP3    H249317   3.535   3.753   0.248 -1.0934  0.2502 -0.4018
 9276TIP3   OH249318   1.604   4.304   1.468  0.1245 -0.5803  0.4100
 9276TIP3    H149319   1.653   4.367   1.521  1.0888 -2.2795  1.6439
 9276TIP3    H249320   1.555   4.358   1.407  0.1419  1.4203  2.0323
 9277TIP3   OH249321   2.772   3.053  14.005 -0.5066 -0.2866  0.1719
 9277TIP3    H149322   2.800   3.136  14.045 -0.8910  0.8487 -1.7994
 9277TIP3    H249323   2.686   3.073  13.967  0.5228 -0.7662 -2.6149
 9278TIP3   OH249324   2.864   2.427   4.646  0.2436  0.4252  0.2574
 9278TIP3    H149325   2.831   2.354   4.698  2.0273  0.3415  1.3788
 9278TIP3    H249326   2.924   2.473   4.705  0.2915  1.9314 -0.8969
 9279TIP3   OH249327   1.485   5.442   3.118 -0.7165  0.0619 -0.7455
 9279TIP3    H149328   1.573   5.467   3.090 -0.5218  2.0307  1.3234
 9279TIP3    H249329   1.493   5.350   3.143  0.8954  0.3148 -0.1847
 9280TIP3   OH249330   5.105   6.705   0.178  0.2388 -0.1600 -0.2863
 9280TIP3    H149331   5.135   6.615   0.189  4.0925  0.8497 -0.8912
 9280TIP3    H249332   5.156   6.738   0.104 -0.8302  2.6058  0.0885
 9281TIP3   OH249333   3.457   0.373   4.674 -0.0417  0.2170  0.4651
 9281TIP3    H149334   3.400   0.331   4.739 -1.3311  1.5682  0.2563
 9281TIP3    H249335   3.420   0.348   4.590  0.0107  0.6439  0.3132
 9282TIP3   OH249336   2.963   6.123  15.757 -0.2540 -0.1528  0.1005
 9282TIP3    H149337   2.974   6.124  15.662 -1.7269  0.9829 -0.0779
 9282TIP3    H249338   2.904   6.195  15.776 -0.9933 -1.1262  1.7575
 9283TIP3   OH249339   2.178   4.420  14.319  0.0999 -0.5004 -0.2266
 9283TIP3    H149340   2.251   4.419  14.257  0.9517 -1.6556  0.7397
 9283TIP3    H249341   2.158   4.513  14.332  0.3896 -0.2183 -1.6408
 9284TIP3   OH249342   6.429   4.703  12.707 -0.2378 -0.2137 -0.3296
 9284TIP3    H149343   6.380   4.638  12.657 -0.7436 -0.0571 -0.0451
 9284TIP3    H249344   6.430   4.669  12.796  1.6204 -1.0568 -0.6119
 9285TIP3   OH249345   6.185   3.256  15.339 -0.4646 -0.3470 -0.6552
 9285TIP3    H149346   6.276   3.285  15.336 -0.8743  1.0950 -0.0802
 9285TIP3    H249347   6.185   3.170  15.297  1.2039 -0.4967 -0.3931
 9286TIP3   OH249348   5.983   2.743  12.732 -0.0132 -0.1824 -0.8805
 9286TIP3    H149349   5.924   2.677  12.768  0.1289  0.2178  0.1180
 9286TIP3    H249350   6.005   2.711  12.645 -0.3312 -1.2106 -0.5956
 9287TIP3   OH249351   1.322   3.010  11.799  0.2907 -0.0683 -0.0054
 9287TIP3    H149352   1.229   3.008  11.820  0.0251  0.0418 -1.0922
 9287TIP3    H249353   1.343   3.104  11.793  0.4125 -0.0948  0.0001
 9288TIP3   OH249354   0.838   3.028   5.069 -0.3785  0.2802 -0.7085
 9288TIP3    H149355   0.750   3.009   5.102  0.5743 -0.9988  1.2292
 9288TIP3    H249356   0.851   3.121   5.090 -0.8297  0.1795  0.0759
 9289TIP3   OH249357   2.386   6.727   3.528  0.2492 -0.3516  0.0666
 9289TIP3    H149358   2.328   6.744   3.454 -0.7536 -1.3553  0.5941
 9289TIP3    H249359   2.417   6.814   3.555 -1.4791  0.2835  0.1313
 9290TIP3   OH249360   2.985   2.795  13.282  0.4018 -0.1306 -0.1981
 9290TIP3    H149361   2.919   2.819  13.346  1.1332 -0.6330  0.7674
 9290TIP3    H249362   2.961   2.707  13.253  0.3269 -0.0834 -0.2800
 9291TIP3   OH249363   4.606   3.401  14.265  0.1350  0.2681  0.0908
 9291TIP3    H149364   4.512   3.398  14.281  0.0338  0.3970 -0.4578
 9291TIP3    H249365   4.615   3.456  14.187  0.5726 -0.6243 -0.5070
 9292TIP3   OH249366   1.997   3.137  14.645  0.0797 -0.0871  0.2898
 9292TIP3    H149367   1.965   3.069  14.704  1.8019  0.0457  1.4665
 9292TIP3    H249368   2.082   3.162  14.681  0.3408  1.3684 -1.1885
 9293TIP3   OH249369   2.233   5.509  11.054  0.5235  0.1052 -0.2910
 9293TIP3    H149370   2.248   5.600  11.029  1.5982  0.0851  0.2556
 9293TIP3    H249371   2.304   5.460  11.013  0.3436 -0.4029 -0.0174
 9294TIP3   OH249372   3.434   0.218  11.922 -0.9217  0.8765 -1.0459
 9294TIP3    H149373   3.427   0.312  11.937  0.9083  0.8491  0.2804
 9294TIP3    H249374   3.494   0.210  11.848  0.4579  0.7488  0.0518
 9295TIP3   OH249375   5.350   6.782   2.677  0.1419  0.3906 -0.1306
 9295TIP3    H149376   5.444   6.797   2.667  0.2874 -0.1960  0.3276
 9295TIP3    H249377   5.321   6.848   2.740  0.0376  1.2589 -1.0575
 9296TIP3   OH249378   4.973   1.512   1.131 -0.5351  0.0910  0.1494
 9296TIP3    H149379   4.929   1.580   1.080 -1.9182 -0.2582  0.8235
 9296TIP3    H249380   5.013   1.558   1.204 -2.1579  0.1178  1.0543
 9297TIP3   OH249381   0.131   3.135   5.800 -0.4047 -0.2283  0.3649
 9297TIP3    H149382   0.043   3.167   5.819  0.0325  0.4973  1.2433
 9297TIP3    H249383   0.146   3.065   5.863 -0.5514 -0.7269 -0.1465
 9298TIP3   OH249384   5.558   3.193  11.075  0.2322  0.0923 -0.7069
 9298TIP3    H149385   5.509   3.112  11.064  2.0651 -1.1894  0.0713
 9298TIP3    H249386   5.602   3.205  10.991 -0.5526  0.6772 -1.0499
 9299TIP3   OH249387   0.764   3.908  12.268  0.2352 -1.3032 -0.2331
 9299TIP3    H149388   0.757   3.844  12.339  0.2755 -2.1728 -0.9975
 9299TIP3    H249389   0.691   3.888  12.210 -0.7070  0.3675  0.2996
 9300TIP3   OH249390   6.214   5.531   3.130  0.5708 -0.4945  0.1976
 9300TIP3    H149391   6.304   5.559   3.114  0.8461 -2.0820 -1.2837
 9300TIP3    H249392   6.216   5.436   3.120 -0.7259 -0.9149  3.0065
 9301TIP3   OH249393   4.004   6.504   2.126  0.6021  0.2728 -0.3922
 9301TIP3    H149394   4.098   6.489   2.123  0.4137 -0.8720 -1.2750
 9301TIP3    H249395   3.985   6.557   2.048  0.7079  1.8627  0.6185
 9302TIP3   OH249396   6.044   2.518   1.278 -0.0992  0.2589  0.1229
 9302TIP3    H149397   6.127   2.563   1.291 -0.0729  0.2569 -0.0415
 9302TIP3    H249398   6.062   2.454   1.210  0.5052 -1.6243  1.9471
 9303TIP3   OH249399   2.214   2.177  12.664 -0.0175 -0.1149 -0.2091
 9303TIP3    H149400   2.216   2.268  12.695  0.0094 -0.0200 -0.4876
 9303TIP3    H249401   2.154   2.179  12.589  1.7902  0.1416 -1.7065
 9304TIP3   OH249402   1.683   2.111   6.421  0.1922  0.4261  0.5900
 9304TIP3    H149403   1.595   2.137   6.394 -0.4236 -1.0934  1.0381
 9304TIP3    H249404   1.683   2.015   6.413  2.1797  0.4751 -0.5020
 9305TIP3   OH249405   1.501   1.969   1.370  0.2781  0.2905  0.2031
 9305TIP3    H149406   1.448   1.891   1.386  0.5011 -0.6028 -2.8189
 9305TIP3    H249407   1.591   1.937   1.366  0.5791  1.0384  0.6836
 9306TIP3   OH249408   5.708   4.529   3.526  0.2266  0.2952 -0.1377
 9306TIP3    H149409   5.780   4.474   3.558  0.1854  0.1715 -0.2578
 9306TIP3    H249410   5.695   4.501   3.436 -2.2177 -2.0689  0.8212
 9307TIP3   OH249411   5.721   1.045   0.442 -0.2284 -0.6273  0.9617
 9307TIP3    H149412   5.672   0.973   0.404  1.7033 -0.3529 -2.4245
 9307TIP3    H249413   5.813   1.018   0.436  0.3715  0.7598  2.7812
 9308TIP3   OH249414   4.018   1.113   4.482 -0.0685  0.1497  0.7782
 9308TIP3    H149415   3.998   1.203   4.458 -1.7449 -1.0012 -2.8504
 9308TIP3    H249416   4.083   1.085   4.417 -2.9419 -2.4792 -1.2213
 9309TIP3   OH249417   6.397   0.564  14.716 -0.1954  0.1942 -0.2163
 9309TIP3    H149418   6.366   0.474  14.707 -0.5435  0.0694  1.8129
 9309TIP3    H249419   6.467   0.559  14.781  0.3521  1.2813 -0.6857
 9310TIP3   OH249420   1.601   2.436   4.073 -0.7722  0.2795  0.7585
 9310TIP3    H149421   1.613   2.458   4.166 -0.5893 -0.7537  0.9854
 9310TIP3    H249422   1.524   2.379   4.072  0.6913 -1.8032  0.6140
 9311TIP3   OH249423   6.714   0.004   3.392 -0.3885  0.5297  0.5664
 9311TIP3    H149424   6.649   0.015   3.461 -0.0392 -1.3186  1.2508
 9311TIP3    H249425   6.797   0.027   3.433  0.0197 -1.9141  1.2868
 9312TIP3   OH249426   5.241   1.617   0.379  0.0929 -0.4141  0.7306
 9312TIP3    H149427   5.288   1.665   0.447  2.4284 -1.4453 -0.0411
 9312TIP3    H249428   5.247   1.672   0.301  4.0330 -2.2755 -0.5551
 9313TIP3   OH249429   1.236   4.900  13.155 -0.1465  0.3473 -0.3339
 9313TIP3    H149430   1.152   4.898  13.109 -0.0371 -0.1998 -0.5210
 9313TIP3    H249431   1.216   4.865  13.242  0.1650 -1.2400 -0.8704
 9314TIP3   OH249432   2.361   2.072   6.122  0.0405  0.2773 -0.3630
 9314TIP3    H149433   2.287   2.129   6.141  0.6289  1.3221 -1.1400
 9314TIP3    H249434   2.332   1.985   6.151 -0.6658  1.0322  1.3141
 9315TIP3   OH249435   4.225   0.174   3.867 -0.6782  0.1856  0.1177
 9315TIP3    H149436   4.287   0.239   3.900 -0.2048 -0.7421  1.1214
 9315TIP3    H249437   4.142   0.221   3.861 -0.4027  0.8265  1.0778
 9316TIP3   OH249438   0.565   5.534   0.581  0.3507 -0.4088 -0.2658
 9316TIP3    H149439   0.493   5.478   0.552 -0.5973  0.2812  0.6536
 9316TIP3    H249440   0.525   5.592   0.646  2.0122 -0.8147  1.2018
 9317TIP3   OH249441   5.897   4.191  16.890 -0.6426 -0.0201 -0.1692
 9317TIP3    H149442   5.861   4.137  16.960 -0.9544 -0.3367 -0.5686
 9317TIP3    H249443   5.969   4.138  16.854  1.3580  1.2739  1.6852
 9318TIP3   OH249444   2.232   3.364  17.034  0.5740 -0.2546 -0.6315
 9318TIP3    H149445   2.222   3.287  17.090 -1.1371  0.2410 -0.2034
 9318TIP3    H249446   2.233   3.329  16.945 -2.4725 -0.6785 -0.5906
 9319TIP3   OH249447   2.507   2.496  12.498  0.4081 -0.1042 -0.2182
 9319TIP3    H149448   2.530   2.527  12.411  1.6880 -1.0742 -0.2435
 9319TIP3    H249449   2.411   2.491  12.497  0.3635  0.6942 -1.2718
 9320TIP3   OH249450   6.667   1.076   3.849 -0.6707  0.8244 -0.3701
 9320TIP3    H149451   6.729   1.128   3.901  0.5735 -1.6397  0.7770
 9320TIP3    H249452   6.671   0.989   3.887 -2.4496 -0.2285 -2.3792
 9321TIP3   OH249453   5.500   4.156   5.509 -0.4986  0.0692 -0.2464
 9321TIP3    H149454   5.428   4.094   5.501 -0.0225 -0.4029 -0.9127
 9321TIP3    H249455   5.496   4.184   5.601 -1.5553  0.0939 -0.2854
 9322TIP3   OH249456   0.633   0.637   2.192 -0.2663  0.3981  0.2024
 9322TIP3    H149457   0.672   0.714   2.233  0.2470 -0.2684  1.0011
 9322TIP3    H249458   0.673   0.563   2.237 -0.8570 -0.3394 -0.4523
 9323TIP3   OH249459   3.091   3.389  11.996 -0.1314  0.3106 -0.3885
 9323TIP3    H149460   3.073   3.359  11.907 -1.7363  1.3814 -0.4711
 9323TIP3    H249461   3.169   3.444  11.988  0.7061 -0.8991 -0.8227
 9324TIP3   OH249462   1.588   0.640  15.397  0.0517  0.6935  0.1806
 9324TIP3    H149463   1.514   0.625  15.456 -0.5930 -0.9095 -0.9453
 9324TIP3    H249464   1.582   0.733  15.374 -1.5355  0.6349  0.2348
 9325TIP3   OH249465   4.817   6.684  11.726  0.0374  0.2818  0.0881
 9325TIP3    H149466   4.894   6.658  11.776  0.0284  0.0841  0.0017
 9325TIP3    H249467   4.751   6.618  11.748  0.6477 -1.0444 -1.7573
 9326TIP3   OH249468   3.572   4.065   0.228  0.0281 -0.3728 -0.3140
 9326TIP3    H149469   3.524   4.139   0.265 -0.4601 -1.6382  1.7159
 9326TIP3    H249470   3.527   4.046   0.145 -2.5469 -0.9968  1.1340
 9327TIP3   OH249471   5.518   2.660   0.925  0.2408  0.6192  0.0363
 9327TIP3    H149472   5.472   2.628   1.003  0.9153  0.8112  0.5164
 9327TIP3    H249473   5.463   2.732   0.894 -0.1513  0.3966  0.1950
 9328TIP3   OH249474   5.462   5.938  16.001 -0.0779 -0.5704 -0.2090
 9328TIP3    H149475   5.461   6.014  15.942  1.8978 -0.1801  0.1901
 9328TIP3    H249476   5.437   5.865  15.945 -2.3558  0.3656 -0.5358
 9329TIP3   OH249477   5.896   6.524   3.675 -0.2897 -0.4951 -0.1016
 9329TIP3    H149478   5.810   6.488   3.656 -0.9718  1.7842 -1.7418
 9329TIP3    H249479   5.950   6.500   3.600 -0.8705  2.0986 -1.4225
 9330TIP3   OH249480   1.194   2.670   0.736  0.2726  0.4377 -0.0616
 9330TIP3    H149481   1.251   2.723   0.792  0.9812 -0.2155 -0.1389
 9330TIP3    H249482   1.118   2.725   0.720  0.0287  0.6209  1.5735
 9331TIP3   OH249483   3.785   6.724   1.732 -0.0461 -0.1559  0.0635
 9331TIP3    H149484   3.774   6.806   1.683  3.0959  0.0185 -0.5205
 9331TIP3    H249485   3.736   6.660   1.680 -1.4404  1.0425 -0.1911
 9332TIP3   OH249486   3.466   2.669  16.965  0.1479  0.0926 -0.4657
 9332TIP3    H149487   3.446   2.672  17.059  0.4833 -0.4080 -0.3743
 9332TIP3    H249488   3.465   2.761  16.938  0.5926  0.2849  0.1468
 9333TIP3   OH249489   0.548   5.510  14.365  0.6785  0.3266 -0.4823
 9333TIP3    H149490   0.624   5.547  14.319  0.5535 -0.1402 -1.0798
 9333TIP3    H249491   0.524   5.433  14.313  0.1787  0.1146  0.0540
 9334TIP3   OH249492   0.423   2.320  16.467  0.1194  0.5043 -0.2967
 9334TIP3    H149493   0.327   2.326  16.464  0.1018  0.3981 -0.0178
 9334TIP3    H249494   0.452   2.351  16.381 -0.2009 -0.2393 -0.6788
 9335TIP3   OH249495   3.315   2.467  15.071 -0.1737  0.0491  0.3060
 9335TIP3    H149496   3.220   2.468  15.057 -0.0073  1.3791 -1.0058
 9335TIP3    H249497   3.348   2.410  15.001  0.0532  0.2351  0.2608
 9336TIP3   OH249498   6.270   6.193  12.015  0.1786 -0.1263 -0.4302
 9336TIP3    H149499   6.236   6.230  11.933 -0.5912  2.5569  0.9837
 9336TIP3    H249500   6.192   6.182  12.070  1.0219  3.3159  1.8144
 9337TIP3   OH249501   6.029   6.590  11.280  0.1000  0.3490  0.0565
 9337TIP3    H149502   6.002   6.681  11.295  0.5858  0.5142 -0.0778
 9337TIP3    H249503   5.947   6.541  11.285 -0.5200  1.0548 -2.1489
 9338TIP3   OH249504   6.072   5.942   5.963  0.4163  0.1765  0.0121
 9338TIP3    H149505   6.159   5.926   5.999 -0.2539  0.1043  1.6774
 9338TIP3    H249506   6.023   5.862   5.980 -0.3072  0.6328  0.1358
 9339TIP3   OH249507   6.558   1.837   4.583 -0.8320  0.5141 -0.5908
 9339TIP3    H149508   6.549   1.755   4.632  1.1303  0.1486 -0.7382
 9339TIP3    H249509   6.504   1.900   4.631  0.2374 -0.0750  1.5158
 9340TIP3   OH249510   6.339   1.785  15.020  0.1707  0.8025 -0.0754
 9340TIP3    H149511   6.345   1.716  14.954 -1.5728 -1.8023  2.2608
 9340TIP3    H249512   6.309   1.740  15.099 -0.1863  4.1355  1.8680
 9341TIP3   OH249513   3.290   5.071   2.155 -0.2996 -0.3301  0.2597
 9341TIP3    H149514   3.232   5.145   2.140 -0.8080 -0.6516  0.5925
 9341TIP3    H249515   3.248   4.998   2.108  0.7573 -0.1739 -0.9757
 9342TIP3   OH249516   6.075   5.314  14.775  0.2975 -0.1415 -0.2382
 9342TIP3    H149517   6.123   5.288  14.696 -1.3256 -1.0870 -0.9845
 9342TIP3    H249518   6.108   5.256  14.844  1.3828  0.3646 -0.3053
 9343TIP3   OH249519   3.007   3.971  11.395  0.9202  0.7711  0.3471
 9343TIP3    H149520   3.087   3.949  11.347  0.3750  0.2688 -0.3505
 9343TIP3    H249521   2.967   4.042  11.345 -0.2610 -0.5468 -0.6525
 9344TIP3   OH249522   6.428   0.908  15.460  0.0507 -0.2475  0.1574
 9344TIP3    H149523   6.339   0.916  15.426  0.3129 -3.4527 -1.6517
 9344TIP3    H249524   6.483   0.950  15.394  0.1180 -1.2006 -0.3967
 9345TIP3   OH249525   1.721   5.141  12.533  0.0221  0.1407  0.0324
 9345TIP3    H149526   1.721   5.079  12.460  0.0542  0.7764 -0.5184
 9345TIP3    H249527   1.630   5.171  12.541 -0.2344 -0.8270  1.0544
 9346TIP3   OH249528   1.611   2.951   3.697  0.4282 -0.3910  0.2390
 9346TIP3    H149529   1.525   2.930   3.659  2.3066 -3.1080 -3.0618
 9346TIP3    H249530   1.621   2.887   3.768  1.7078 -4.0594 -2.8977
 9347TIP3   OH249531   0.317   3.766   4.091  0.9081  0.1832 -0.1313
 9347TIP3    H149532   0.399   3.777   4.139  0.3727  1.0447  0.6206
 9347TIP3    H249533   0.252   3.746   4.158  0.6481 -1.4450 -0.8170
 9348TIP3   OH249534   3.573   5.269   6.022 -0.2236 -0.3496  0.1491
 9348TIP3    H149535   3.552   5.201   6.086  0.4284 -0.8325 -0.1492
 9348TIP3    H249536   3.667   5.284   6.032 -0.0887 -0.5180 -0.7828
 9349TIP3   OH249537   4.075   5.186  11.603  0.7765  0.2710  0.5919
 9349TIP3    H149538   4.134   5.168  11.530  1.5526  2.2951  0.6459
 9349TIP3    H249539   4.114   5.142  11.678  0.5571 -0.9124  0.0265
 9350TIP3   OH249540   4.960   0.191   5.140 -0.1037  0.1240 -0.0056
 9350TIP3    H149541   4.922   0.179   5.226 -0.1101 -1.2656 -0.1889
 9350TIP3    H249542   5.035   0.249   5.154 -1.4981  1.8746  0.5423
 9351TIP3   OH249543   6.292   6.767   3.161  0.0579  0.0901 -0.0120
 9351TIP3    H149544   6.331   6.779   3.248 -3.2690 -0.6535  1.7337
 9351TIP3    H249545   6.297   6.673   3.145 -1.6904 -0.1379  0.6380
 9352TIP3   OH249546   5.714   4.730   0.268 -0.3342  0.2662  0.1882
 9352TIP3    H149547   5.790   4.745   0.211 -0.5061  0.1954 -0.0644
 9352TIP3    H249548   5.651   4.686   0.211 -0.4685  0.0993  0.4664
 9353TIP3   OH249549   0.839   4.049   4.985 -0.7462  0.2321  0.0339
 9353TIP3    H149550   0.867   4.080   5.071 -2.1925  0.8459  0.3219
 9353TIP3    H249551   0.904   4.083   4.924 -0.0110  0.2624  0.8117
 9354TIP3   OH249552   6.247   4.961   5.285 -0.1869  0.1236 -0.2970
 9354TIP3    H149553   6.246   4.966   5.189  0.8197 -0.2025 -0.3410
 9354TIP3    H249554   6.243   5.052   5.314 -2.0582  0.1696 -0.5943
 9355TIP3   OH249555   3.309   4.647  16.299 -0.0520 -0.3244 -0.2386
 9355TIP3    H149556   3.220   4.615  16.289  0.4542 -1.6166 -0.8871
 9355TIP3    H249557   3.326   4.641  16.393  0.0041 -2.0133 -0.3222
 9356TIP3   OH249558   2.611   0.861  11.681 -0.5218  0.4959 -0.1666
 9356TIP3    H149559   2.569   0.947  11.687 -1.9404 -0.2283  0.7639
 9356TIP3    H249560   2.612   0.829  11.771 -0.9674 -0.8921 -0.6365
 9357TIP3   OH249561   5.078   5.751   2.712  0.8449 -0.5303 -0.6439
 9357TIP3    H149562   5.097   5.702   2.791 -0.1028  0.7121  0.4053
 9357TIP3    H249563   5.138   5.716   2.646  2.2143 -1.0547  0.8195
 9358TIP3   OH249564   2.659   3.522  11.800  0.5081  0.0386 -0.1445
 9358TIP3    H149565   2.660   3.542  11.706  0.6639 -1.7682 -0.5788
 9358TIP3    H249566   2.745   3.484  11.817 -0.0314 -0.9901  0.3900
 9359TIP3   OH249567   5.457   4.299   6.775 -0.1779 -0.3139  0.2340
 9359TIP3    H149568   5.392   4.326   6.710  0.1442 -0.2070 -0.0470
 9359TIP3    H249569   5.486   4.213   6.745  0.1115 -0.1800  0.1297
 9360TIP3   OH249570   5.956   2.312  15.371  0.0547  0.1636  0.0610
 9360TIP3    H149571   5.891   2.250  15.404 -0.4509  0.1610 -0.8947
 9360TIP3    H249572   5.908   2.392  15.353  0.5235  0.5191  0.3644
 9361TIP3   OH249573   6.041   2.198  12.156  0.3266 -0.4017  0.2775
 9361TIP3    H149574   6.103   2.132  12.184  0.4182  0.4661  2.2970
 9361TIP3    H249575   5.955   2.162  12.178  0.3081 -0.2839  0.3962
 9362TIP3   OH249576   2.594   4.494  13.045 -0.0003  0.0010  0.0126
 9362TIP3    H149577   2.521   4.530  12.994  0.0455  0.1527  0.0527
 9362TIP3    H249578   2.639   4.571  13.079 -0.3147 -0.1046  0.6830
 9363TIP3   OH249579   1.098   3.764   1.565 -0.2410 -0.3243 -0.0343
 9363TIP3    H149580   1.082   3.670   1.553  1.4400 -0.5479 -0.7656
 9363TIP3    H249581   1.156   3.788   1.493 -0.9377  1.3804 -0.0800
 9364TIP3   OH249582   5.844   0.110   3.535 -0.4514 -0.6590 -0.6146
 9364TIP3    H149583   5.789   0.046   3.579  0.9573 -1.5279 -0.0524
 9364TIP3    H249584   5.872   0.067   3.455 -1.1815  0.0659 -1.2770
 9365TIP3   OH249585   0.821   3.028   1.792  0.1307  0.4607 -0.6090
 9365TIP3    H149586   0.763   3.073   1.731  1.2360  0.9759 -1.2919
 9365TIP3    H249587   0.840   2.944   1.750  0.8093  0.7725 -0.9307
 9366TIP3   OH249588   2.069   3.927   3.487  0.0137  0.2664 -0.6797
 9366TIP3    H149589   2.052   3.841   3.449  1.6116 -0.6802  0.5738
 9366TIP3    H249590   2.129   3.909   3.560 -0.2240  2.3659  0.1043
 9367TIP3   OH249591   6.401   5.966  11.914 -0.1511 -0.2729 -0.1293
 9367TIP3    H149592   6.490   5.960  11.951 -0.1727  0.6084  0.0767
 9367TIP3    H249593   6.369   6.052  11.941 -0.4005  0.1610 -1.7155
 9368TIP3   OH249594   6.321   2.391  14.587  1.1517  0.9177  0.8785
 9368TIP3    H149595   6.245   2.342  14.617  0.3297  2.5741  1.5983
 9368TIP3    H249596   6.366   2.331  14.528 -0.1445 -0.4634  1.2372
 9369TIP3   OH249597   5.503   0.349  13.180  0.0032 -0.2556  0.5204
 9369TIP3    H149598   5.463   0.399  13.110 -0.5024 -0.2514  0.8071
 9369TIP3    H249599   5.586   0.317  13.143 -0.1393 -0.0413  0.0136
 9370TIP3   OH249600   5.448   5.434  14.391 -0.1797 -0.1374 -0.3907
 9370TIP3    H149601   5.467   5.483  14.311 -1.8482 -2.0373 -2.0827
 9370TIP3    H249602   5.521   5.372  14.399  0.5323  0.7644  0.1877
 9371TIP3   OH249603   6.116   4.334   0.972 -0.1729 -0.0499 -0.3569
 9371TIP3    H149604   6.021   4.348   0.971 -0.1881  0.6307  2.7948
 9371TIP3    H249605   6.153   4.422   0.969  0.2760 -0.1881  0.9057
 9372TIP3   OH249606   1.205   4.031   4.466  0.1371  0.0214 -0.7391
 9372TIP3    H149607   1.232   4.113   4.506  1.9723 -0.1248 -1.5874
 9372TIP3    H249608   1.114   4.019   4.495  0.4417  1.3681  0.9479
 9373TIP3   OH249609   5.189   3.819  12.333 -0.0998  0.5894 -0.9726
 9373TIP3    H149610   5.207   3.794  12.424  0.8766 -1.7056 -1.7252
 9373TIP3    H249611   5.100   3.854  12.336 -1.8527 -3.3451  0.3090
 9374TIP3   OH249612   6.175   3.966  16.360  0.1560  0.4481  0.6224
 9374TIP3    H149613   6.089   3.955  16.400 -0.0835  0.7770  0.1981
 9374TIP3    H249614   6.162   3.941  16.268  0.5298  0.4165  0.5763
 9375TIP3   OH249615   0.506   4.084   2.373 -0.1610 -0.0322 -0.1032
 9375TIP3    H149616   0.452   4.162   2.366 -0.0588  0.0405 -0.0957
 9375TIP3    H249617   0.592   4.117   2.400 -0.3019 -0.2113  0.5808
 9376TIP3   OH249618   0.163   5.270   1.673  0.1021 -0.0657 -0.1833
 9376TIP3    H149619   0.101   5.256   1.744  2.1322  0.6311  1.8406
 9376TIP3    H249620   0.134   5.351   1.631 -1.0189 -0.3850 -0.0572
 9377TIP3   OH249621   0.789   4.457   6.438 -0.0371  0.4441 -0.0673
 9377TIP3    H149622   0.747   4.541   6.454 -0.2011  0.6426 -1.4539
 9377TIP3    H249623   0.879   4.468   6.469  0.3417  1.5901 -1.5025
 9378TIP3   OH249624   1.036   3.114  15.264 -0.5194  0.4817  0.0677
 9378TIP3    H149625   1.013   3.207  15.275 -0.2070  0.5457  0.2157
 9378TIP3    H249626   0.968   3.078  15.208 -2.0772  0.2206  2.0058
 9379TIP3   OH249627   1.863   3.025   0.816 -0.4221  0.5923  0.0650
 9379TIP3    H149628   1.954   3.006   0.795 -0.2372  1.1156  0.3791
 9379TIP3    H249629   1.853   3.000   0.908 -0.7133  0.1334 -0.0856
 9380TIP3   OH249630   4.373   1.893   2.084 -0.1562 -0.1264  0.1779
 9380TIP3    H149631   4.444   1.952   2.058 -0.6986  0.0757 -0.9031
 9380TIP3    H249632   4.374   1.824   2.018 -0.8517 -0.2130  0.2519
 9381TIP3   OH249633   2.616   0.877   3.765 -0.0653 -0.2027  1.0476
 9381TIP3    H149634   2.556   0.919   3.826  0.8614  0.2450  1.6718
 9381TIP3    H249635   2.689   0.938   3.757  0.6999 -1.1029  0.9544
 9382TIP3   OH249636   6.210   2.859  11.252  0.3427  0.0103 -0.1442
 9382TIP3    H149637   6.199   2.954  11.247 -2.0441 -0.2451 -1.1034
 9382TIP3    H249638   6.185   2.827  11.165  1.0987 -1.5131  0.1602
 9383TIP3   OH249639   5.095   3.804  14.998  0.2310 -0.4610  0.0540
 9383TIP3    H149640   5.078   3.711  14.983  0.6759 -0.3523 -1.2077
 9383TIP3    H249641   5.180   3.820  14.959  0.2059  0.4660  0.3418
 9384TIP3   OH249642   6.357   4.337   1.669 -0.0086  0.4507 -0.6059
 9384TIP3    H149643   6.299   4.373   1.736 -0.8137 -2.4197  0.3999
 9384TIP3    H249644   6.305   4.337   1.589 -0.7634 -0.3567 -0.1356
 9385TIP3   OH249645   6.162   2.266   3.689 -0.6025 -0.0923  0.1554
 9385TIP3    H149646   6.216   2.336   3.726 -1.1228  1.6600 -2.2148
 9385TIP3    H249647   6.211   2.235   3.613 -2.2106  0.5609 -1.2129
 9386TIP3   OH249648   2.502   2.207  12.543  0.3989  0.7420  0.3150
 9386TIP3    H149649   2.526   2.181  12.632  0.2917  2.2947  0.8216
 9386TIP3    H249650   2.530   2.298  12.535 -0.8835  1.0825 -0.7523
 9387TIP3   OH249651   2.510   4.464   4.946 -0.4614  0.4210  0.3898
 9387TIP3    H149652   2.566   4.542   4.940 -1.4721  1.2078  0.8028
 9387TIP3    H249653   2.527   4.429   5.033 -1.7956  1.6355  1.1903
 9388TIP3   OH249654   2.300   6.188   4.635  0.0490 -0.3211  0.1782
 9388TIP3    H149655   2.271   6.098   4.652  3.5556 -1.4523  0.8899
 9388TIP3    H249656   2.320   6.225   4.721 -0.1354  0.7047 -0.2011
 9389TIP3   OH249657   6.370   1.440  11.466 -0.2865  0.1258  0.2790
 9389TIP3    H149658   6.431   1.513  11.457  0.4494 -0.5821 -0.5046
 9389TIP3    H249659   6.425   1.364  11.483 -1.0901 -0.1620  1.7704
 9390TIP3   OH249660   0.584   4.413   2.770 -0.0296  0.1575  0.0493
 9390TIP3    H149661   0.497   4.425   2.806 -0.0683  0.9883 -0.2830
 9390TIP3    H249662   0.618   4.334   2.813 -0.5853  0.3532  0.8743
 9391TIP3   OH249663   3.331   2.016  15.545  0.5555 -0.6098 -0.1363
 9391TIP3    H149664   3.411   2.063  15.523  1.0978 -1.6683 -0.4655
 9391TIP3    H249665   3.330   2.013  15.641  0.6710 -0.2001 -0.1208
 9392TIP3   OH249666   0.950   4.308   1.382 -0.0386  0.5947  0.4129
 9392TIP3    H149667   0.940   4.249   1.456  0.5126  0.4305  0.3598
 9392TIP3    H249668   0.897   4.385   1.404  0.8060  0.9242  1.3714
 9393TIP3   OH249669   3.272   2.509  12.881  0.1875 -0.5436  0.2798
 9393TIP3    H149670   3.228   2.542  12.803 -1.9146  1.2277  2.0520
 9393TIP3    H249671   3.362   2.541  12.874 -0.6001  1.7121 -0.2974
 9394TIP3   OH249672   4.316   2.138   1.274  0.2923 -0.4279 -0.3028
 9394TIP3    H149673   4.298   2.215   1.329 -0.0344 -0.1179 -0.8304
 9394TIP3    H249674   4.288   2.064   1.327  1.4566 -0.2748  0.5887
 9395TIP3   OH249675   0.246   1.597   3.232  0.3901  0.5908  0.6306
 9395TIP3    H149676   0.179   1.558   3.175 -0.1944 -1.2512  2.4443
 9395TIP3    H249677   0.205   1.599   3.319  2.5301 -0.2640  1.7435
 9396TIP3   OH249678   0.973   1.074  14.019 -0.0528 -0.5470 -0.8037
 9396TIP3    H149679   1.052   1.042  13.976 -0.7263 -0.7529 -1.9426
 9396TIP3    H249680   0.957   1.159  13.979  0.2140  0.0163  0.2495
 9397TIP3   OH249681   3.624   2.388  10.985 -0.0025  0.2389  0.5921
 9397TIP3    H149682   3.541   2.407  10.941  0.9250  1.3894 -0.7173
 9397TIP3    H249683   3.667   2.324  10.928  0.8882  1.1885  0.1660
 9398TIP3   OH249684   6.671   5.118   4.049  0.1500  0.7493 -0.5030
 9398TIP3    H149685   6.696   5.208   4.070 -0.5634  0.6167  1.0218
 9398TIP3    H249686   6.577   5.122   4.034 -0.3158 -0.0694  1.8081
 9399TIP3   OH249687   6.286   2.813   5.982  0.5497  0.4697 -0.0174
 9399TIP3    H149688   6.354   2.773   5.928 -1.0669 -2.6492  0.0531
 9399TIP3    H249689   6.227   2.855   5.920  0.5752 -0.0672 -0.4141
 9400TIP3   OH249690   6.666   3.791   0.653 -0.5195  0.2195 -0.2486
 9400TIP3    H149691   6.734   3.857   0.666  1.0849 -1.2336 -0.8110
 9400TIP3    H249692   6.710   3.722   0.602 -1.5563 -2.1205  1.8368
 9401TIP3   OH249693   0.359   0.172  10.926 -0.9588  0.0385 -0.1358
 9401TIP3    H149694   0.425   0.237  10.900 -2.2341  1.1103 -0.8002
 9401TIP3    H249695   0.398   0.128  11.002  0.5926  0.5154 -0.6123
 9402TIP3   OH249696   4.979   4.960  11.083 -0.5276 -0.0821 -0.3232
 9402TIP3    H149697   4.941   5.006  11.158 -0.0774 -0.3730  0.0843
 9402TIP3    H249698   5.068   4.994  11.076 -0.5911 -0.0025 -0.7725
 9403TIP3   OH249699   6.518   3.369   0.445  0.5498  0.1362  0.1056
 9403TIP3    H149700   6.592   3.354   0.504  1.0674 -0.8518 -0.7583
 9403TIP3    H249701   6.446   3.321   0.485  1.0486 -1.0172 -0.3314
 9404TIP3   OH249702   4.637   3.209  14.041 -0.1327  0.1439  0.1831
 9404TIP3    H149703   4.583   3.262  14.100 -1.1194  1.3334 -1.7154
 9404TIP3    H249704   4.581   3.191  13.966  0.4741 -2.9260  0.3386
 9405TIP3   OH249705   0.558   0.418  13.459  0.1216  0.1629  0.3058
 9405TIP3    H149706   0.511   0.394  13.379 -0.4538 -0.2567  0.7680
 9405TIP3    H249707   0.582   0.510  13.446 -0.6000  0.3060 -0.0432
 9406TIP3   OH249708   4.788   6.237   4.866  0.1914 -0.0563 -0.0039
 9406TIP3    H149709   4.851   6.174   4.829  0.5499  0.5200 -0.3849
 9406TIP3    H249710   4.730   6.257   4.793 -1.2674 -1.5760  0.6738
 9407TIP3   OH249711   3.427   2.430   2.771 -0.0465 -0.4849  0.1207
 9407TIP3    H149712   3.495   2.493   2.751  0.5159 -0.9054  0.6787
 9407TIP3    H249713   3.457   2.349   2.730 -0.6571 -0.4525 -0.4056
 9408TIP3   OH249714   1.577   6.065  16.573  0.5652  0.0588  0.4564
 9408TIP3    H149715   1.555   6.127  16.643  0.1969 -0.6540  0.9780
 9408TIP3    H249716   1.493   6.031  16.543  0.6713  0.7734 -0.7438
 9409TIP3   OH249717   3.930   4.330  16.815  0.2561  0.1743  0.3959
 9409TIP3    H149718   4.025   4.325  16.814  0.2554  0.1800  0.2913
 9409TIP3    H249719   3.905   4.332  16.722  0.3139  3.1892  0.3529
 9410TIP3   OH249720   5.276   5.512   3.696  0.4716 -0.4794 -0.0561
 9410TIP3    H149721   5.234   5.428   3.717 -1.4228 -0.1848 -2.1893
 9410TIP3    H249722   5.205   5.575   3.697  1.6730  0.9191  0.3767
 9411TIP3   OH249723   5.290   5.623   1.029  0.0244  0.1228  0.3444
 9411TIP3    H149724   5.370   5.571   1.022  2.0531  3.2010 -3.6839
 9411TIP3    H249725   5.231   5.584   0.963  0.5865  1.2951 -0.8934
 9412TIP3   OH249726   3.189   5.667  14.911 -0.3241 -0.0889 -0.0174
 9412TIP3    H149727   3.145   5.591  14.950 -0.3148 -0.1067 -0.0415
 9412TIP3    H249728   3.198   5.729  14.984 -0.2957 -0.1272  0.0120
 9413TIP3   OH249729   2.671   2.879  16.849  0.3616  0.1165 -0.2837
 9413TIP3    H149730   2.726   2.948  16.813  0.6899  0.6442  1.1875
 9413TIP3    H249731   2.658   2.903  16.941 -1.4065 -0.5869 -0.3129
 9414TIP3   OH249732   1.152   5.118   5.264 -0.2370 -0.2728  0.0265
 9414TIP3    H149733   1.121   5.032   5.290  1.2548 -0.7016  0.5036
 9414TIP3    H249734   1.157   5.114   5.168 -2.2592  0.0709 -0.1388
 9415TIP3   OH249735   2.101   6.775   4.073 -0.5174 -0.0730 -0.3482
 9415TIP3    H149736   2.088   6.786   4.167  0.1847  0.4475 -0.3023
 9415TIP3    H249737   2.194   6.792   4.059 -0.7715  0.6785 -1.2524
 9416TIP3   OH249738   5.802   1.546  15.680 -0.3397  0.1220  0.3518
 9416TIP3    H149739   5.807   1.637  15.649 -1.1799  0.2315  0.4943
 9416TIP3    H249740   5.722   1.512  15.640  0.6501 -0.9888 -0.7712
 9417TIP3   OH249741   3.781   4.256  14.283  0.2136 -0.0547 -0.8606
 9417TIP3    H149742   3.813   4.166  14.279 -1.9707 -0.9227 -0.3530
 9417TIP3    H249743   3.751   4.275  14.194  2.2574  0.8745 -1.4182
 9418TIP3   OH249744   1.374   4.382   1.797  0.1818 -0.4605 -0.1694
 9418TIP3    H149745   1.406   4.465   1.833 -1.5053  0.3206 -0.3675
 9418TIP3    H249746   1.451   4.326   1.794  1.4926  1.2716 -0.5404
 9419TIP3   OH249747   2.413   2.570  14.313  0.3453  0.1322 -0.5126
 9419TIP3    H149748   2.348   2.575  14.383  1.3808 -0.4769  0.5223
 9419TIP3    H249749   2.493   2.603  14.352  1.1159 -0.8689 -1.1787
 9420TIP3   OH249750   5.266   2.417  11.971 -0.0347  0.2093 -0.4784
 9420TIP3    H149751   5.267   2.382  11.882  0.6275  0.4778 -0.5760
 9420TIP3    H249752   5.294   2.507  11.962  0.8070  0.0105  0.0996
 9421TIP3   OH249753   4.336   1.879   2.355 -0.2277 -0.6291  0.8522
 9421TIP3    H149754   4.282   1.954   2.381  0.6322 -0.1889  1.4074
 9421TIP3    H249755   4.344   1.888   2.260 -0.3745 -0.1765  0.8764
 9422TIP3   OH249756   1.451   6.272  15.689 -1.1902 -0.5251  0.3024
 9422TIP3    H149757   1.528   6.317  15.725  0.4634 -2.9721  0.0120
 9422TIP3    H249758   1.396   6.343  15.654  1.2933  1.2748 -0.1899
 9423TIP3   OH249759   0.825   5.502   0.646 -0.1560 -0.3874  0.1758
 9423TIP3    H149760   0.837   5.461   0.560 -0.1946  2.0561 -1.0916
 9423TIP3    H249761   0.739   5.544   0.641  0.5455  1.2058  0.7250
 9424TIP3   OH249762   5.417   0.515  16.244 -0.2063 -0.0646 -0.0524
 9424TIP3    H149763   5.345   0.546  16.299 -1.9023 -3.1455 -0.2982
 9424TIP3    H249764   5.483   0.485  16.307  0.7260  2.2975  0.1774
 9425TIP3   OH249765   6.603   2.037  10.303  0.3765  0.3780 -0.3402
 9425TIP3    H149766   6.570   1.962  10.253  1.0719 -0.6433  0.6649
 9425TIP3    H249767   6.645   2.093  10.238  2.4716 -1.5688 -0.8011
 9426TIP3   OH249768   0.013   2.128  10.606  0.2490  0.1979  0.7916
 9426TIP3    H149769   0.013   2.206  10.663  0.4431  0.5432  0.3264
 9426TIP3    H249770   0.076   2.149  10.537 -0.4072  0.0183  0.1248
 9427TIP3   OH249771   1.231   4.830  13.817 -0.0820  0.3867 -0.3334
 9427TIP3    H149772   1.157   4.770  13.814 -1.7018  2.0540  2.1725
 9427TIP3    H249773   1.213   4.895  13.750 -0.2463  0.1285 -0.5413
 9428TIP3   OH249774   3.028   5.934   0.345  0.2584 -0.1478  0.4825
 9428TIP3    H149775   3.021   6.026   0.320 -1.2693 -0.8376 -1.9624
 9428TIP3    H249776   3.113   5.907   0.311  0.3191  0.1502  0.3880
 9429TIP3   OH249777   2.698   4.576   2.095  0.3477 -0.0852  0.1603
 9429TIP3    H149778   2.766   4.543   2.154 -2.3109  0.2612  3.7739
 9429TIP3    H249779   2.702   4.671   2.104  0.4502  0.0206 -0.9191
 9430TIP3   OH249780   0.426   0.519  15.188 -0.0472  0.4014  0.1531
 9430TIP3    H149781   0.378   0.597  15.214 -0.9318  0.1510 -0.6908
 9430TIP3    H249782   0.379   0.485  15.112 -0.9574 -2.1329  1.7232
 9431TIP3   OH249783   3.556   0.005  13.582 -0.1671 -0.1066  0.4434
 9431TIP3    H149784   3.618  -0.033  13.645  0.9205  0.5042 -0.2147
 9431TIP3    H249785   3.527  -0.069  13.529  1.2943 -0.1838 -0.3009
 9432TIP3   OH249786   3.315   3.093  16.373  0.0457  0.6486 -0.1551
 9432TIP3    H149787   3.350   3.098  16.462 -1.2859  0.5219  0.4081
 9432TIP3    H249788   3.382   3.046  16.324  0.8618  0.8242  0.7537
 9433TIP3   OH249789   5.378   3.665  15.883 -0.2048 -0.1642  0.4987
 9433TIP3    H149790   5.365   3.608  15.959  0.9529  1.2622  1.8214
 9433TIP3    H249791   5.291   3.672  15.844 -0.5232 -2.1794  0.7357
 9434TIP3   OH249792   4.678   1.529  11.196 -0.4766 -0.1227 -0.0737
 9434TIP3    H149793   4.609   1.473  11.232  0.6143 -0.2298  2.0405
 9434TIP3    H249794   4.648   1.618  11.212 -0.3487 -0.1667  0.4442
 9435TIP3   OH249795   4.839   3.905  14.946 -0.6759  0.6257  0.8565
 9435TIP3    H149796   4.771   3.845  14.976  1.1386 -0.9238  2.0792
 9435TIP3    H249797   4.921   3.866  14.976  0.7735  2.5057 -0.4031
 9436TIP3   OH249798   0.127   1.068   3.442  0.1563  0.1401  0.2362
 9436TIP3    H149799   0.207   1.121   3.439 -0.2361  0.7495  0.2085
 9436TIP3    H249800   0.143   0.997   3.381 -0.2802  1.6550 -1.7480
 9437TIP3   OH249801   3.800   2.694  15.896  0.6309  0.1590 -0.3211
 9437TIP3    H149802   3.752   2.631  15.843 -0.4110  1.0247 -0.4313
 9437TIP3    H249803   3.827   2.762  15.833  0.3054  0.6584  0.0742
 9438TIP3   OH249804   0.297   1.375  13.599  0.2674  0.1142  0.1379
 9438TIP3    H149805   0.279   1.283  13.581 -2.1838  0.4178  0.7414
 9438TIP3    H249806   0.329   1.377  13.689  1.5412 -0.2344 -0.2854
 9439TIP3   OH249807   0.774   3.496   0.683 -0.0719 -0.2971 -0.5441
 9439TIP3    H149808   0.748   3.558   0.751  2.4799  1.0525 -0.6592
 9439TIP3    H249809   0.733   3.530   0.603  0.0827  0.3762 -0.3445
 9440TIP3   OH249810   0.404   1.539   0.333  0.3138  0.9704  0.2097
 9440TIP3    H149811   0.392   1.550   0.427  0.1570  2.5120  0.0241
 9440TIP3    H249812   0.351   1.462   0.311 -1.1516  1.6974  1.0708
 9441TIP3   OH249813   1.501   6.145  13.224  0.4671  0.2434  0.2634
 9441TIP3    H149814   1.485   6.132  13.317  0.9543 -0.3021  0.2721
 9441TIP3    H249815   1.520   6.239  13.216 -1.9805  0.8329  0.3585
 9442TIP3   OH249816   1.203   5.737   3.414  0.4513 -0.0295 -0.3936
 9442TIP3    H149817   1.292   5.749   3.379  0.3381 -0.3504 -0.8004
 9442TIP3    H249818   1.176   5.651   3.381 -0.5256  0.6366 -1.3991
 9443TIP3   OH249819   3.437   6.158   5.694 -0.1056 -0.1014  0.3474
 9443TIP3    H149820   3.489   6.078   5.700 -0.5606 -0.4822 -0.6033
 9443TIP3    H249821   3.501   6.227   5.677 -0.0334 -1.1183 -5.4430
 9444TIP3   OH249822   2.450   6.468   2.480 -0.4642 -0.4497 -0.0411
 9444TIP3    H149823   2.487   6.541   2.530  1.8139 -1.5027 -0.0772
 9444TIP3    H249824   2.522   6.437   2.426 -1.8634 -1.6761 -1.2792
 9445TIP3   OH249825   4.083   6.020  13.945  0.0314 -0.2393  0.4006
 9445TIP3    H149826   4.060   5.933  13.913 -1.5477  1.1024 -2.5817
 9445TIP3    H249827   4.000   6.056  13.977  0.2006  0.8499 -0.3221
 9446TIP3   OH249828   4.981   4.235   3.923  0.0753  0.1971  0.4370
 9446TIP3    H149829   4.954   4.287   3.999  2.4057  1.9047  0.2118
 9446TIP3    H249830   5.057   4.282   3.888 -1.0395 -0.3920 -3.1158
 9447TIP3   OH249831   3.236   5.609  12.553 -0.2389  0.2481 -0.0181
 9447TIP3    H149832   3.305   5.660  12.511 -0.4579  0.1907 -0.4590
 9447TIP3    H249833   3.277   5.572  12.631  0.9444 -1.6492 -1.4338
 9448TIP3   OH249834   2.695   4.804  14.510 -0.0692 -0.0050 -0.3767
 9448TIP3    H149835   2.625   4.739  14.520  1.7868 -1.8469  1.7224
 9448TIP3    H249836   2.771   4.753  14.482  0.8857  1.6638 -0.9357
 9449TIP3   OH249837   0.440   1.832  15.114 -0.0896 -0.1100  0.6251
 9449TIP3    H149838   0.371   1.784  15.159  0.6558 -2.4398 -0.5652
 9449TIP3    H249839   0.489   1.765  15.066  1.0821  1.8382 -1.0849
 9450TIP3   OH249840   1.097   3.946   6.186  0.0741 -0.0654  0.1788
 9450TIP3    H149841   1.080   3.944   6.281 -0.7219  1.4760  0.0907
 9450TIP3    H249842   1.176   3.893   6.176  0.2716 -0.1281  1.7241
 9451TIP3   OH249843   4.941   5.719   0.632 -0.1023 -0.1934  0.4504
 9451TIP3    H149844   4.856   5.753   0.659 -1.5186 -0.5165 -3.0568
 9451TIP3    H249845   5.004   5.784   0.663 -1.9190  1.5910  0.6300
 9452TIP3   OH249846   2.974   0.905  11.138 -0.2885 -0.3807 -0.6312
 9452TIP3    H149847   2.933   0.832  11.092 -0.9723  0.4875 -1.4161
 9452TIP3    H249848   2.929   0.983  11.106 -0.4969  0.3015  1.1779
 9453TIP3   OH249849   4.857   5.035  11.313 -0.2985  0.1458  0.2504
 9453TIP3    H149850   4.800   4.989  11.373 -1.8143  0.0014 -1.2361
 9453TIP3    H249851   4.905   5.097  11.368 -3.5506  1.9287  1.3199
 9454TIP3   OH249852   6.229   6.367  11.411  0.2273 -0.5902 -0.1074
 9454TIP3    H149853   6.207   6.457  11.386  2.4690 -0.5076 -2.1928
 9454TIP3    H249854   6.292   6.377  11.482 -0.4056 -0.5678  0.4567
 9455TIP3   OH249855   6.367   0.254  11.111 -0.1244 -0.6284  0.1759
 9455TIP3    H149856   6.305   0.191  11.074  0.6932 -0.6918 -1.1481
 9455TIP3    H249857   6.433   0.266  11.043  0.7173  0.2946  1.1132
 9456TIP3   OH249858   3.553   3.574   5.614 -0.1244 -0.3904 -0.1901
 9456TIP3    H149859   3.551   3.533   5.527 -1.0578 -1.2056  0.1884
 9456TIP3    H249860   3.461   3.592   5.634 -0.0313 -1.1807  1.0562
 9457TIP3   OH249861   4.072   0.733   4.838  0.1190  0.5192 -0.3858
 9457TIP3    H149862   4.003   0.783   4.880  0.7263  1.7359 -0.7767
 9457TIP3    H249863   4.085   0.776   4.753  1.1809  0.1826 -0.4184
 9458TIP3   OH249864   5.391   2.043   2.890  0.1499 -0.2029 -0.0342
 9458TIP3    H149865   5.333   2.089   2.950 -0.0227 -1.3016  0.6640
 9458TIP3    H249866   5.436   1.978   2.945  1.0269 -0.2937 -0.8250
 9459TIP3   OH249867   2.095   3.498  11.974  0.8838 -0.1114  0.0263
 9459TIP3    H149868   2.084   3.589  11.949 -2.2050 -0.2073  0.5843
 9459TIP3    H249869   2.008   3.472  12.006  1.2812 -3.5763 -1.2603
 9460TIP3   OH249870   4.960   5.668  12.235  0.0154 -0.6154 -0.8569
 9460TIP3    H149871   4.885   5.631  12.188  0.1949 -1.3521 -0.5737
 9460TIP3    H249872   5.009   5.592  12.266 -0.5018 -0.1818  1.1972
 9461TIP3   OH249873   5.602   5.786  12.348  0.3208 -0.3852 -0.0468
 9461TIP3    H149874   5.575   5.761  12.436  0.9632  1.8621  0.8577
 9461TIP3    H249875   5.696   5.805  12.357  0.5621 -0.8437 -1.4079
 9462TIP3   OH249876   5.725   2.093  14.712  0.4282 -0.3805  0.0185
 9462TIP3    H149877   5.815   2.106  14.743  0.5763  0.4905 -0.7460
 9462TIP3    H249878   5.705   2.002  14.734  1.3087 -0.4294  0.6638
 9463TIP3   OH249879   0.822   4.913   1.077 -0.1104 -0.0537  0.2897
 9463TIP3    H149880   0.733   4.937   1.051  0.2333  2.0373  0.8737
 9463TIP3    H249881   0.878   4.974   1.030  0.8024  0.5818  2.1201
 9464TIP3   OH249882   3.186   0.724   3.763  0.3176  0.0109 -0.0963
 9464TIP3    H149883   3.112   0.702   3.820  0.2426 -1.4631 -0.7125
 9464TIP3    H249884   3.160   0.693   3.676  1.7607 -0.7696 -0.2794
 9465TIP3   OH249885   3.391   5.488  15.163 -0.1795  0.5320 -0.2030
 9465TIP3    H149886   3.303   5.451  15.150 -0.3868  0.9625 -0.0737
 9465TIP3    H249887   3.450   5.424  15.124 -0.5768  0.3928 -0.5934
 9466TIP3   OH249888   2.518   3.162   3.317 -0.0257 -0.7035 -0.1921
 9466TIP3    H149889   2.513   3.195   3.228  1.7834  0.3745  0.0463
 9466TIP3    H249890   2.610   3.140   3.329 -0.5328 -2.4351  0.8816
 9467TIP3   OH249891   4.031   4.761  12.833  0.5134 -0.1162  0.4571
 9467TIP3    H149892   4.052   4.791  12.745 -2.0763  0.6833  0.0258
 9467TIP3    H249893   3.984   4.835  12.873  0.3513 -0.9980  1.9705
 9468TIP3   OH249894   5.806   1.497   0.612  0.3301 -0.3334  1.0259
 9468TIP3    H149895   5.901   1.505   0.608  0.2737 -0.2433 -0.9311
 9468TIP3    H249896   5.778   1.492   0.521 -1.3894 -2.2348  1.5649
 9469TIP3   OH249897   2.593   0.404   2.848  0.2296 -0.8572  0.3453
 9469TIP3    H149898   2.590   0.327   2.905  0.1526 -1.5516 -0.5779
 9469TIP3    H249899   2.685   0.428   2.845  0.5822 -2.1924 -0.9962
 9470TIP3   OH249900   5.457   2.128   1.556 -0.8683 -0.0879  0.2218
 9470TIP3    H149901   5.371   2.128   1.598 -0.7020  0.3313  0.5720
 9470TIP3    H249902   5.498   2.210   1.584 -0.5518 -0.0374 -0.3512
 9471TIP3   OH249903   5.101   0.580  13.304  0.0291  0.1163 -0.3351
 9471TIP3    H149904   5.012   0.551  13.326 -0.0607  0.3285 -0.4180
 9471TIP3    H249905   5.156   0.503  13.320  0.2126  0.7052  2.2667
 9472TIP3   OH249906   3.822   2.584  10.911  0.3357  0.0454  0.1349
 9472TIP3    H149907   3.757   2.518  10.934 -0.2213  0.5706  0.0817
 9472TIP3    H249908   3.814   2.593  10.816  1.2124 -0.6339 -0.0220
 9473TIP3   OH249909   5.018   1.313   5.585  0.1795  0.5233  0.5011
 9473TIP3    H149910   5.005   1.266   5.668  1.1278 -1.0070 -0.1777
 9473TIP3    H249911   5.096   1.366   5.600  0.6873 -0.1833  0.4334
 9474TIP3   OH249912   1.121   5.433  14.799  0.0861 -0.5190 -0.4813
 9474TIP3    H149913   1.207   5.445  14.759  0.6015 -2.0204  0.1041
 9474TIP3    H249914   1.086   5.522  14.807  1.9124  0.2105 -0.0137
 9475TIP3   OH249915   5.869   2.807  10.671  0.6505  1.0903  0.2039
 9475TIP3    H149916   5.877   2.903  10.667  0.7106  1.0493 -2.3378
 9475TIP3    H249917   5.959   2.777  10.682  0.6632  1.2835  0.7111
 9476TIP3   OH249918   2.096   1.619  10.820 -0.1290  0.3359 -0.1204
 9476TIP3    H149919   2.059   1.548  10.873  0.4114  0.0554 -0.1138
 9476TIP3    H249920   2.047   1.696  10.848 -0.3038  0.0759  0.3171
 9477TIP3   OH249921   1.562   0.651  14.437 -0.2650 -0.1085  0.3261
 9477TIP3    H149922   1.538   0.731  14.389 -2.7444 -1.2453 -0.4822
 9477TIP3    H249923   1.509   0.655  14.517  1.7110  0.3555  1.7018
 9478TIP3   OH249924   4.038   1.670  16.754  0.7288  0.0198  0.9098
 9478TIP3    H149925   3.948   1.639  16.759 -0.0248  1.8626 -0.3432
 9478TIP3    H249926   4.086   1.613  16.815 -1.1266 -1.4125  1.1305
 9479TIP3   OH249927   6.087   1.944   6.273  0.2398 -0.1291 -0.0828
 9479TIP3    H149928   6.029   1.900   6.335 -0.5460 -0.3466 -0.9508
 9479TIP3    H249929   6.049   2.030   6.260 -0.6976 -0.7338 -1.6702
 9480TIP3   OH249930   4.762   6.322   5.975 -0.1699 -0.1676 -0.5951
 9480TIP3    H149931   4.739   6.286   6.060  0.2786  0.5870 -0.1363
 9480TIP3    H249932   4.746   6.416   5.984 -0.5682 -0.1388 -1.4987
 9481TIP3   OH249933   6.404   2.415   5.032 -0.1801 -0.8249 -0.2312
 9481TIP3    H149934   6.499   2.412   5.043 -0.4061 -0.9587  2.4070
 9481TIP3    H249935   6.388   2.495   4.981  1.2579  0.5290  1.3039
 9482TIP3   OH249936   4.555   1.673   1.351  0.1127 -0.0525  0.3720
 9482TIP3    H149937   4.553   1.666   1.255 -0.3747 -2.2474  0.4871
 9482TIP3    H249938   4.637   1.630   1.376 -0.5472 -0.9669  1.0020
 9483TIP3   OH249939   2.211   6.767  10.907 -0.3477 -0.9201  0.2205
 9483TIP3    H149940   2.205   6.760  10.812 -0.1548 -0.2966  0.1636
 9483TIP3    H249941   2.176   6.683  10.939  1.1958 -1.8723 -0.4419
 9484TIP3   OH249942   3.654   2.705   1.573  0.2012 -0.3319  0.3457
 9484TIP3    H149943   3.634   2.734   1.661 -1.1549 -1.1616  0.3310
 9484TIP3    H249944   3.569   2.691   1.532  0.8066 -0.1218 -1.0450
 9485TIP3   OH249945   5.923   5.196  14.466  0.2812  0.0532  0.2042
 9485TIP3    H149946   5.948   5.104  14.472  3.4159  0.7453 -0.1642
 9485TIP3    H249947   5.998   5.238  14.422 -0.9633  2.8046  0.4825
 9486TIP3   OH249948   6.269   3.675  11.213 -0.9199  0.0114 -0.4885
 9486TIP3    H149949   6.299   3.586  11.230 -0.3231  0.0564 -1.2590
 9486TIP3    H249950   6.288   3.690  11.120  0.4907  1.4874 -0.0159
 9487TIP3   OH249951   6.267   4.834  15.290 -0.6268 -0.2367 -0.0792
 9487TIP3    H149952   6.210   4.888  15.344 -1.4182 -1.0921 -0.0424
 9487TIP3    H249953   6.272   4.750  15.336  2.8122  0.5850  1.3494
 9488TIP3   OH249954   5.352   4.348   4.841  0.5703  0.0361  0.2495
 9488TIP3    H149955   5.285   4.398   4.887  0.6489 -0.4431  0.9051
 9488TIP3    H249956   5.435   4.379   4.878  0.5850 -1.1096  1.2300
 9489TIP3   OH249957   2.523   5.456   1.908  0.1196  0.4163 -0.0790
 9489TIP3    H149958   2.605   5.410   1.924  0.1893  0.9554  1.2234
 9489TIP3    H249959   2.496   5.488   1.994 -1.7199 -0.1737 -0.3861
 9490TIP3   OH249960   1.052   5.974   3.940 -0.1096  0.4323  0.3103
 9490TIP3    H149961   1.099   5.924   3.873 -1.3383 -0.0884 -0.1746
 9490TIP3    H249962   1.086   6.064   3.931  0.0759  0.2698 -0.6783
 9491TIP3   OH249963   0.329   0.142  13.539 -0.2277 -0.2165 -0.1852
 9491TIP3    H149964   0.407   0.174  13.586 -0.0292  0.7822 -1.1483
 9491TIP3    H249965   0.256   0.164  13.596  0.1587 -0.8182  0.5561
 9492TIP3   OH249966   5.724   0.231  14.267 -0.2466 -0.0759  0.5984
 9492TIP3    H149967   5.742   0.314  14.223  0.1719 -0.1811  0.5691
 9492TIP3    H249968   5.685   0.176  14.199 -1.9325  0.5833  0.9870
 9493TIP3   OH249969   5.035   2.510   0.440  0.2981  0.0800 -0.3439
 9493TIP3    H149970   5.091   2.587   0.437  0.3949  0.0390  0.3636
 9493TIP3    H249971   4.996   2.511   0.527  0.0598 -0.4996 -0.4358
 9494TIP3   OH249972   5.789   6.598  16.686  0.2939  0.1286  0.5753
 9494TIP3    H149973   5.801   6.560  16.773 -3.5028 -1.2895  0.6550
 9494TIP3    H249974   5.837   6.538  16.628  1.2291 -0.0102  1.4484
 9495TIP3   OH249975   5.836   1.896  14.986 -0.3606 -0.6153 -0.0675
 9495TIP3    H149976   5.889   1.882  15.065 -1.8401  0.1948  1.1390
 9495TIP3    H249977   5.825   1.992  14.981  0.1354 -0.6129 -1.5698
 9496TIP3   OH249978   2.370   1.209   6.710 -0.3767 -0.0692 -0.0684
 9496TIP3    H149979   2.276   1.190   6.709 -0.4508 -0.0828 -3.3209
 9496TIP3    H249980   2.411   1.127   6.735 -1.1763 -0.7148 -0.8265
 9497TIP3   OH249981   3.449   1.259   0.688 -0.3978 -0.1611 -0.2428
 9497TIP3    H149982   3.382   1.298   0.632 -1.3288 -1.1735  0.1336
 9497TIP3    H249983   3.510   1.331   0.706 -1.3203  0.7613 -0.6796
 9498TIP3   OH249984   1.671   6.369  10.642 -0.0725  0.0808 -0.1364
 9498TIP3    H149985   1.598   6.316  10.673  1.2024 -1.5365  0.2903
 9498TIP3    H249986   1.694   6.331  10.557 -1.2165  2.1415 -1.4375
 9499TIP3   OH249987   5.196   1.531   3.835 -0.0655 -0.3106 -0.0010
 9499TIP3    H149988   5.177   1.511   3.743 -1.4647 -1.7939  0.5657
 9499TIP3    H249989   5.179   1.449   3.881  1.4962  0.1474  1.4879
 9500TIP3   OH249990   4.741   4.981   0.176 -0.5642  0.0080  0.3436
 9500TIP3    H149991   4.680   5.007   0.245 -0.5120 -0.4002  0.5478
 9500TIP3    H249992   4.775   5.063   0.142 -1.1558  0.2399  0.2923
 9501TIP3   OH249993   3.068   4.584   4.711 -0.2213  0.0709 -0.3681
 9501TIP3    H149994   3.035   4.517   4.652  0.7681 -1.7851  1.0817
 9501TIP3    H249995   3.159   4.558   4.729  0.2915  1.9430  0.0636
 9502TIP3   OH249996   5.366   4.031  16.865  0.1619  0.2455  0.4083
 9502TIP3    H149997   5.358   3.962  16.931 -1.9833 -1.0723 -1.0919
 9502TIP3    H249998   5.447   4.010  16.819 -0.1808 -0.9774  0.3278
 9503TIP3   OH249999   0.233   3.954  15.894  0.1897  0.3083  0.2690
 9503TIP3    H150000   0.325   3.980  15.900 -0.2533  2.1751 -0.2040
 9503TIP3    H250001   0.227   3.905  15.813  0.5939  1.1190 -0.2738
 9504TIP3   OH250002   2.586   5.223   0.060 -0.1823 -0.3163  0.4892
 9504TIP3    H150003   2.515   5.287   0.068  0.0291 -0.1413  1.0082
 9504TIP3    H250004   2.661   5.265   0.103  0.0058 -0.8411  0.6798
 9505TIP3   OH250005   4.345   1.197  13.886 -0.0767 -0.2031  0.2264
 9505TIP3    H150006   4.276   1.260  13.870 -2.3193 -2.6499 -0.3728
 9505TIP3    H250007   4.363   1.204  13.980 -1.7630 -0.0506  0.5680
 9506TIP3   OH250008   4.809   1.096  12.349 -0.3368  0.0294  0.0233
 9506TIP3    H150009   4.788   1.180  12.390  2.8262  1.4143 -0.8829
 9506TIP3    H250010   4.808   1.033  12.421 -2.0897  0.9464  0.8517
 9507TIP3   OH250011   6.183   1.569   2.133  0.0135  0.1453  0.0111
 9507TIP3    H150012   6.225   1.587   2.049 -1.6849  2.8894 -0.3645
 9507TIP3    H250013   6.253   1.580   2.197  0.6730  1.1630 -0.8375
 9508TIP3   OH250014   4.593   0.872  14.061  0.4944 -0.3111 -0.1545
 9508TIP3    H150015   4.632   0.900  14.143  0.1036  2.4646 -0.8362
 9508TIP3    H250016   4.663   0.880  13.996  0.1382 -0.1203 -0.5195
 9509TIP3   OH250017   2.883   0.821  17.106 -0.6401  0.2338  0.1414
 9509TIP3    H150018   2.832   0.865  17.173 -0.1339  2.0013 -0.5753
 9509TIP3    H250019   2.884   0.883  17.032  0.1054 -0.9929 -0.9212
 9510TIP3   OH250020   1.664   2.774  14.631  0.0839 -0.9364 -0.5539
 9510TIP3    H150021   1.610   2.839  14.674  0.7719  0.2222 -1.3888
 9510TIP3    H250022   1.602   2.716  14.587 -0.4945  0.1857 -1.2364
 9511TIP3   OH250023   2.668   2.903   1.635  0.0845 -0.0397  0.1225
 9511TIP3    H150024   2.687   2.916   1.728 -1.4516 -1.0176  0.6020
 9511TIP3    H250025   2.669   2.808   1.624  3.4862  0.0184 -1.6231
 9512TIP3   OH250026   1.373   4.629  13.090 -0.6395 -0.0400  0.4476
 9512TIP3    H150027   1.300   4.674  13.133 -0.7462  1.0979 -0.8542
 9512TIP3    H250028   1.450   4.681  13.113 -1.0104  2.1504 -2.6585
 9513TIP3   OH250029   0.731   1.311  15.436 -0.0702 -0.0837  0.0259
 9513TIP3    H150030   0.745   1.332  15.528  0.3793 -1.1006  0.2020
 9513TIP3    H250031   0.636   1.300  15.429 -0.0029 -1.2465  0.6655
 9514TIP3   OH250032   2.818   5.706  13.791  0.4433  0.0897 -0.6462
 9514TIP3    H150033   2.783   5.628  13.748 -1.7641  0.5533  0.1639
 9514TIP3    H250034   2.747   5.735  13.848  2.8169  0.0281  2.6505
 9515TIP3   OH250035   5.774   1.879  11.319 -0.2287 -1.0438 -0.1390
 9515TIP3    H150036   5.742   1.838  11.239 -1.1763 -2.9575  1.1452
 9515TIP3    H250037   5.844   1.821  11.349 -0.1091 -0.5330  0.5931
 9516TIP3   OH250038   3.691   2.240   0.480 -0.1159 -0.3603  0.0398
 9516TIP3    H150039   3.696   2.302   0.553 -1.1701 -0.2820  0.0640
 9516TIP3    H250040   3.599   2.241   0.454 -0.0371 -1.4854 -0.3350
 9517TIP3   OH250041   6.176   4.762  11.798  0.3353 -0.4746 -0.0731
 9517TIP3    H150042   6.146   4.756  11.888  0.2254 -0.1062 -0.0853
 9517TIP3    H250043   6.114   4.821  11.756  0.3346 -0.7125 -0.4119
 9518TIP3   OH250044   0.019   5.280  12.719  0.3243 -0.3474 -0.0496
 9518TIP3    H150045  -0.035   5.201  12.711 -0.3726 -0.1508  2.0388
 9518TIP3    H250046   0.027   5.294  12.813  0.5585  2.0020 -0.3569
 9519TIP3   OH250047   3.239   5.715  11.985 -0.4466 -0.3347  0.2689
 9519TIP3    H150048   3.168   5.750  12.039 -1.7775  0.5926 -1.9346
 9519TIP3    H250049   3.319   5.744  12.029 -1.4762  1.7175  0.9275
 9520TIP3   OH250050   6.446   5.017   4.250 -0.2999  0.2923 -0.0092
 9520TIP3    H150051   6.378   5.070   4.291  0.3578  2.1783 -1.2480
 9520TIP3    H250052   6.416   5.005   4.160  0.2931 -0.1658 -0.1532
 9521TIP3   OH250053   4.378   4.799  11.623 -0.2924  0.0080  0.0787
 9521TIP3    H150054   4.412   4.882  11.657  3.0006 -0.3954 -1.7900
 9521TIP3    H250055   4.321   4.825  11.550 -2.1510  0.6476  1.6900
 9522TIP3   OH250056   6.570   0.511  11.872 -0.7261  0.1279 -0.7091
 9522TIP3    H150057   6.645   0.520  11.813 -0.8074 -2.2755 -1.2876
 9522TIP3    H250058   6.542   0.420  11.862 -1.3716 -0.1197  2.3377
 9523TIP3   OH250059   6.302   0.144  16.686 -0.1485 -1.0075  0.5990
 9523TIP3    H150060   6.277   0.214  16.747  1.3166  1.0334 -1.0086
 9523TIP3    H250061   6.385   0.111  16.720 -0.3003 -1.2504  0.7456
 9524TIP3   OH250062   5.767   4.539  13.373  1.0242  0.1159 -0.6884
 9524TIP3    H150063   5.791   4.610  13.433  1.3671  0.2470 -0.9803
 9524TIP3    H250064   5.705   4.485  13.424  1.3163  0.2220 -0.2149
 9525TIP3   OH250065   1.768   2.834   4.945 -0.3547 -0.3253  0.2127
 9525TIP3    H150066   1.751   2.909   5.002  0.3656 -1.5059  2.1344
 9525TIP3    H250067   1.851   2.855   4.901  0.0889 -0.1521  1.1015
 9526TIP3   OH250068   4.955   3.844   2.972  0.4173 -0.4456  0.0243
 9526TIP3    H150069   5.001   3.924   2.945  2.0165 -0.8824  1.2944
 9526TIP3    H250070   4.873   3.876   3.011  1.5562  0.7143  1.5985
 9527TIP3   OH250071   2.344   5.749   6.427 -0.5885  0.3890 -0.5717
 9527TIP3    H150072   2.390   5.676   6.469  1.6345  1.4114 -1.0696
 9527TIP3    H250073   2.405   5.781   6.361 -1.1964  3.1231  0.0646
 9528TIP3   OH250074   0.117   2.744  11.281 -0.7570 -0.1747 -0.1744
 9528TIP3    H150075   0.122   2.839  11.282 -0.1155 -0.0872 -2.9126
 9528TIP3    H250076   0.206   2.714  11.298 -0.6464 -0.2044 -0.7637
 9529TIP3   OH250077   0.450   2.647  12.782  0.2539  0.4969  0.1212
 9529TIP3    H150078   0.380   2.585  12.767 -0.0933  0.5498  1.4074
 9529TIP3    H250079   0.429   2.688  12.867  1.3043  1.2200  0.0602
 9530TIP3   OH250080   5.425   2.113  15.547  0.0206  0.3670  0.2729
 9530TIP3    H150081   5.343   2.126  15.594  0.4576  1.6442  0.7456
 9530TIP3    H250082   5.462   2.034  15.586 -1.7399 -1.2298 -1.1270
 9531TIP3   OH250083   6.258   0.884   4.722  0.4784 -0.0408  0.1683
 9531TIP3    H150084   6.326   0.828   4.685  0.3921 -0.4493  0.6312
 9531TIP3    H250085   6.201   0.904   4.647  1.3791  0.7269 -0.3424
 9532TIP3   OH250086   2.687   5.575   0.200  0.4452 -0.4301 -0.5590
 9532TIP3    H150087   2.736   5.498   0.172 -0.0511 -0.9346 -0.0689
 9532TIP3    H250088   2.636   5.545   0.275 -0.8902 -0.0389 -1.2576
 9533TIP3   OH250089   6.576   4.910   1.773  0.1374 -0.6068 -0.0515
 9533TIP3    H150090   6.573   4.829   1.824 -1.7166  0.1799  1.2011
 9533TIP3    H250091   6.519   4.970   1.821  1.4030  1.4381 -0.9858
 9534TIP3   OH250092   6.340   5.715   4.782  0.2881  0.0724  0.2278
 9534TIP3    H150093   6.287   5.751   4.853 -1.5985  0.7905 -1.4458
 9534TIP3    H250094   6.283   5.652   4.739  1.9544 -1.5444  0.2818
 9535TIP3   OH250095   0.595   4.222   1.297 -0.5227  0.2405  0.3321
 9535TIP3    H150096   0.671   4.171   1.324 -1.4532 -1.0582  0.5774
 9535TIP3    H250097   0.544   4.163   1.241 -1.1664  1.2084 -0.1476
 9536TIP3   OH250098   1.714   1.281   2.838 -0.4098  0.0495  0.6708
 9536TIP3    H150099   1.805   1.260   2.815 -0.3728  0.3974  0.5044
 9536TIP3    H250100   1.697   1.365   2.796 -1.1820 -0.5509 -0.2873
 9537TIP3   OH250101   4.738   0.160  12.900 -0.6064  0.3744 -0.1383
 9537TIP3    H150102   4.682   0.086  12.876 -1.9902  0.1200  3.3459
 9537TIP3    H250103   4.825   0.120  12.913 -1.4793 -0.9290  2.3911
 9538TIP3   OH250104   1.959   5.247   1.446  0.4598 -0.2863 -0.0903
 9538TIP3    H150105   1.939   5.292   1.364 -2.2168  1.4573  1.3653
 9538TIP3    H250106   1.909   5.165   1.440 -0.8183  0.4316  0.2583
 9539TIP3   OH250107   6.775   1.886  14.398 -0.0185 -0.1632 -0.1924
 9539TIP3    H150108   6.832   1.946  14.350  0.1483  1.0657  1.4235
 9539TIP3    H250109   6.687   1.923  14.387  0.0998  0.5184  0.9087
 9540TIP3   OH250110   4.844   4.927   2.573 -0.2770 -0.2805 -0.3818
 9540TIP3    H150111   4.802   4.989   2.514  0.2985  0.4776 -0.0196
 9540TIP3    H250112   4.793   4.932   2.654  1.0080  1.3482  0.3869
 9541TIP3   OH250113   2.682   4.141  14.386 -0.6415 -0.6239 -0.7453
 9541TIP3    H150114   2.719   4.219  14.426 -0.4664 -0.4996 -1.1453
 9541TIP3    H250115   2.590   4.163  14.371 -0.9316 -0.9842  0.3812
 9542TIP3   OH250116   5.879   2.926  15.247 -0.2942  0.3634  0.0587
 9542TIP3    H150117   5.802   2.972  15.279  0.1030  1.3404 -0.3252
 9542TIP3    H250118   5.901   2.864  15.316  0.1310  1.9102  1.3752
 9543TIP3   OH250119   5.790   5.995  15.160  0.4274 -0.2630  0.2481
 9543TIP3    H150120   5.789   5.900  15.150 -2.4572 -0.5029  1.4644
 9543TIP3    H250121   5.745   6.028  15.082 -0.3607 -0.1237  0.7404
 9544TIP3   OH250122   2.897   6.841  13.721 -0.2612  0.4460  0.1094
 9544TIP3    H150123   2.940   6.891  13.791  1.0163  1.8131 -1.5380
 9544TIP3    H250124   2.807   6.871  13.723 -0.3585  0.1407  1.4190
 9545TIP3   OH250125   0.676   6.502  15.677  0.2291 -0.5457 -0.6328
 9545TIP3    H150126   0.695   6.593  15.652 -0.4922 -0.3365 -0.4328
 9545TIP3    H250127   0.718   6.491  15.763  0.6369 -0.5172 -0.8282
 9546TIP3   OH250128   5.931   4.168  15.336 -0.4694 -0.1324  0.0005
 9546TIP3    H150129   5.860   4.146  15.276 -0.0405 -0.3657 -0.4255
 9546TIP3    H250130   5.964   4.084  15.366 -0.4666 -0.0218  0.3090
 9547TIP3   OH250131   5.711   4.220  12.644 -0.4092 -0.1181 -0.8529
 9547TIP3    H150132   5.722   4.272  12.564  2.9974 -1.3648 -1.3721
 9547TIP3    H250133   5.792   4.169  12.650 -2.3910 -3.3386  1.0803
 9548TIP3   OH250134   2.044   5.130   4.286  0.4217 -0.0313  0.0550
 9548TIP3    H150135   2.092   5.197   4.237 -0.7300  0.2992 -0.6843
 9548TIP3    H250136   1.959   5.172   4.305 -0.6424 -1.5380 -1.1284
 9549TIP3   OH250137   6.670   5.341   6.456  0.3134 -0.1004 -0.3347
 9549TIP3    H150138   6.736   5.286   6.499 -0.8940 -1.6484 -0.3691
 9549TIP3    H250139   6.721   5.409   6.412  1.7982 -0.5215  0.6604
 9550TIP3   OH250140   5.564   3.295  16.478 -0.6724 -0.5154 -0.3672
 9550TIP3    H150141   5.504   3.225  16.505 -0.3870 -0.2857  0.9382
 9550TIP3    H250142   5.533   3.372  16.525  1.3287 -0.6574  1.3194
 9551TIP3   OH250143   2.799   2.526  11.703  0.1709 -0.4618 -0.0983
 9551TIP3    H150144   2.789   2.530  11.798 -3.5868  1.9535 -0.3839
 9551TIP3    H250145   2.752   2.447  11.676 -1.9616  0.7347 -0.0843
 9552TIP3   OH250146   5.640   2.237   0.843 -0.6391  0.0480 -0.6855
 9552TIP3    H150147   5.701   2.167   0.863 -0.8041  0.3997  1.1828
 9552TIP3    H250148   5.593   2.206   0.765  0.2568 -1.2626 -0.7336
 9553TIP3   OH250149   4.183   2.759  14.296  0.0121 -0.4862  0.3912
 9553TIP3    H150150   4.162   2.853  14.299  0.9741 -0.2821  3.0238
 9553TIP3    H250151   4.102   2.717  14.268 -0.6277  1.0633 -0.1973
 9554TIP3   OH250152   6.709   3.503   2.473  0.0634 -0.5541  0.6884
 9554TIP3    H150153   6.621   3.513   2.437 -1.0213 -1.1071  3.0510
 9554TIP3    H250154   6.709   3.418   2.515  1.7518 -0.5604  0.7407
 9555TIP3   OH250155   5.060   3.770  14.634 -0.3970  0.2535 -0.3392
 9555TIP3    H150156   4.975   3.748  14.594 -0.1109 -0.0045 -0.8058
 9555TIP3    H250157   5.048   3.860  14.665 -0.9108  0.1514 -0.2192
 9556TIP3   OH250158   5.084   4.668  11.619 -0.1142 -0.6014 -0.4921
 9556TIP3    H150159   5.118   4.724  11.689 -1.6685  0.0366 -0.2050
 9556TIP3    H250160   5.008   4.624  11.658 -0.0668 -1.4407 -1.3080
 9557TIP3   OH250161   3.359   0.734   4.356  0.2064  0.3782 -0.5536
 9557TIP3    H150162   3.402   0.651   4.335 -0.2498  0.3229 -1.2965
 9557TIP3    H250163   3.425   0.800   4.337  0.4324  0.2113 -0.3541
 9558TIP3   OH250164   1.570   4.382   1.120  0.3153  0.4333 -0.2249
 9558TIP3    H150165   1.496   4.442   1.129 -0.0442  0.3011 -2.0274
 9558TIP3    H250166   1.531   4.295   1.124  0.5452  0.3435  0.0974
 9559TIP3   OH250167   4.544   6.201   4.689  0.2434  0.2336 -0.6225
 9559TIP3    H150168   4.545   6.232   4.599  0.8916 -1.9287 -1.4193
 9559TIP3    H250169   4.539   6.106   4.682  0.5396 -0.0119  1.6208
 9560TIP3   OH250170   0.233   5.729  11.022  0.0577  0.3222 -0.1479
 9560TIP3    H150171   0.251   5.717  10.929 -0.0627 -0.1678 -0.1138
 9560TIP3    H250172   0.249   5.643  11.061 -1.4708  0.0653  0.0108
 9561TIP3   OH250173   5.829   2.286  10.377 -0.2547  0.0852 -0.0633
 9561TIP3    H150174   5.753   2.285  10.319 -0.5151 -0.1586  0.2733
 9561TIP3    H250175   5.899   2.243  10.327 -0.2496  0.5895 -0.4900
 9562TIP3   OH250176   0.539   2.780   1.277  0.1464  0.1696 -0.0428
 9562TIP3    H150177   0.564   2.704   1.224 -1.8298 -0.5936  0.0586
 9562TIP3    H250178   0.600   2.849   1.249  1.1069 -1.0531 -1.1145
 9563TIP3   OH250179   3.418   0.114  12.741 -0.4191 -0.3199 -0.4580
 9563TIP3    H150180   3.357   0.187  12.750  1.8577  2.0497 -2.3788
 9563TIP3    H250181   3.363   0.038  12.720 -2.7424  1.4210 -1.0687
 9564TIP3   OH250182   2.395   5.847  11.597  0.0033  0.3066 -0.2523
 9564TIP3    H150183   2.319   5.904  11.614  0.0165  0.1571  0.3396
 9564TIP3    H250184   2.368   5.793  11.522 -0.4630  0.2908 -0.0813
 9565TIP3   OH250185   3.673   1.063  12.201 -0.1842 -0.0409 -0.4211
 9565TIP3    H150186   3.700   1.123  12.270 -1.1413 -0.0546 -0.0277
 9565TIP3    H250187   3.735   0.990  12.207 -1.3362 -0.9353  1.6501
 9566TIP3   OH250188   1.418   0.402  10.385 -0.4162  0.2884 -0.5706
 9566TIP3    H150189   1.490   0.352  10.347 -0.3158 -0.3938  0.4649
 9566TIP3    H250190   1.390   0.460  10.315  1.0373  0.4682 -1.0476
 9567TIP3   OH250191   5.165   2.948  14.473 -0.2628 -0.3552  0.0962
 9567TIP3    H150192   5.192   3.025  14.524  1.1638  0.0030 -1.1155
 9567TIP3    H250193   5.086   2.976  14.428 -0.8166 -0.2466  1.1153
 9568TIP3   OH250194   6.270   3.013  13.099  0.0158  0.3364 -0.3665
 9568TIP3    H150195   6.228   3.008  13.013 -0.4888 -2.0704 -0.0547
 9568TIP3    H250196   6.197   3.017  13.161  0.2889 -0.8812  0.0521
 9569TIP3   OH250197   2.154   2.448  12.781  0.3987  0.1010  0.4174
 9569TIP3    H150198   2.124   2.433  12.870  1.9685  2.0724  1.3479
 9569TIP3    H250199   2.082   2.496  12.739 -0.1484 -0.4105  0.7619
 9570TIP3   OH250200   6.680   5.297   4.909 -0.0746  0.1773 -0.2638
 9570TIP3    H150201   6.704   5.225   4.968  0.4876  0.7245  0.1915
 9570TIP3    H250202   6.764   5.331   4.879 -0.3582 -0.1846 -1.5096
 9571TIP3   OH250203   1.789   0.850   3.322 -0.0715 -0.3295  0.0580
 9571TIP3    H150204   1.858   0.857   3.256 -1.2578 -0.4938 -1.2490
 9571TIP3    H250205   1.831   0.808   3.397  1.7492  1.4325  0.0929
 9572TIP3   OH250206   1.473   1.969   1.105 -0.4899  0.3846 -0.4981
 9572TIP3    H150207   1.416   2.046   1.103  1.7024  2.1326  0.2765
 9572TIP3    H250208   1.465   1.935   1.194 -1.6205 -0.4518 -0.9017
 9573TIP3   OH250209   5.556   5.258   4.845 -0.3059 -0.3896  0.2161
 9573TIP3    H150210   5.650   5.252   4.825  0.5017 -0.3000  3.4610
 9573TIP3    H250211   5.548   5.333   4.903 -2.2315 -0.9577  0.7740
 9574TIP3   OH250212   0.343   0.286   1.363  0.3783 -0.1304 -0.1028
 9574TIP3    H150213   0.420   0.236   1.337 -0.4655 -0.9502 -1.1292
 9574TIP3    H250214   0.313   0.246   1.444 -0.2327 -1.2620 -0.8636
 9575TIP3   OH250215   1.329   1.382   5.087 -0.1804  0.8277  0.4292
 9575TIP3    H150216   1.316   1.292   5.117 -2.0776  1.5948  2.0945
 9575TIP3    H250217   1.302   1.436   5.161  1.8117  2.7951 -0.1928
 9576TIP3   OH250218   3.441   1.039   4.619 -0.2343 -0.1007  0.4459
 9576TIP3    H150219   3.525   0.995   4.610  0.6307  1.4383  0.6464
 9576TIP3    H250220   3.459   1.114   4.676 -1.3090  1.3047 -0.9561
 9577TIP3   OH250221   6.202   2.032  14.485  0.0951 -0.5597  0.1411
 9577TIP3    H150222   6.132   2.095  14.469  1.3859  0.8897  0.0170
 9577TIP3    H250223   6.195   2.010  14.578 -0.1554  0.0367  0.2657
 9578TIP3   OH250224   1.447   2.020   2.088 -0.1720 -0.4943  0.2095
 9578TIP3    H150225   1.531   2.028   2.133 -0.4198  0.1120  0.5677
 9578TIP3    H250226   1.410   1.939   2.122 -0.0117 -0.4402  0.5240
 9579TIP3   OH250227   3.450   5.618   1.260  0.2035  0.0442 -1.3679
 9579TIP3    H150228   3.518   5.584   1.203  1.5001  0.5123 -0.1784
 9579TIP3    H250229   3.496   5.640   1.341 -1.3814  0.3469 -0.5056
 9580TIP3   OH250230   3.698   4.017  10.829  0.0364 -0.3753  0.0103
 9580TIP3    H150231   3.713   3.928  10.859 -1.2999 -0.5853  0.1266
 9580TIP3    H250232   3.774   4.038  10.775 -0.0596 -1.9184 -0.7671
 9581TIP3   OH250233   5.354   4.899   0.184  0.1806 -0.4464 -0.1426
 9581TIP3    H150234   5.439   4.925   0.221  0.0045  1.4617 -1.0008
 9581TIP3    H250235   5.308   4.859   0.258  1.3131 -0.2756  0.6870
 9582TIP3   OH250236   5.923   2.718   6.373  0.3876  0.5376 -0.7434
 9582TIP3    H150237   5.962   2.632   6.391  1.6212  0.7799 -2.1378
 9582TIP3    H250238   5.876   2.740   6.454  1.5923 -0.6048  0.3095
 9583TIP3   OH250239   6.797   5.447   5.218  0.1683  0.3493 -0.1279
 9583TIP3    H150240   6.863   5.414   5.157  0.8162  1.5046 -0.0810
 9583TIP3    H250241   6.845   5.458   5.301  0.1768  2.0489 -0.3238
 9584TIP3   OH250242   4.442   6.620   5.581  0.4488  0.2823  0.0230
 9584TIP3    H150243   4.534   6.599   5.564  0.1380 -2.4378  1.2029
 9584TIP3    H250244   4.411   6.659   5.500  1.4865 -3.1311 -2.2591
 9585TIP3   OH250245   5.796   4.254   4.883  0.0329 -0.0307  0.5731
 9585TIP3    H150246   5.803   4.265   4.977  1.7262  1.8290  0.3153
 9585TIP3    H250247   5.750   4.333   4.853 -4.1468 -2.3896  0.1037
 9586TIP3   OH250248   0.732   4.383  11.606  0.1830 -0.3012 -0.3796
 9586TIP3    H150249   0.776   4.364  11.688 -1.8484  1.0903  1.1408
 9586TIP3    H250250   0.746   4.305  11.552 -3.0949 -3.8923  3.3321
 9587TIP3   OH250251   0.523   3.367   0.100  0.0642 -0.8765 -0.1693
 9587TIP3    H150252   0.588   3.436   0.091  0.3997 -0.9314  1.5727
 9587TIP3    H250253   0.447   3.400   0.052  1.9952 -1.7907 -4.2500
 9588TIP3   OH250254   1.067   4.766  16.580  0.1975  0.3098 -0.1546
 9588TIP3    H150255   1.078   4.840  16.640 -0.6243  0.9847 -0.8080
 9588TIP3    H250256   1.131   4.702  16.610  1.3653  1.5125  0.0674
 9589TIP3   OH250257   1.465   3.189  12.969 -0.0582  0.5559  0.3214
 9589TIP3    H150258   1.510   3.140  12.900 -0.0364  0.5931  0.3093
 9589TIP3    H250259   1.381   3.215  12.930 -0.1594  0.3466  0.3971
 9590TIP3   OH250260   1.064   5.328  16.915 -0.4502  0.9886 -0.2585
 9590TIP3    H150261   1.016   5.283  16.984  0.5869  2.4127  1.4735
 9590TIP3    H250262   1.050   5.421  16.932  2.3336  1.4574 -0.0194
 9591TIP3   OH250263   1.388   0.707  16.762  0.1183  0.0268  0.0557
 9591TIP3    H150264   1.388   0.705  16.858  0.5948 -3.2867  0.1155
 9591TIP3    H250265   1.480   0.699  16.738 -0.1711 -2.1168 -0.5546
 9592TIP3   OH250266   2.007   5.198  12.422 -0.3630 -0.5826 -0.0782
 9592TIP3    H150267   2.063   5.187  12.346  0.5213 -0.4582  0.5485
 9592TIP3    H250268   1.966   5.284  12.409  1.8165  0.6707  0.8623
 9593TIP3   OH250269   1.077   2.498  11.034 -0.1263 -0.2546  0.2678
 9593TIP3    H150270   1.165   2.516  11.001  0.0518  1.2328  1.4589
 9593TIP3    H250271   1.085   2.507  11.129 -1.2765 -1.4733  0.5146
 9594TIP3   OH250272   0.173   4.435   6.286  0.3778  0.3970  0.0468
 9594TIP3    H150273   0.247   4.389   6.325  1.2634  2.3049  0.7148
 9594TIP3    H250274   0.208   4.520   6.260 -0.6688  0.0310 -3.0853
 9595TIP3   OH250275   6.347   2.320  11.226  0.1778 -0.0480  0.2504
 9595TIP3    H150276   6.275   2.380  11.245  1.8141  1.7360  1.0774
 9595TIP3    H250277   6.330   2.244  11.282  0.1335  1.3278  2.1754
 9596TIP3   OH250278   5.051   3.646   3.151 -0.5277  0.3340  0.1054
 9596TIP3    H150279   5.006   3.722   3.114 -1.2997 -0.0486  0.2526
 9596TIP3    H250280   5.137   3.647   3.110 -0.5432  1.2686  0.0743
 9597TIP3   OH250281   6.124   4.648   1.003 -0.4344 -0.1259 -0.2193
 9597TIP3    H150282   6.040   4.672   1.043  0.0937  1.1744  0.1721
 9597TIP3    H250283   6.176   4.613   1.074 -0.0311  0.7609 -0.0598
 9598TIP3   OH250284   0.325   4.725  16.363  0.7494 -0.1451 -0.1128
 9598TIP3    H150285   0.343   4.807  16.317 -1.7102  0.7771  0.4343
 9598TIP3    H250286   0.272   4.674  16.301 -0.2257 -0.0549  0.6209
 9599TIP3   OH250287   3.336   1.476  15.118 -0.2269 -0.2233 -0.5292
 9599TIP3    H150288   3.253   1.448  15.157 -0.1150  0.1090 -0.0406
 9599TIP3    H250289   3.380   1.395  15.096 -0.5533 -0.4089 -0.5095
 9600TIP3   OH250290   0.943   1.950  12.727  0.0980 -0.3835 -0.1785
 9600TIP3    H150291   0.936   1.973  12.819  0.8957  0.5662 -0.3424
 9600TIP3    H250292   0.973   1.859  12.726  0.4061 -0.2910  0.4934
 9601TIP3   OH250293   0.796   5.432  13.580  0.1064  0.2037 -0.3995
 9601TIP3    H150294   0.719   5.382  13.609  0.5462 -0.5303 -0.4782
 9601TIP3    H250295   0.798   5.508  13.639 -0.4911  0.0621 -0.1875
 9602TIP3   OH250296   4.289   6.130  15.958 -0.2101 -0.1554  0.8554
 9602TIP3    H150297   4.255   6.197  16.017  0.6394 -0.4091  1.6521
 9602TIP3    H250298   4.378   6.158  15.938  0.0417 -0.8714  0.9351
 9603TIP3   OH250299   2.763   2.485  11.095  0.1915  0.0730 -0.2313
 9603TIP3    H150300   2.667   2.482  11.088  0.2343  0.2069 -1.0869
 9603TIP3    H250301   2.793   2.416  11.036  0.6265  0.0740 -0.0107
 9604TIP3   OH250302   2.302   3.797   0.815 -0.0060  0.2859  0.3291
 9604TIP3    H150303   2.215   3.831   0.836 -1.2065 -1.0805 -2.1199
 9604TIP3    H250304   2.286   3.715   0.769  2.5697  0.3915 -0.9243
 9605TIP3   OH250305   3.104   4.679  11.080 -0.0285 -0.1670  0.0664
 9605TIP3    H150306   3.122   4.666  11.173  1.2127 -1.0017 -0.2774
 9605TIP3    H250307   3.188   4.701  11.041 -0.5180  0.0854 -0.8977
 9606TIP3   OH250308   0.210   5.187  12.312  0.1346  0.6072 -0.5064
 9606TIP3    H150309   0.219   5.091  12.308 -0.4295  0.5800 -2.3361
 9606TIP3    H250310   0.116   5.202  12.319  0.2764  1.0489  0.7348
 9607TIP3   OH250311   1.395   6.242   3.786  0.9911 -0.1282  0.0232
 9607TIP3    H150312   1.343   6.287   3.852  0.4475 -2.4375  1.2876
 9607TIP3    H250313   1.467   6.302   3.767 -1.0804  2.3957 -0.4418
 9608TIP3   OH250314   3.176   2.504  15.597 -0.6071 -0.4336  0.0691
 9608TIP3    H150315   3.167   2.409  15.599 -2.0241 -0.3264  0.9021
 9608TIP3    H250316   3.263   2.520  15.562 -0.6470 -2.0156 -0.8474
 9609TIP3   OH250317   2.929   0.858  13.663  0.2052 -0.0251 -0.2190
 9609TIP3    H150318   2.887   0.889  13.744  0.4843 -0.5115  0.1139
 9609TIP3    H250319   2.940   0.938  13.611 -1.5906  0.0620 -0.5471
 9610TIP3   OH250320   6.154   6.817  11.991  0.2447 -0.2060 -0.1459
 9610TIP3    H150321   6.226   6.762  12.021 -0.6037 -0.6455  1.1635
 9610TIP3    H250322   6.111   6.848  12.071  0.6027  2.2955 -0.8493
 9611TIP3   OH250323   6.465   4.388   2.006  0.1960  0.4874 -0.5039
 9611TIP3    H150324   6.384   4.347   1.974  0.2829 -0.2929  0.2250
 9611TIP3    H250325   6.442   4.422   2.092  0.3679  1.2167 -0.7380
 9612TIP3   OH250326   3.054   6.500  15.840  0.4102 -0.0729  0.4238
 9612TIP3    H150327   3.094   6.491  15.754  0.5925 -0.2900  0.5293
 9612TIP3    H250328   2.976   6.554  15.825 -0.1637 -1.0042 -0.0676
 9613TIP3   OH250329   3.899   1.319   3.507  0.4791  0.7822  0.1061
 9613TIP3    H150330   3.935   1.321   3.419 -0.4432  1.9799 -0.2733
 9613TIP3    H250331   3.835   1.390   3.508 -1.6343 -1.0446  0.8474
 9614TIP3   OH250332   4.102   2.095   1.068 -0.1738  0.1917 -0.3162
 9614TIP3    H150333   4.158   2.109   1.144  0.4251 -1.3564 -0.4561
 9614TIP3    H250334   4.152   2.131   0.995  1.2430 -2.2131 -0.6296
 9615TIP3   OH250335   5.768   3.283   0.077  0.4094 -0.1293 -0.3186
 9615TIP3    H150336   5.734   3.341   0.009 -3.9899 -1.1899  0.6648
 9615TIP3    H250337   5.788   3.201   0.031  4.3393  1.1617 -1.2920
 9616TIP3   OH250338   4.997   4.668  15.783 -0.1991  0.2057  0.0818
 9616TIP3    H150339   4.916   4.689  15.830  0.3227 -0.3743  1.3026
 9616TIP3    H250340   5.062   4.727  15.821  0.6872 -1.6508  1.6400
 9617TIP3   OH250341   5.667   0.851  16.186 -0.2903 -0.3891  0.2668
 9617TIP3    H150342   5.729   0.792  16.227  2.7523 -0.5474 -3.8410
 9617TIP3    H250343   5.613   0.795  16.131  0.5699  0.2166 -1.2896
 9618TIP3   OH250344   1.023   6.777   3.165  0.3692  0.2633  0.0960
 9618TIP3    H150345   1.082   6.794   3.238  0.0079  0.5408  0.3282
 9618TIP3    H250346   1.070   6.714   3.110  0.5957 -0.0308  0.6220
 9619TIP3   OH250347   6.007   2.532   3.799  0.2446 -0.4350  0.1501
 9619TIP3    H150348   6.003   2.451   3.747 -0.7797 -0.7023  0.6160
 9619TIP3    H250349   6.092   2.570   3.777 -0.3114 -0.3058 -2.0597
 9620TIP3   OH250350   0.214   0.750   5.682  0.1156  0.4537  0.1708
 9620TIP3    H150351   0.305   0.773   5.662 -0.0157  0.4676 -0.4214
 9620TIP3    H250352   0.185   0.699   5.607  0.2030 -1.1260  1.1739
 9621TIP3   OH250353   0.054   5.592  13.982 -0.2240  0.2764 -0.2529
 9621TIP3    H150354   0.023   5.502  13.967 -3.3994  1.4094 -1.3493
 9621TIP3    H250355   0.122   5.605  13.916  0.3961 -1.3253  0.0247
 9622TIP3   OH250356   1.333   3.193  14.706 -0.0981 -0.0358  0.0195
 9622TIP3    H150357   1.295   3.250  14.773 -0.6667 -0.7803  0.3456
 9622TIP3    H250358   1.343   3.250  14.630 -1.3155  0.3475  0.1115
 9623TIP3   OH250359   2.940   0.945   4.412 -0.3574  0.3076 -0.1078
 9623TIP3    H150360   3.035   0.957   4.409 -0.6589  3.4733 -0.5162
 9623TIP3    H250361   2.922   0.884   4.340  1.3162 -0.0711 -0.2573
 9624TIP3   OH250362   1.117   0.198   5.124  0.0824  0.5658  0.2089
 9624TIP3    H150363   1.104   0.114   5.081 -0.3151  0.6559  0.1486
 9624TIP3    H250364   1.188   0.182   5.187 -0.6339 -0.0794  0.8857
 9625TIP3   OH250365   0.263   1.044  12.114 -0.5643 -0.4168 -0.2069
 9625TIP3    H150366   0.288   1.131  12.146  1.3550 -1.0180  0.0235
 9625TIP3    H250367   0.202   1.061  12.042 -1.0952  1.0776  0.5535
 9626TIP3   OH250368   5.929   5.439   3.518  0.5894 -0.5618 -0.5413
 9626TIP3    H150369   5.928   5.360   3.463  0.9933  0.0428 -1.4384
 9626TIP3    H250370   6.021   5.464   3.522  0.7914 -1.4719  1.7340
 9627TIP3   OH250371   4.746   6.454   1.765  0.2402 -0.0315  0.0945
 9627TIP3    H150372   4.797   6.466   1.845  0.1978 -0.2660  0.1587
 9627TIP3    H250373   4.811   6.451   1.695  0.2941 -0.0697  0.1463
 9628TIP3   OH250374   3.786   4.620   0.392 -0.2842  0.3318 -0.0111
 9628TIP3    H150375   3.749   4.697   0.434  1.2585  0.6128  0.9173
 9628TIP3    H250376   3.864   4.600   0.444  0.6697 -0.4198 -1.6673
 9629TIP3   OH250377   4.775   4.503   1.670  0.0535 -0.4571 -0.1379
 9629TIP3    H150378   4.805   4.429   1.617  0.7152 -0.3535  0.0869
 9629TIP3    H250379   4.854   4.554   1.687 -0.1057 -0.6055  1.1460
 9630TIP3   OH250380   2.456   4.967   0.462  0.4584  0.0150  0.3928
 9630TIP3    H150381   2.548   4.951   0.480  0.1570 -0.0976  1.9630
 9630TIP3    H250382   2.450   5.062   0.450  0.4848  0.3129  2.3961
 9631TIP3   OH250383   2.992   2.602  15.168 -0.4228 -0.3227  0.1046
 9631TIP3    H150384   2.900   2.611  15.191 -0.5946  1.2921 -1.0454
 9631TIP3    H250385   2.993   2.535  15.099 -0.6020 -0.9564  0.6977
 9632TIP3   OH250386   4.712   2.097   3.736 -0.1130  0.1505  0.1219
 9632TIP3    H150387   4.639   2.110   3.796 -0.2959 -0.3244  0.0091
 9632TIP3    H250388   4.772   2.038   3.782 -1.0600 -1.6167 -0.7924
 9633TIP3   OH250389   0.498   5.930   0.947 -0.4927  0.4293  0.4043
 9633TIP3    H150390   0.532   5.871   0.879  0.0014 -0.2117  1.1963
 9633TIP3    H250391   0.531   6.017   0.921  1.6372 -0.1282  1.0260
 9634TIP3   OH250392   6.310   6.440  17.010 -0.3932  0.2218 -0.4788
 9634TIP3    H150393   6.261   6.401  17.083  0.9463 -0.6130  0.0078
 9634TIP3    H250394   6.398   6.452  17.045  0.3300 -0.3964 -2.0356
 9635TIP3   OH250395   4.160   2.282  10.968  0.1468 -0.8581 -0.7603
 9635TIP3    H150396   4.105   2.204  10.976  0.2401 -0.7564  1.7779
 9635TIP3    H250397   4.109   2.352  11.007  1.5549 -0.5201  0.6052
 9636TIP3   OH250398   1.767   2.058  16.365  0.4318  0.0583 -0.4971
 9636TIP3    H150399   1.734   2.148  16.362  1.4960  0.7583  3.2816
 9636TIP3    H250400   1.862   2.068  16.372  0.8180 -1.5386 -2.5403
 9637TIP3   OH250401   2.082   3.189   4.792 -0.3334 -0.5013  0.0383
 9637TIP3    H150402   2.167   3.229   4.776 -0.9373  0.9877  0.3908
 9637TIP3    H250403   2.021   3.262   4.796 -1.9836 -1.6325 -2.1923
 9638TIP3   OH250404   4.333   0.351   5.673  0.2457 -0.4304  0.1910
 9638TIP3    H150405   4.355   0.310   5.756  0.0892  0.9994  0.9770
 9638TIP3    H250406   4.347   0.445   5.688 -0.8459 -0.0360 -1.0505
 9639TIP3   OH250407   5.715   5.842  13.521  0.6803  0.0061  0.4398
 9639TIP3    H150408   5.807   5.818  13.513  0.6779 -0.5629  1.8318
 9639TIP3    H250409   5.677   5.825  13.435  1.4753 -1.5542  0.3767
 9640TIP3   OH250410   5.416   1.208   5.799 -0.6621  0.4083  0.4607
 9640TIP3    H150411   5.473   1.279   5.829 -0.9932  1.7976 -1.9411
 9640TIP3    H250412   5.456   1.129   5.835  1.5657  1.5247  0.6346
 9641TIP3   OH250413   3.283   2.821  13.986 -0.1589 -0.0028 -0.6584
 9641TIP3    H150414   3.210   2.804  13.926  0.7421 -0.2931 -1.7016
 9641TIP3    H250415   3.350   2.757  13.961  0.6660  0.6200 -0.0896
 9642TIP3   OH250416   4.314   1.761   0.765 -0.0328  0.5423 -0.5856
 9642TIP3    H150417   4.318   1.711   0.684  0.8202  1.1831 -0.9527
 9642TIP3    H250418   4.320   1.695   0.834 -1.3965 -0.0636 -1.0132
 9643TIP3   OH250419   6.331   4.000   5.106 -0.0627  0.3730  0.0299
 9643TIP3    H150420   6.358   4.076   5.157  0.6131 -0.7509  1.4219
 9643TIP3    H250421   6.411   3.973   5.060  0.5011 -1.0754  1.6996
 9644TIP3   OH250422   1.386   1.677  15.543 -0.5352 -0.0094 -0.4153
 9644TIP3    H150423   1.477   1.661  15.567 -0.5390 -1.9588 -1.5476
 9644TIP3    H250424   1.339   1.681  15.627  0.4217 -0.0706  0.1317
 9645TIP3   OH250425   6.093   3.993  16.969  0.0634  0.0134  0.0792
 9645TIP3    H150426   6.149   3.992  16.891 -0.3682 -0.6753 -0.2361
 9645TIP3    H250427   6.118   3.915  17.018  1.0526  0.9942  1.1729
 9646TIP3   OH250428   0.704   3.438  13.441  0.2403 -0.1567 -0.2568
 9646TIP3    H150429   0.661   3.387  13.509 -2.2723 -2.1524 -3.0863
 9646TIP3    H250430   0.772   3.380  13.407 -2.3342 -1.7458 -3.1863
 9647TIP3   OH250431   5.970   1.572   5.762  0.3987 -0.3436 -0.8896
 9647TIP3    H150432   5.892   1.532   5.801 -0.7379  2.1577 -0.3511
 9647TIP3    H250433   5.942   1.599   5.674  1.1184 -0.7341 -1.2421
 9648TIP3   OH250434   3.568   3.149  11.898 -0.4182  0.0109  0.4996
 9648TIP3    H150435   3.596   3.205  11.825  0.4047  1.3956  1.8150
 9648TIP3    H250436   3.646   3.140  11.953 -0.5983 -2.2874  0.4810
 9649TIP3   OH250437   4.350   0.282   6.208  0.1154 -0.1547 -0.4984
 9649TIP3    H150438   4.287   0.346   6.173 -0.4110  0.8595  2.0932
 9649TIP3    H250439   4.304   0.199   6.205 -1.8173  0.6772  2.0613
 9650TIP3   OH250440   1.370   4.933   4.565 -0.2805  0.3169 -0.4725
 9650TIP3    H150441   1.312   4.967   4.634  1.6153 -0.0366  1.4064
 9650TIP3    H250442   1.340   4.844   4.550  0.9165 -0.5868  1.9746
 9651TIP3   OH250443   5.045   4.961  12.792 -0.5560  0.3726  0.1687
 9651TIP3    H150444   5.079   4.879  12.756  1.0830  0.2180  1.9727
 9651TIP3    H250445   5.061   4.955  12.886 -0.5221  2.7030  0.3605
 9652TIP3   OH250446   2.326   3.824  11.762 -0.3525  0.1906  0.3641
 9652TIP3    H150447   2.308   3.872  11.842 -1.1859  1.5490 -0.6009
 9652TIP3    H250448   2.297   3.882  11.691  1.3544 -0.4945 -0.9861
 9653TIP3   OH250449   6.446   5.974   4.041 -0.4653 -0.1187 -0.0026
 9653TIP3    H150450   6.365   6.017   4.070 -0.4434 -0.4642  0.6076
 9653TIP3    H250451   6.419   5.922   3.965 -0.6632  0.3190 -0.2378
 9654TIP3   OH250452   1.817   6.637  13.139 -0.4014 -0.2254  0.3570
 9654TIP3    H150453   1.800   6.578  13.066  0.8514 -0.8231  0.5149
 9654TIP3    H250454   1.819   6.580  13.216 -0.4011  0.2011  0.6768
 9655TIP3   OH250455   2.580   3.918  15.831  0.4570 -0.4539 -0.1165
 9655TIP3    H150456   2.513   3.856  15.801 -0.3421 -0.0362  0.7543
 9655TIP3    H250457   2.541   4.004  15.816  1.0201 -0.1928 -0.0786
 9656TIP3   OH250458   1.599   5.905   0.949  0.9420  0.2232 -0.3472
 9656TIP3    H150459   1.679   5.930   0.904 -0.7393  3.1785 -1.9650
 9656TIP3    H250460   1.555   5.987   0.969 -1.6039 -1.2541  0.6590
 9657TIP3   OH250461   0.040   4.459  17.128  0.1184 -0.3138  0.0184
 9657TIP3    H150462  -0.004   4.541  17.148 -0.8542 -0.8915  0.3564
 9657TIP3    H250463   0.003   4.396  17.190 -0.3556 -1.3550 -1.2607
 9658TIP3   OH250464   6.299   5.919   0.295 -0.0768  0.3926 -0.1083
 9658TIP3    H150465   6.283   5.831   0.328 -0.9373  0.8246  0.6867
 9658TIP3    H250466   6.370   5.952   0.349  1.5143 -0.4408 -1.6175
 9659TIP3   OH250467   4.947   1.782  16.380  0.5262 -0.3722  0.0701
 9659TIP3    H150468   4.889   1.714  16.416 -1.1386  0.5244 -0.8343
 9659TIP3    H250469   4.951   1.849  16.448  0.8176 -0.5912  0.2753
 9660TIP3   OH250470   0.566   2.852  14.894 -0.5777 -0.0902 -0.4997
 9660TIP3    H150471   0.496   2.796  14.926 -1.3397  0.1555 -1.6885
 9660TIP3    H250472   0.577   2.827  14.802  1.8445 -1.0824 -0.0369
 9661TIP3   OH250473   4.986   0.434  14.726 -0.0083  0.3123  0.0507
 9661TIP3    H150474   5.081   0.446  14.738  0.2565 -1.5295  0.0762
 9661TIP3    H250475   4.954   0.409  14.812 -0.4212  0.3345 -0.0975
 9662TIP3   OH250476   1.235   5.206   2.279  0.1860  0.3034  0.1933
 9662TIP3    H150477   1.311   5.203   2.221  0.2417  0.0055  0.2773
 9662TIP3    H250478   1.182   5.279   2.247  0.5085  0.5118  0.1366
 9663TIP3   OH250479   5.974   5.179  13.717  0.6055 -0.0364 -0.1887
 9663TIP3    H150480   6.064   5.205  13.738  0.7672 -1.0633  0.4186
 9663TIP3    H250481   5.921   5.255  13.741  1.1950  0.1950  0.4016
 9664TIP3   OH250482   0.847   1.091  16.651  0.3660  0.3666  0.4468
 9664TIP3    H150483   0.817   1.106  16.562  1.5334 -1.6904 -0.3663
 9664TIP3    H250484   0.774   1.046  16.694  0.2504  0.2867  0.1672
 9665TIP3   OH250485   1.268   6.496  11.642  0.0323 -0.0860 -0.5238
 9665TIP3    H150486   1.333   6.557  11.606 -0.0443  0.6324  0.5091
 9665TIP3    H250487   1.186   6.545  11.639  0.2758  0.6286  2.0396
 9666TIP3   OH250488   2.240   2.299  15.245 -0.1464  0.5177 -0.0229
 9666TIP3    H150489   2.172   2.335  15.301 -2.2535 -0.3217 -1.9256
 9666TIP3    H250490   2.246   2.207  15.270 -0.0939  0.4685 -0.2112
 9667TIP3   OH250491   0.391   0.688  14.622 -0.5905  0.2516  0.0622
 9667TIP3    H150492   0.471   0.678  14.571 -0.5091  1.7298 -0.1296
 9667TIP3    H250493   0.321   0.664  14.561 -0.3922  0.5146 -0.2728
 9668TIP3   OH250494   2.400   5.795  15.600 -0.3618  0.0122  0.2837
 9668TIP3    H150495   2.489   5.826  15.588 -0.5201  1.2461  1.9660
 9668TIP3    H250496   2.410   5.712  15.648 -0.1203  1.2811  2.5728
 9669TIP3   OH250497   2.104   6.590  16.158 -0.0447  0.3211 -0.7790
 9669TIP3    H150498   2.175   6.531  16.187 -0.1733  1.0852  1.2567
 9669TIP3    H250499   2.131   6.619  16.071  0.6160 -1.7736 -1.3329
 9670TIP3   OH250500   5.508   4.738  14.286  0.4905 -0.0944  0.4793
 9670TIP3    H150501   5.526   4.656  14.240 -0.2344  0.1678 -0.2864
 9670TIP3    H250502   5.426   4.769  14.248  1.2923  1.5273 -0.0014
 9671TIP3   OH250503   0.340   0.295  11.781 -0.4384 -0.4119 -0.1625
 9671TIP3    H150504   0.413   0.337  11.826 -0.8985  1.5414 -1.1170
 9671TIP3    H250505   0.293   0.247  11.849  0.7975 -0.3647  0.7508
 9672TIP3   OH250506   1.854   4.514  12.959 -0.2589 -0.8740  0.4704
 9672TIP3    H150507   1.853   4.541  13.051 -1.8329  1.5392 -0.1749
 9672TIP3    H250508   1.847   4.595  12.910  1.0152 -2.0765 -1.8412
 9673TIP3   OH250509   6.708   1.337  12.997 -0.3153 -0.5312  0.7312
 9673TIP3    H150510   6.631   1.345  12.941 -0.0610 -1.4667  0.2428
 9673TIP3    H250511   6.676   1.360  13.085 -0.8511  0.3419  0.3254
 9674TIP3   OH250512   4.185   4.329   5.010 -0.5248  1.2321 -0.4820
 9674TIP3    H150513   4.140   4.260   5.059 -0.3091 -0.0341 -1.9737
 9674TIP3    H250514   4.122   4.356   4.943  0.7699 -0.4562 -2.5002
 9675TIP3   OH250515   1.027   1.464   4.725  0.1060 -0.1846  0.3258
 9675TIP3    H150516   1.026   1.394   4.660  0.4302  1.1694 -1.1897
 9675TIP3    H250517   1.115   1.459   4.763 -0.2708 -1.3373  1.1076
 9676TIP3   OH250518   4.980   4.005   5.959 -0.0309  0.1936 -0.0045
 9676TIP3    H150519   4.906   4.038   5.908 -0.3942 -0.9388 -0.2301
 9676TIP3    H250520   5.055   4.012   5.900  0.3878  2.7515  0.7167
 9677TIP3   OH250521   4.497   1.595  11.868 -0.2779 -0.1344  0.4086
 9677TIP3    H150522   4.441   1.556  11.934  1.1361 -2.1345  0.5265
 9677TIP3    H250523   4.502   1.529  11.799  0.8631  0.5389 -0.1921
 9678TIP3   OH250524   3.077   0.015   5.261 -0.1447  0.3563 -0.0757
 9678TIP3    H150525   3.063   0.006   5.167  2.0270 -0.4225 -0.3861
 9678TIP3    H250526   3.167   0.046   5.269  0.4963 -1.6978  1.7567
 9679TIP3   OH250527   3.620   0.371  15.200 -0.0894 -0.3507 -0.1708
 9679TIP3    H150528   3.582   0.361  15.287  1.5715 -1.1447  0.5140
 9679TIP3    H250529   3.700   0.318  15.202  0.9127  0.9930 -1.6071
 9680TIP3   OH250530   4.198   3.253   2.858 -0.0499  0.1101 -0.5305
 9680TIP3    H150531   4.234   3.175   2.816  0.0716  0.4542 -1.0581
 9680TIP3    H250532   4.170   3.309   2.786 -1.0030  0.1501 -0.1394
 9681TIP3   OH250533   0.234   6.591  16.793 -0.6075 -0.3259  1.1269
 9681TIP3    H150534   0.241   6.525  16.725  0.2445  2.0565 -1.2762
 9681TIP3    H250535   0.278   6.553  16.869  0.6318 -2.1379 -0.4280
 9682TIP3   OH250536   3.772   4.801  13.641 -0.3030  0.0923  0.0765
 9682TIP3    H150537   3.679   4.782  13.627  0.0589 -1.6949 -0.1737
 9682TIP3    H250538   3.774   4.854  13.721 -1.5156 -0.1148  0.2640
 9683TIP3   OH250539   6.426   0.238   3.666  0.1141 -0.2863  0.1480
 9683TIP3    H150540   6.461   0.158   3.705  0.4891  0.2135  0.8574
 9683TIP3    H250541   6.368   0.274   3.733 -0.5961 -0.3164 -0.4334
 9684TIP3   OH250542   5.204   1.666  14.829 -0.5353  0.2782  0.0018
 9684TIP3    H150543   5.164   1.613  14.760 -0.7069  2.2767 -1.5003
 9684TIP3    H250544   5.131   1.692  14.885 -0.9838  1.6745 -1.1908
 9685TIP3   OH250545   4.287   3.845  12.518  0.0369 -0.6626 -0.1515
 9685TIP3    H150546   4.302   3.919  12.459 -1.0453 -0.0274  0.3457
 9685TIP3    H250547   4.312   3.878  12.604 -1.0906 -0.6488  0.1794
 9686TIP3   OH250548   3.819   5.156  13.803 -0.3708 -0.8440 -0.6496
 9686TIP3    H150549   3.788   5.093  13.869  0.0502  0.2789  0.6700
 9686TIP3    H250550   3.912   5.168  13.823 -0.4683  0.2771 -0.7885
 9687TIP3   OH250551   3.247   2.583   3.222 -0.0064  0.2605 -0.2410
 9687TIP3    H150552   3.307   2.584   3.148  0.4973 -0.3134  0.1563
 9687TIP3    H250553   3.295   2.627   3.292 -1.1508  2.4534 -0.7479
 9688TIP3   OH250554   3.203   0.625  11.793  0.5236  0.9283  0.3685
 9688TIP3    H150555   3.149   0.549  11.771  1.3013  0.1734  1.0370
 9688TIP3    H250556   3.139   0.692  11.820 -0.0657 -0.2596  2.1156
 9689TIP3   OH250557   0.062   6.065  12.490 -0.3000  0.0989 -0.3684
 9689TIP3    H150558  -0.013   6.040  12.436 -0.0168  1.1039 -1.2471
 9689TIP3    H250559   0.125   5.994  12.477 -0.0377  0.5489 -1.7909
 9690TIP3   OH250560   4.512   3.086  14.285 -0.1082  0.0007 -0.2440
 9690TIP3    H150561   4.597   3.102  14.245 -0.0269 -0.4187 -0.2418
 9690TIP3    H250562   4.524   3.108  14.377  0.5594 -1.9320  0.1708
 9691TIP3   OH250563   4.548   0.923   1.594  0.3250  0.6708  0.2867
 9691TIP3    H150564   4.456   0.947   1.595  0.1405 -0.0154  0.6570
 9691TIP3    H250565   4.553   0.849   1.533  0.6722  0.8635  0.0770
 9692TIP3   OH250566   3.892   4.507  14.350  0.2523 -0.1186  0.3452
 9692TIP3    H150567   3.849   4.421  14.359 -0.0273 -0.1180 -0.8255
 9692TIP3    H250568   3.851   4.546  14.273  1.5819  0.3525 -0.1495
 9693TIP3   OH250569   5.205   2.239   4.224  0.2402 -0.4741  0.0186
 9693TIP3    H150570   5.151   2.276   4.155  0.1400  1.3837  1.0433
 9693TIP3    H250571   5.144   2.224   4.297  0.7133 -0.3998  0.4333
 9694TIP3   OH250572   4.408   2.115  10.997  0.4848  0.0258  0.2721
 9694TIP3    H150573   4.338   2.179  10.983 -0.4827 -1.3452 -1.4859
 9694TIP3    H250574   4.488   2.159  10.967 -0.2867  0.2072 -1.6654
 9695TIP3   OH250575   0.773   3.149   2.138 -0.6978 -0.5437  0.3447
 9695TIP3    H150576   0.858   3.159   2.181 -0.3266 -1.0426 -0.2458
 9695TIP3    H250577   0.776   3.060   2.102 -1.9549 -1.0189  1.3452
 9696TIP3   OH250578   5.436   2.699   2.498 -0.1905 -0.0602 -0.8218
 9696TIP3    H150579   5.501   2.759   2.461  0.3646 -0.1199  0.0330
 9696TIP3    H250580   5.451   2.702   2.592 -0.3312 -1.3569 -0.7430
 9697TIP3   OH250581   5.965   4.120   4.538 -0.7863  0.4187 -0.9200
 9697TIP3    H150582   5.875   4.099   4.565 -1.1436  2.6081 -0.1737
 9697TIP3    H250583   5.979   4.209   4.570  1.8321 -0.0205 -0.6168
 9698TIP3   OH250584   2.424   3.931  14.954 -0.1285 -0.0659 -0.1112
 9698TIP3    H150585   2.375   3.876  15.016  0.2898 -0.1287  0.1719
 9698TIP3    H250586   2.396   3.901  14.868  1.3243 -1.9173 -0.0138
 9699TIP3   OH250587   0.602   4.787  13.146  0.4593 -0.1360  0.1127
 9699TIP3    H150588   0.582   4.790  13.053  0.3995 -0.2805  0.1201
 9699TIP3    H250589   0.644   4.871  13.165  0.2510 -0.0088  0.0083
 9700TIP3   OH250590   6.417   1.774   2.159  0.3175 -0.0415  0.0815
 9700TIP3    H150591   6.355   1.827   2.108 -0.3105 -0.5550  0.2978
 9700TIP3    H250592   6.481   1.744   2.096  0.3649  0.5111 -0.1449
 9701TIP3   OH250593   1.415   3.529  16.274 -0.0914  0.3313  0.0416
 9701TIP3    H150594   1.444   3.521  16.183  1.6045  2.8736  0.2329
 9701TIP3    H250595   1.496   3.540  16.324 -0.9180 -1.7698  2.0341
 9702TIP3   OH250596   1.505   5.032  14.725  0.2432  0.3384  0.1808
 9702TIP3    H150597   1.545   4.955  14.767 -1.0323 -0.6855 -0.4308
 9702TIP3    H250598   1.492   5.006  14.634 -0.2013  1.2932 -0.0404
 9703TIP3   OH250599   1.842   0.478  13.646  0.0272  0.1039 -0.4328
 9703TIP3    H150600   1.771   0.507  13.703 -0.7439  0.0122 -1.3274
 9703TIP3    H250601   1.892   0.417  13.700  1.7802  3.0679  1.5599
 9704TIP3   OH250602   6.572   0.508   2.307 -0.1678 -0.2082 -0.4073
 9704TIP3    H150603   6.595   0.418   2.328 -0.5335 -0.7044 -1.9570
 9704TIP3    H250604   6.478   0.505   2.290 -0.1590  0.4258 -0.6066
 9705TIP3   OH250605   5.551   4.335  13.952  0.7375 -0.6949  0.0888
 9705TIP3    H150606   5.494   4.318  13.877  1.6176  1.8258 -1.2734
 9705TIP3    H250607   5.631   4.286  13.934  0.1936 -1.7893  0.5027
 9706TIP3   OH250608   0.302   3.177   5.370  0.2785  0.0063  0.4978
 9706TIP3    H150609   0.297   3.092   5.326 -1.3181 -0.1080  0.8268
 9706TIP3    H250610   0.261   3.238   5.309 -2.0942 -0.1817  1.7833
 9707TIP3   OH250611   2.130   3.765  15.777 -0.4938  0.4224  0.6496
 9707TIP3    H150612   2.162   3.692  15.830 -0.6399 -0.0198  0.1375
 9707TIP3    H250613   2.086   3.823  15.839  0.5000  0.5913  1.2240
 9708TIP3   OH250614   2.095   0.670  13.541 -0.5457  0.9359  0.3895
 9708TIP3    H150615   2.178   0.697  13.582 -0.6200  0.5555  0.7929
 9708TIP3    H250616   2.030   0.679  13.611 -1.2304  3.1456 -0.4269
 9709TIP3   OH250617   0.662   1.874   3.258  0.0161  0.0282 -0.0516
 9709TIP3    H150618   0.619   1.959   3.269  2.4339  1.1279  2.1057
 9709TIP3    H250619   0.741   1.894   3.209  0.9543 -0.8154  1.0630
 9710TIP3   OH250620   1.071   5.283   1.901  0.1401  0.5000  0.2572
 9710TIP3    H150621   1.032   5.239   1.976  0.9051 -1.5284 -0.4632
 9710TIP3    H250622   0.997   5.312   1.849 -0.5205 -2.4219 -0.6104
 9711TIP3   OH250623   2.231   6.019   1.427  0.8059  0.2040  0.0865
 9711TIP3    H150624   2.220   5.983   1.515 -0.4586 -1.7931 -0.8282
 9711TIP3    H250625   2.149   6.065   1.409  0.9946  0.4676 -0.1061
 9712TIP3   OH250626   5.855   5.817  10.699  0.2737 -0.0729  0.2598
 9712TIP3    H150627   5.930   5.818  10.759  2.3882  2.8961 -2.0924
 9712TIP3    H250628   5.871   5.741  10.643  1.0448  0.0332  0.3282
 9713TIP3   OH250629   3.088   0.926   5.284  0.3111  0.0409  0.3388
 9713TIP3    H150630   3.122   0.912   5.372 -1.0003 -0.0366  0.8687
 9713TIP3    H250631   3.022   0.994   5.294  1.5428  1.4926 -0.9659
 9714TIP3   OH250632   4.448   6.841   0.667  0.8515  0.0060 -0.2615
 9714TIP3    H150633   4.466   6.933   0.651  0.4409  0.2447  0.6026
 9714TIP3    H250634   4.532   6.797   0.659  1.3965  0.7288  1.1891
 9715TIP3   OH250635   0.218   5.718   0.315  0.1375  0.2688  0.1977
 9715TIP3    H150636   0.126   5.698   0.300  0.5860 -1.7816 -0.0596
 9715TIP3    H250637   0.253   5.737   0.228 -0.2718  2.3538  0.4323
 9716TIP3   OH250638   5.379   4.841  12.408 -0.0270  0.0842 -0.4379
 9716TIP3    H150639   5.413   4.917  12.455  0.1071  0.2149 -0.7472
 9716TIP3    H250640   5.425   4.841  12.324  0.7092 -0.9004 -0.0585
 9717TIP3   OH250641   4.754   2.641   6.109 -0.3048 -0.0279 -0.4513
 9717TIP3    H150642   4.793   2.713   6.059  0.0914 -0.0660 -0.1978
 9717TIP3    H250643   4.780   2.658   6.199  0.1027 -0.6963 -0.4407
 9718TIP3   OH250644   3.575   0.881   4.249  0.2224  0.6999  0.0785
 9718TIP3    H150645   3.641   0.837   4.302 -1.0965 -1.0019  0.3900
 9718TIP3    H250646   3.626   0.940   4.192  2.2088 -1.8067 -0.9587
 9719TIP3   OH250647   3.267   6.821   0.657 -0.4655 -0.0094 -0.1093
 9719TIP3    H150648   3.323   6.785   0.589  1.1634 -0.6596  1.4981
 9719TIP3    H250649   3.193   6.861   0.610  0.6326 -0.3666 -2.2111
 9720TIP3   OH250650   0.071   5.184   3.220 -0.5241 -0.0521  0.0973
 9720TIP3    H150651   0.058   5.278   3.209 -1.9567 -0.1037  1.0764
 9720TIP3    H250652  -0.017   5.146   3.213  0.2139 -1.5640 -2.1245
 9721TIP3   OH250653   0.666   4.942   0.714  0.2576 -0.0334  0.0517
 9721TIP3    H150654   0.695   5.009   0.776  2.0310  2.0024 -2.6940
 9721TIP3    H250655   0.745   4.919   0.666 -0.8665 -2.1243 -0.9160
 9722TIP3   OH250656   2.437   2.963   0.248  0.5506 -0.2540 -0.2045
 9722TIP3    H150657   2.522   3.007   0.242  0.5618 -0.3466 -0.7194
 9722TIP3    H250658   2.449   2.879   0.204  0.1558 -0.2122 -0.4001
 9723TIP3   OH250659   3.005   1.982  15.711  0.2072 -0.5562  0.2776
 9723TIP3    H150660   3.061   1.942  15.777  0.5518 -0.6425 -0.0678
 9723TIP3    H250661   2.951   1.910  15.679 -0.4065 -0.3897  0.9138
 9724TIP3   OH250662   3.260   6.548   6.095 -0.8833  0.0987 -0.9303
 9724TIP3    H150663   3.295   6.505   6.173  1.3614  0.2484 -1.7695
 9724TIP3    H250664   3.196   6.611   6.129  0.8201  0.9578  0.9304
 9725TIP3   OH250665   3.289   3.268  14.139  0.3168 -0.1143 -0.0030
 9725TIP3    H150666   3.200   3.268  14.103  0.7232  0.4581 -1.0593
 9725TIP3    H250667   3.307   3.176  14.158 -1.0659 -0.0737  1.7349
 9726TIP3   OH250668   5.698   5.147   3.708 -0.2191 -0.0803  0.5256
 9726TIP3    H150669   5.721   5.086   3.637  1.4022 -0.7475  1.5657
 9726TIP3    H250670   5.610   5.178   3.685  0.8321  0.9502 -2.5880
 9727TIP3   OH250671   1.483   6.069  12.821 -0.4044  0.6553 -0.2840
 9727TIP3    H150672   1.494   6.154  12.863 -2.4956  0.2156  1.3369
 9727TIP3    H250673   1.433   6.087  12.742 -0.1646  0.9982 -0.3607
 9728TIP3   OH250674   2.034   3.842   6.404 -0.3192  0.2493 -0.6036
 9728TIP3    H150675   1.964   3.885   6.356  0.3149  1.1405 -0.7730
 9728TIP3    H250676   1.995   3.817   6.487 -0.8463  0.7122 -0.7048
 9729TIP3   OH250677   4.593   0.664   2.989  0.2775 -0.1588  0.2441
 9729TIP3    H150678   4.527   0.640   3.055 -0.9443  0.9598 -0.5251
 9729TIP3    H250679   4.626   0.580   2.957 -0.0630 -0.7291  1.3321
 9730TIP3   OH250680   5.858   2.023   5.564  0.3415 -0.4039 -0.5150
 9730TIP3    H150681   5.911   2.040   5.487  2.1322  0.7778  0.8847
 9730TIP3    H250682   5.863   2.104   5.615 -1.3295 -0.9118  0.5433
 9731TIP3   OH250683   2.803   1.782   5.055  0.4277 -0.2212 -0.1145
 9731TIP3    H150684   2.783   1.875   5.067  0.9269 -0.0153 -0.7953
 9731TIP3    H250685   2.747   1.737   5.118 -0.9441  0.4462 -0.7901
 9732TIP3   OH250686   5.982   4.403  16.996  0.7717  0.0939 -0.0871
 9732TIP3    H150687   5.936   4.325  16.966 -1.7315  0.4830  2.3663
 9732TIP3    H250688   6.054   4.370  17.049 -0.2752 -0.6150  0.9373
 9733TIP3   OH250689   5.568   5.841  10.710  0.1296 -0.2539 -0.5596
 9733TIP3    H150690   5.654   5.820  10.675 -0.2561 -1.4407 -0.8584
 9733TIP3    H250691   5.509   5.833  10.636 -0.6082 -2.2057  0.1502
 9734TIP3   OH250692   3.275   4.673  12.250  1.3073  0.2046  0.1280
 9734TIP3    H150693   3.290   4.639  12.161 -0.6447 -1.0247  0.2095
 9734TIP3    H250694   3.301   4.765  12.245  0.2464  0.4517 -2.0323
 9735TIP3   OH250695   6.561   5.036  13.110 -0.2174 -0.0461 -0.3112
 9735TIP3    H150696   6.538   5.128  13.116  0.5866  0.1051  0.6458
 9735TIP3    H250697   6.480   4.993  13.082 -0.6656  0.9078 -0.5105
 9736TIP3   OH250698   5.256   4.888  17.072 -1.0163 -0.0790 -0.3652
 9736TIP3    H150699   5.238   4.795  17.056 -1.1321 -0.3677  1.3240
 9736TIP3    H250700   5.288   4.891  17.162 -1.1755  1.5505 -0.3437
 9737TIP3   OH250701   3.333   1.138  11.147 -0.1590  0.6392 -0.2115
 9737TIP3    H150702   3.397   1.106  11.211 -2.5271 -2.4860  0.8401
 9737TIP3    H250703   3.353   1.089  11.067  0.1320  1.3382 -0.5723
 9738TIP3   OH250704   0.262   0.306   3.997 -0.6817 -0.0973 -0.4472
 9738TIP3    H150705   0.210   0.346   3.927 -0.7781 -0.3980 -0.5476
 9738TIP3    H250706   0.342   0.276   3.953 -0.3685  0.4532 -0.2762
 9739TIP3   OH250707   5.482   2.386   1.856 -0.3582  0.2222 -0.1367
 9739TIP3    H150708   5.412   2.327   1.827  0.6465 -0.5725 -1.0597
 9739TIP3    H250709   5.515   2.346   1.936  0.8148 -0.9469 -1.1523
 9740TIP3   OH250710   3.303   4.495  16.606  0.6107 -0.2116 -0.0703
 9740TIP3    H150711   3.393   4.463  16.614  1.0707  1.0580  0.0205
 9740TIP3    H250712   3.288   4.547  16.685 -0.1647 -0.3012 -0.1473
 9741TIP3   OH250713   5.350   1.378  15.492 -0.1077  0.1439  0.2546
 9741TIP3    H150714   5.417   1.313  15.469 -0.0913 -0.3210  1.5463
 9741TIP3    H250715   5.349   1.438  15.417 -0.4014 -1.5355 -1.1511
 9742TIP3   OH250716   1.756   6.711   4.530  0.3534 -0.1669 -0.1312
 9742TIP3    H150717   1.678   6.747   4.487  1.5481  3.2370  0.2156
 9742TIP3    H250718   1.804   6.668   4.460 -0.5044  0.1517 -0.9409
 9743TIP3   OH250719   3.457   2.792  15.915  0.3481  0.0544  0.1557
 9743TIP3    H150720   3.458   2.699  15.937 -0.1538  0.6037  2.9750
 9743TIP3    H250721   3.430   2.796  15.824 -0.6423 -2.5139  0.2751
 9744TIP3   OH250722   6.805   5.875   5.056 -0.5849 -0.2226 -0.4929
 9744TIP3    H150723   6.797   5.804   4.993 -0.9813 -0.8851  0.2808
 9744TIP3    H250724   6.752   5.946   5.019  0.2813 -0.0997 -1.5543
 9745TIP3   OH250725   1.994   4.231  14.824 -0.8521 -0.3702 -0.6013
 9745TIP3    H150726   1.941   4.210  14.901  0.1286 -0.5693  0.0427
 9745TIP3    H250727   1.930   4.245  14.754 -1.7339 -0.9967  0.0455
 9746TIP3   OH250728   6.210   1.642   4.407 -0.1269 -0.6120  0.3758
 9746TIP3    H150729   6.178   1.628   4.496 -1.0197 -0.8569  0.0273
 9746TIP3    H250730   6.228   1.554   4.374 -1.6004 -0.6712 -0.3239
 9747TIP3   OH250731   0.188   0.717   5.958 -0.1321 -0.4434 -0.0940
 9747TIP3    H150732   0.199   0.745   5.868  0.0585 -0.4486 -0.0716
 9747TIP3    H250733   0.275   0.721   5.996 -0.2698 -0.0997  0.1901
 9748TIP3   OH250734   0.731   4.768   3.970 -0.0165  0.2581  0.0731
 9748TIP3    H150735   0.655   4.715   3.993  0.0656 -0.2093 -0.7079
 9748TIP3    H250736   0.733   4.768   3.875  0.5876  0.8140  0.0739
 9749TIP3   OH250737   5.869   1.782   6.416 -0.3030 -0.7133 -0.2301
 9749TIP3    H150738   5.820   1.862   6.436 -0.6503 -1.3209  1.6447
 9749TIP3    H250739   5.818   1.738   6.349 -1.0033 -0.1648 -0.0646
 9750TIP3   OH250740   3.342   1.190  15.450 -0.1646 -0.0220  0.0851
 9750TIP3    H150741   3.419   1.168  15.397  1.8704  4.7655  0.5136
 9750TIP3    H250742   3.282   1.230  15.387  0.5081  1.9384  0.6173
 9751TIP3   OH250743   4.862   3.124  11.093 -0.0880  0.1641  0.1857
 9751TIP3    H150744   4.786   3.151  11.042 -0.4031  0.5799  0.8696
 9751TIP3    H250745   4.873   3.031  11.071 -1.0048  0.0049  0.3386
 9752TIP3   OH250746   1.904   0.442   5.407  0.0702  0.1889 -0.1735
 9752TIP3    H150747   1.869   0.435   5.318  0.1169  0.3907 -0.2084
 9752TIP3    H250748   1.845   0.388   5.460 -0.6696  1.0318 -0.1273
 9753TIP3   OH250749   4.316   6.828  13.925 -0.3080  0.0846  0.5202
 9753TIP3    H150750   4.376   6.808  13.997  0.6247 -0.4815 -0.3863
 9753TIP3    H250751   4.254   6.755  13.924  0.3568 -0.4807  0.0550
 9754TIP3   OH250752   6.645   3.333  14.119 -0.5073 -0.0297  0.0468
 9754TIP3    H150753   6.552   3.353  14.120 -0.2769  1.3019 -1.5524
 9754TIP3    H250754   6.660   3.289  14.036  0.2902 -0.2529  0.2997
 9755TIP3   OH250755   6.763   5.219   5.440 -0.0676 -0.5183  0.0203
 9755TIP3    H150756   6.819   5.218   5.362  0.9080  1.4595  0.6303
 9755TIP3    H250757   6.694   5.155   5.421  1.2667 -1.5650 -1.6022
 9756TIP3   OH250758   0.455   0.353   3.730  0.3320 -0.0813 -0.4395
 9756TIP3    H150759   0.426   0.284   3.669 -2.4845  0.4484  0.1782
 9756TIP3    H250760   0.387   0.420   3.724 -0.0924 -0.0152  3.2897
 9757TIP3   OH250761   1.805   1.171  15.911 -0.7101  0.9460 -0.2605
 9757TIP3    H150762   1.728   1.145  15.960 -1.4025  0.7287 -1.4358
 9757TIP3    H250763   1.849   1.235  15.968 -0.4472 -0.6653  1.4645
 9758TIP3   OH250764   1.884   5.891   2.899  0.5022  0.0581 -0.3166
 9758TIP3    H150765   1.887   5.974   2.947  2.5709 -0.5781  0.7761
 9758TIP3    H250766   1.793   5.861   2.909  0.6590  0.2619  2.7931
 9759TIP3   OH250767   0.976   6.442   6.535 -0.3564  0.3553  0.6862
 9759TIP3    H150768   0.972   6.369   6.597  0.7370  0.4785  0.9125
 9759TIP3    H250769   1.069   6.456   6.519 -0.6035  0.1914 -1.1721
 9760TIP3   OH250770   6.711   2.809  15.051 -0.2975  0.5494 -0.1826
 9760TIP3    H150771   6.708   2.881  14.988  0.5085 -0.0997 -0.9998
 9760TIP3    H250772   6.621   2.775  15.054 -0.1063 -0.3064 -2.1019
 9761TIP3   OH250773   2.502   3.979  14.542  0.1715 -0.1485 -0.0924
 9761TIP3    H150774   2.534   4.033  14.469 -1.8279  2.8074  0.9918
 9761TIP3    H250775   2.525   4.030  14.620 -2.1359 -0.6311  0.9853
 9762TIP3   OH250776   3.289   0.792  12.938 -0.8793  0.2612 -0.3704
 9762TIP3    H150777   3.365   0.847  12.958 -0.9904  0.6052 -0.8719
 9762TIP3    H250778   3.254   0.828  12.856 -0.4950 -1.0208 -1.1326
 9763TIP3   OH250779   6.522   0.938   5.024  0.4448 -0.1609 -0.6159
 9763TIP3    H150780   6.614   0.914   5.029  1.0026  1.8075 -0.5209
 9763TIP3    H250781   6.514   1.013   5.082 -1.0602  0.1762 -1.2147
 9764TIP3   OH250782   5.711   4.526  10.215  0.5370 -0.5031 -0.3354
 9764TIP3    H150783   5.802   4.529  10.187  0.4182 -2.4634 -1.1272
 9764TIP3    H250784   5.703   4.443  10.262 -0.4345  0.4898  1.3737
 9765TIP3   OH250785   3.173   0.899  16.468  0.3392  0.1809 -0.1567
 9765TIP3    H150786   3.204   0.809  16.461  1.3241  0.4599  0.4717
 9765TIP3    H250787   3.252   0.951  16.481 -0.3776  0.7734  2.6582
 9766TIP3   OH250788   1.881   2.892   6.130 -0.0515  0.1818 -0.6462
 9766TIP3    H150789   1.846   2.975   6.161 -0.0585  0.1296 -0.5121
 9766TIP3    H250790   1.882   2.836   6.208 -1.5584 -0.4638 -1.0419
 9767TIP3   OH250791   3.859   6.276   4.297 -0.2516 -0.4920 -0.4660
 9767TIP3    H150792   3.940   6.324   4.277 -0.5642  0.5697  0.6991
 9767TIP3    H250793   3.886   6.207   4.358 -0.0286 -0.9634 -1.0845
 9768TIP3   OH250794   1.659   5.738   2.059 -0.3219 -0.3636 -0.1200
 9768TIP3    H150795   1.662   5.647   2.029 -0.9662 -0.0026 -1.3618
 9768TIP3    H250796   1.685   5.790   1.983  1.8054  0.4348  1.0826
 9769TIP3   OH250797   0.319   2.154   5.227  0.7447  0.2720 -0.7905
 9769TIP3    H150798   0.341   2.115   5.311  1.4454 -0.6304 -1.3684
 9769TIP3    H250799   0.224   2.161   5.227  0.3892 -3.0415 -1.2836
 9770TIP3   OH250800   1.515   5.310   4.202 -0.3258 -0.5413  0.0135
 9770TIP3    H150801   1.598   5.333   4.160 -0.6396  0.0695 -0.2710
 9770TIP3    H250802   1.475   5.246   4.143  0.5008 -1.7869  0.7582
 9771TIP3   OH250803   1.912   1.207   5.714  0.0280  0.5000 -0.0635
 9771TIP3    H150804   1.905   1.123   5.668  2.0983  0.2650 -0.0095
 9771TIP3    H250805   1.958   1.186   5.795 -0.6458  1.4769  0.5858
 9772TIP3   OH250806   6.836   4.362  14.475 -0.2268  0.6035  0.4383
 9772TIP3    H150807   6.805   4.328  14.391  1.1242 -2.1112  0.9037
 9772TIP3    H250808   6.769   4.424  14.502 -1.9802 -0.3130 -1.4858
 9773TIP3   OH250809   2.552   1.475  15.475 -0.0244 -0.3160 -0.0367
 9773TIP3    H150810   2.613   1.447  15.407  0.7152  1.2076 -0.0283
 9773TIP3    H250811   2.475   1.504  15.427  0.4322  0.6002 -0.2358
 9774TIP3   OH250812   2.224   6.518   0.444  0.2792 -0.0349  0.2284
 9774TIP3    H150813   2.242   6.451   0.378  2.3284 -0.2018  0.8668
 9774TIP3    H250814   2.226   6.601   0.396 -1.7220 -0.3564 -0.4714
 9775TIP3   OH250815   1.219   3.691   3.261  0.2953  0.1798 -0.3599
 9775TIP3    H150816   1.187   3.743   3.334  0.2477  0.5444 -0.6380
 9775TIP3    H250817   1.155   3.620   3.252 -0.1831  0.6352 -0.6098
 9776TIP3   OH250818   4.141   0.797  13.598  0.3686 -0.3866  0.0815
 9776TIP3    H150819   4.183   0.882  13.586  0.1109 -0.1694  0.6845
 9776TIP3    H250820   4.203   0.745  13.649  0.3919 -0.4515 -0.0125
 9777TIP3   OH250821   0.161   3.760   1.255  0.1253 -0.1442 -0.2875
 9777TIP3    H150822   0.191   3.675   1.289 -2.7748 -1.3836 -0.5034
 9777TIP3    H250823   0.079   3.776   1.302  0.6097  2.6236 -0.2346
 9778TIP3   OH250824   5.096   1.842   5.284 -0.5112  0.2228  0.0755
 9778TIP3    H150825   5.092   1.904   5.357  0.2658  0.3135  0.0510
 9778TIP3    H250826   5.009   1.844   5.245 -0.8462  0.3876  0.8265
 9779TIP3   OH250827   4.743   2.793  13.698  0.0411  0.0645  0.0949
 9779TIP3    H150828   4.709   2.744  13.774 -0.6724  1.7872  0.9418
 9779TIP3    H250829   4.781   2.872  13.736  1.8584 -0.1339 -1.1717
 9780TIP3   OH250830   5.672   5.949   1.128 -0.0848 -0.4978 -0.9294
 9780TIP3    H150831   5.667   5.854   1.139  0.7613 -0.4455  0.0500
 9780TIP3    H250832   5.620   5.985   1.200  0.3415 -0.2199 -0.7501
 9781TIP3   OH250833   5.770   3.196   0.537  0.7372 -0.2971 -0.0525
 9781TIP3    H150834   5.841   3.205   0.474  0.5558 -0.8052 -0.3415
 9781TIP3    H250835   5.768   3.103   0.558 -0.4046 -0.4575 -0.7385
 9782TIP3   OH250836   3.913   1.354  13.119 -0.2533  0.5580  0.3358
 9782TIP3    H150837   3.874   1.267  13.116  0.2894  0.3071  0.5470
 9782TIP3    H250838   3.859   1.402  13.183 -0.7464  0.4793 -0.0159
 9783TIP3   OH250839   3.509   4.142   5.186  0.5246  0.1802  0.5799
 9783TIP3    H150840   3.487   4.235   5.186  0.2177  0.1264  1.7640
 9783TIP3    H250841   3.516   4.119   5.093  1.0908  1.4837  0.2701
 9784TIP3   OH250842   2.378   1.174  16.623 -0.4779 -0.0177  0.3614
 9784TIP3    H150843   2.398   1.176  16.530  2.9313 -2.0437  0.8843
 9784TIP3    H250844   2.309   1.108  16.632 -0.6368 -0.0037 -0.6735
 9785TIP3   OH250845   4.753   4.832   1.520 -0.4876  0.1294 -0.3383
 9785TIP3    H150846   4.672   4.818   1.472 -1.1684  0.3516  0.6973
 9785TIP3    H250847   4.808   4.756   1.499 -2.6896 -2.4423  2.3779
 9786TIP3   OH250848   2.367   3.412   3.218  0.0709  0.1397 -0.0459
 9786TIP3    H150849   2.443   3.399   3.161  0.2475 -1.1017  0.4352
 9786TIP3    H250850   2.399   3.388   3.305 -0.7512  0.0491  0.2332
 9787TIP3   OH250851   2.417   5.269   2.899 -0.3940  0.5550 -0.1057
 9787TIP3    H150852   2.509   5.251   2.917  0.8031  3.1608 -2.7439
 9787TIP3    H250853   2.415   5.361   2.875 -4.0917  1.1305  1.7181
 9788TIP3   OH250854   1.407   2.334  13.734  0.1083  0.1523  0.0191
 9788TIP3    H150855   1.327   2.318  13.685 -0.4550 -0.4214  1.0931
 9788TIP3    H250856   1.477   2.327  13.669 -0.7796  2.1710 -1.2534
 9789TIP3   OH250857   5.362   0.884   6.435  0.4422  0.2277 -0.0696
 9789TIP3    H150858   5.277   0.855   6.402  0.6411  0.7340 -1.0898
 9789TIP3    H250859   5.347   0.905   6.527 -0.4251 -0.1094 -0.1255
 9790TIP3   OH250860   2.653   5.913  15.532  0.7102 -0.0732  0.1928
 9790TIP3    H150861   2.730   5.857  15.538  1.1534  0.6097  1.3774
 9790TIP3    H250862   2.685   5.993  15.490  0.7326  0.3005  0.8900
 9791TIP3   OH250863   5.564   4.336  14.729  0.1184 -0.8180  0.3993
 9791TIP3    H150864   5.570   4.266  14.795  0.1415 -1.5050 -0.3156
 9791TIP3    H250865   5.483   4.317  14.681  0.7116 -1.0386 -0.5455
 9792TIP3   OH250866   2.036   1.733   2.964  0.2641 -0.5348  0.1789
 9792TIP3    H150867   2.034   1.708   3.057 -0.5990 -1.3106 -0.0396
 9792TIP3    H250868   2.113   1.689   2.929  0.9776  0.2999  0.6666
 9793TIP3   OH250869   4.959   3.544   5.176  0.0136  0.5545  0.2774
 9793TIP3    H150870   4.926   3.529   5.265 -2.0717 -0.0858 -0.5283
 9793TIP3    H250871   4.965   3.456   5.138 -1.2008  0.9188 -0.8571
 9794TIP3   OH250872   4.660   1.813   4.274 -0.1440  0.2607 -0.5557
 9794TIP3    H150873   4.687   1.830   4.365 -0.4906  2.9587 -0.8758
 9794TIP3    H250874   4.572   1.777   4.281 -0.7581  1.7997  0.1984
 9795TIP3   OH250875   3.580   3.852   6.133  0.2803  0.5824  0.2488
 9795TIP3    H150876   3.653   3.856   6.071 -0.6304 -1.7312 -1.0914
 9795TIP3    H250877   3.526   3.929   6.112  0.7498  0.6268 -0.8473
 9796TIP3   OH250878   6.337   5.799   2.952 -0.3051 -0.0708  0.5145
 9796TIP3    H150879   6.301   5.857   3.019 -0.2340  0.6790 -0.0844
 9796TIP3    H250880   6.431   5.818   2.952 -0.4872  0.9907 -0.7720
 9797TIP3   OH250881   2.738   4.720  13.162 -0.2582  0.6810  0.3662
 9797TIP3    H150882   2.751   4.665  13.239 -0.5418  1.3342  0.8843
 9797TIP3    H250883   2.823   4.721  13.119 -0.4363 -0.8077 -0.0969
 9798TIP3   OH250884   4.868   3.027   5.307  0.6205  0.2288 -0.1534
 9798TIP3    H150885   4.800   3.056   5.368 -0.3099 -0.2438 -0.9473
 9798TIP3    H250886   4.936   2.990   5.363 -0.5307 -0.8552  0.5865
 9799TIP3   OH250887   4.865   6.176   1.779 -0.5295  0.0814  0.0654
 9799TIP3    H150888   4.848   6.198   1.870  0.1558  0.1504  0.1818
 9799TIP3    H250889   4.890   6.083   1.780  0.4193  0.3312  0.0748
 9800TIP3   OH250890   2.107   6.102  17.066  0.0602 -0.3323 -0.0907
 9800TIP3    H150891   2.134   6.192  17.086  0.4842 -1.1107  3.3914
 9800TIP3    H250892   2.177   6.068  17.011  1.5338  0.5517  1.1546
 9801TIP3   OH250893   4.119   6.315   5.154  0.5563  0.6778 -0.5737
 9801TIP3    H150894   4.178   6.387   5.174 -0.1159  0.7383  1.4018
 9801TIP3    H250895   4.138   6.249   5.221 -1.7211  0.8022  0.2927
 9802TIP3   OH250896   3.419   5.400   0.100  0.4849 -0.0940 -0.2472
 9802TIP3    H150897   3.365   5.438   0.031  0.9533  0.0004 -0.5720
 9802TIP3    H250898   3.474   5.336   0.055  2.5712  1.7224 -0.4473
 9803TIP3   OH250899   3.789   2.875   5.600  0.8012  0.2163  0.1837
 9803TIP3    H150900   3.721   2.942   5.594 -0.9899 -1.1474  2.9267
 9803TIP3    H250901   3.802   2.862   5.694  2.3359 -2.0336 -0.2628
 9804TIP3   OH250902   4.301   2.203  16.181  0.2071 -0.0541  0.2268
 9804TIP3    H150903   4.317   2.158  16.098 -1.5184  0.7671 -0.6076
 9804TIP3    H250904   4.343   2.289  16.169  2.0922 -0.8055  1.1891
 9805TIP3   OH250905   6.348   5.879   4.478 -0.6909  0.1661 -0.1821
 9805TIP3    H150906   6.406   5.817   4.523  0.1182 -0.0723 -1.4987
 9805TIP3    H250907   6.388   5.964   4.494 -0.9937  0.2041  0.4097
 9806TIP3   OH250908   6.730   3.262   1.107  0.0565  0.8212  0.2965
 9806TIP3    H150909   6.680   3.218   1.175 -1.9245  2.8642  0.2911
 9806TIP3    H250910   6.675   3.336   1.080  1.9385  1.6474 -1.6469
 9807TIP3   OH250911   1.314   3.073   1.768 -0.7002 -0.6470  0.1486
 9807TIP3    H150912   1.291   3.006   1.833  0.1356 -0.5222  0.5924
 9807TIP3    H250913   1.235   3.126   1.760 -0.6953 -0.4222  1.3772
 9808TIP3   OH250914   1.816   5.047  13.292  0.9774 -0.4703 -0.1672
 9808TIP3    H150915   1.735   5.062  13.340  1.0837 -2.4095  0.7287
 9808TIP3    H250916   1.801   4.965  13.245  3.2927 -2.4655  2.2684
 9809TIP3   OH250917   6.722   2.414   0.259  0.6235 -0.2159  0.0938
 9809TIP3    H150918   6.667   2.492   0.247 -0.0454 -0.4947  1.1508
 9809TIP3    H250919   6.811   2.448   0.263  0.5667  0.2478 -1.7104
 9810TIP3   OH250920   2.031   5.464  11.607 -0.0853  0.2317  0.0413
 9810TIP3    H150921   1.986   5.515  11.674 -1.1317  0.2502 -0.6572
 9810TIP3    H250922   2.090   5.407  11.656 -1.0792  0.0023  1.0137
 9811TIP3   OH250923   0.814   0.776  15.202 -0.1557 -0.6363 -0.3222
 9811TIP3    H150924   0.899   0.745  15.169 -0.2341 -0.8870 -0.2925
 9811TIP3    H250925   0.769   0.810  15.124 -0.3687 -1.2936 -0.4917
 9812TIP3   OH250926   2.277   5.199   1.467 -0.1380  0.2237 -0.1744
 9812TIP3    H150927   2.185   5.175   1.465 -0.5827  1.7987  0.0570
 9812TIP3    H250928   2.315   5.141   1.534 -0.5809 -1.5518 -1.3954
 9813TIP3   OH250929   2.609   6.112  16.944  0.2535  0.9173 -0.3740
 9813TIP3    H150930   2.626   6.040  16.883  1.6754  1.0195 -0.1466
 9813TIP3    H250931   2.627   6.191  16.893  0.4601  1.0363 -0.1208
 9814TIP3   OH250932   0.690   4.751   2.938 -0.4341 -0.4688 -0.0007
 9814TIP3    H150933   0.670   4.747   3.031 -0.1731 -0.8339  0.0431
 9814TIP3    H250934   0.614   4.793   2.898  0.1298  1.1894  0.5797
 9815TIP3   OH250935   4.713   2.516   0.894 -0.0018 -0.4808  0.6354
 9815TIP3    H150936   4.734   2.529   0.801  0.1753  0.9551  0.8535
 9815TIP3    H250937   4.729   2.423   0.909 -0.6420 -0.8669 -0.9170
 9816TIP3   OH250938   3.640   1.627  10.584 -0.3709  0.2234 -0.1716
 9816TIP3    H150939   3.707   1.599  10.521  0.0993  0.8908  0.0278
 9816TIP3    H250940   3.686   1.684  10.645 -0.5486 -1.3643  1.5190
 9817TIP3   OH250941   6.429   6.140  15.129  0.2102  0.2163 -0.0641
 9817TIP3    H150942   6.383   6.178  15.204  0.2328 -1.0487  0.6143
 9817TIP3    H250943   6.521   6.138  15.156  0.4303  1.0754 -0.7061
 9818TIP3   OH250944   3.409   4.318   4.957 -0.2206  0.1979  0.4336
 9818TIP3    H150945   3.439   4.252   4.893  0.4196  0.9285 -0.0400
 9818TIP3    H250946   3.377   4.390   4.904 -1.2763  0.1266  0.9563
 9819TIP3   OH250947   6.407   2.973  12.601  0.4885 -0.3014  0.8084
 9819TIP3    H150948   6.333   3.013  12.647 -0.0485 -0.5119  0.1499
 9819TIP3    H250949   6.452   3.047  12.559  0.9500 -0.1150  1.6015
 9820TIP3   OH250950   4.845   2.864  14.160 -0.4434  0.3942  0.6549
 9820TIP3    H150951   4.914   2.829  14.103 -0.6214  1.8180 -0.5018
 9820TIP3    H250952   4.888   2.933  14.210 -0.4523 -0.4057  1.7827
 9821TIP3   OH250953   2.609   5.913   3.664  0.1591 -0.5310  0.1157
 9821TIP3    H150954   2.698   5.948   3.663  0.5001 -1.3637  0.3909
 9821TIP3    H250955   2.571   5.947   3.745 -0.4147  1.3234 -0.8714
 9822TIP3   OH250956   2.121   4.401   3.118 -0.3342  0.1917 -0.0725
 9822TIP3    H150957   2.034   4.364   3.107 -1.7089  0.8518  5.3351
 9822TIP3    H250958   2.106   4.486   3.161  2.9520  0.9813 -0.2075
 9823TIP3   OH250959   4.526   1.862  13.339 -0.0115 -0.1434  0.0855
 9823TIP3    H150960   4.569   1.790  13.386 -0.0127  0.1160  0.4829
 9823TIP3    H250961   4.462   1.818  13.283  0.7893 -0.5415 -0.5541
 9824TIP3   OH250962   2.296   4.825  15.604  0.1688 -0.2351 -0.0779
 9824TIP3    H150963   2.293   4.770  15.682  0.1946 -0.2421 -0.0818
 9824TIP3    H250964   2.363   4.784  15.548 -0.9280 -1.1255 -0.7836
 9825TIP3   OH250965   4.583   1.487   5.159 -0.3437 -0.0356 -0.1864
 9825TIP3    H150966   4.585   1.432   5.081  1.6672 -0.7177  0.2944
 9825TIP3    H250967   4.662   1.465   5.207 -0.9470  1.1981  1.5020
 9826TIP3   OH250968   1.355   1.126   4.307  0.4679 -0.0040 -0.2272
 9826TIP3    H150969   1.351   1.221   4.320  0.1158 -0.0263 -0.1583
 9826TIP3    H250970   1.361   1.115   4.213  1.9613  0.1280 -0.1657
 9827TIP3   OH250971   2.432   2.948  11.596 -0.0997  0.0933  0.7093
 9827TIP3    H150972   2.393   2.862  11.583  0.2636  0.0690 -0.3754
 9827TIP3    H250973   2.363   3.000  11.637 -0.9694 -0.1963 -0.3408
 9828TIP3   OH250974   0.279   5.765   2.430 -0.3613  0.0190 -0.9318
 9828TIP3    H150975   0.368   5.744   2.401  0.7724  2.8027  0.1413
 9828TIP3    H250976   0.265   5.710   2.507  1.4385  1.1670  0.2977
 9829TIP3   OH250977   4.230   0.513  16.430 -0.1699 -0.5831 -0.7584
 9829TIP3    H150978   4.219   0.599  16.390 -0.7914 -0.0395  0.5295
 9829TIP3    H250979   4.314   0.517  16.475  0.4015 -1.1042 -1.7310
 9830TIP3   OH250980   4.003   2.625   4.675  0.4003 -0.1898  0.6784
 9830TIP3    H150981   4.056   2.550   4.702  1.4519  0.1941 -0.2017
 9830TIP3    H250982   3.946   2.643   4.750  0.6143 -1.4230  1.1632
 9831TIP3   OH250983   5.313   0.684  13.748 -0.3015 -0.1815  0.0960
 9831TIP3    H150984   5.233   0.677  13.799 -1.1049  0.5042 -1.0308
 9831TIP3    H250985   5.308   0.613  13.684  0.1870 -0.3907  0.2874
 9832TIP3   OH250986   2.782   6.097  13.486  0.3167  0.4063 -0.4970
 9832TIP3    H150987   2.728   6.019  13.499 -2.1138  2.1256  0.5386
 9832TIP3    H250988   2.867   6.074  13.524 -0.9224 -1.1049  1.5764
 9833TIP3   OH250989   3.167   6.682  13.419 -0.5701  0.6571 -1.0793
 9833TIP3    H150990   3.206   6.671  13.333  1.2890 -1.1912 -0.1031
 9833TIP3    H250991   3.172   6.595  13.459 -1.5880  1.3958  0.7953
 9834TIP3   OH250992   4.009   1.997  13.613 -0.2483  0.0564 -0.2790
 9834TIP3    H150993   3.923   1.961  13.587  0.2592 -0.5678 -1.1674
 9834TIP3    H250994   3.993   2.038  13.698 -1.2953 -0.5936 -0.1391
 9835TIP3   OH250995   4.933   6.215  13.495 -0.4293  0.1862  0.1601
 9835TIP3    H150996   4.887   6.134  13.470 -0.4337  0.5580 -1.0951
 9835TIP3    H250997   4.871   6.261  13.552 -1.1856  0.1822 -0.6443
 9836TIP3   OH250998   6.598   3.617  15.829  0.3160 -0.0628 -0.3269
 9836TIP3    H150999   6.576   3.636  15.738  0.6919  1.2776 -0.1664
 9836TIP3    H251000   6.521   3.646  15.878 -0.3409 -1.7826 -0.2650
 9837TIP3   OH251001   4.915   1.488   2.249  0.3248  0.3111 -0.0762
 9837TIP3    H151002   4.858   1.562   2.270  0.6550  0.5627 -0.0630
 9837TIP3    H251003   4.891   1.464   2.159  1.1480  1.3134 -0.5936
 9838TIP3   OH251004   1.754   3.443  17.028 -0.0430  0.2958 -0.0527
 9838TIP3    H151005   1.713   3.359  17.048  0.4930  0.0189 -0.0702
 9838TIP3    H251006   1.814   3.423  16.955  0.9057  0.4460  0.6652
 9839TIP3   OH251007   0.798   5.710   6.117 -0.3448 -0.2780 -0.3300
 9839TIP3    H151008   0.867   5.643   6.120 -0.8531 -0.8210 -0.4772
 9839TIP3    H251009   0.760   5.701   6.030  0.5333  1.2137 -0.9177
 9840TIP3   OH251010   0.154   0.918  14.369  0.5856  0.3284  0.1337
 9840TIP3    H151011   0.106   0.898  14.450 -1.2346  2.6603 -0.2437
 9840TIP3    H251012   0.092   0.895  14.299  0.4137  2.2802 -0.4099
 9841TIP3   OH251013   3.530   0.797   3.205  0.4783 -0.3420 -0.3002
 9841TIP3    H151014   3.497   0.749   3.281  1.4737 -1.1475 -0.3709
 9841TIP3    H251015   3.459   0.858   3.184  0.1052 -0.2270  1.1514
 9842TIP3   OH251016   4.406   5.899   6.525  0.1283  0.0994  0.3054
 9842TIP3    H151017   4.474   5.831   6.516 -1.2553 -1.4012  0.6816
 9842TIP3    H251018   4.410   5.924   6.617  0.7574  0.6863  0.1289
 9843TIP3   OH251019   2.171   6.299   6.481 -0.1559 -0.3600 -0.2128
 9843TIP3    H151020   2.246   6.297   6.423 -0.1125 -1.6816 -0.1580
 9843TIP3    H251021   2.206   6.326   6.566  0.4134 -1.6500 -0.0146
 9844TIP3   OH251022   1.906   1.943   5.034  0.4393 -0.5655 -0.1356
 9844TIP3    H151023   1.884   1.853   5.060  2.8504 -1.0675  0.4183
 9844TIP3    H251024   2.001   1.942   5.025  0.5605  2.0383  0.2593
 9845TIP3   OH251025   3.128   1.782  13.331  0.0875 -0.2068 -0.2851
 9845TIP3    H151026   3.086   1.786  13.245 -1.0069 -0.3047  0.2352
 9845TIP3    H251027   3.158   1.872  13.347 -0.8557  0.1084 -0.2150
 9846TIP3   OH251028   1.484   6.089   2.903  0.2066  0.3765  0.0907
 9846TIP3    H151029   1.475   6.094   2.808  2.4240  0.5252 -0.1611
 9846TIP3    H251030   1.406   6.134   2.937  0.0084  1.4430 -1.6522
 9847TIP3   OH251031   2.526   6.781  15.232 -0.4652 -0.6001 -0.0014
 9847TIP3    H151032   2.612   6.780  15.273 -0.2384 -0.2954 -0.4619
 9847TIP3    H251033   2.535   6.722  15.157  0.9732  3.3008 -3.2646
 9848TIP3   OH251034   3.005   1.596  14.749 -0.0319 -0.0236 -0.2052
 9848TIP3    H151035   2.937   1.529  14.759 -0.1358  0.3006  1.6681
 9848TIP3    H251036   3.050   1.598  14.833  0.2205  1.9852 -0.3315
 9849TIP3   OH251037   2.304   2.165  13.362  0.9031  0.0793 -0.0797
 9849TIP3    H151038   2.309   2.070  13.352 -1.4838 -0.0636 -0.6050
 9849TIP3    H251039   2.249   2.178  13.440  0.7943  1.0128 -0.2971
 9850TIP3   OH251040   5.817   1.302  13.220 -0.3139  0.3985 -0.0076
 9850TIP3    H151041   5.774   1.352  13.288  0.5387 -0.4440  1.1859
 9850TIP3    H251042   5.889   1.256  13.264  0.3360 -0.0951 -1.4744
 9851TIP3   OH251043   1.131   5.622   0.323  0.5112  0.0764 -0.4513
 9851TIP3    H151044   1.194   5.594   0.256 -1.1698 -1.6062 -1.4529
 9851TIP3    H251045   1.062   5.556   0.319 -1.5869  2.1103  0.2110
 9852TIP3   OH251046   0.663   5.193   3.516 -0.1444  0.1176  0.1613
 9852TIP3    H151047   0.653   5.104   3.481 -0.8414 -0.0512  0.7539
 9852TIP3    H251048   0.581   5.210   3.562  0.0651  0.9950  0.2328
 9853TIP3   OH251049   4.993   1.576  12.573  0.4574  0.9420  0.6897
 9853TIP3    H151050   5.003   1.527  12.655 -0.6531  1.0615  0.9086
 9853TIP3    H251051   4.937   1.650  12.596 -1.3751 -0.0009 -0.5655
 9854TIP3   OH251052   5.741   5.020   4.757 -0.3701  0.3458 -0.4187
 9854TIP3    H151053   5.810   5.071   4.715 -0.0626  0.1960 -0.0961
 9854TIP3    H251054   5.747   4.934   4.716 -0.1308  0.2270 -0.1328
 9855TIP3   OH251055   5.440   2.190   4.999 -1.0524  0.3789  0.2693
 9855TIP3    H151056   5.470   2.157   5.084 -0.2501  1.2187  0.3258
 9855TIP3    H251057   5.519   2.194   4.945 -1.6416 -0.6450 -0.6977
 9856TIP3   OH251058   1.913   0.378   4.784 -0.1788  0.5149 -0.2621
 9856TIP3    H151059   1.925   0.286   4.807  1.2477  0.1930 -2.0439
 9856TIP3    H251060   1.830   0.403   4.824 -1.1023 -1.8324 -0.5933
 9857TIP3   OH251061   2.532   4.530  14.408 -0.3301  0.1444  0.0425
 9857TIP3    H151062   2.554   4.490  14.492  0.3168  1.5810  0.5904
 9857TIP3    H251063   2.598   4.496  14.347 -2.7659 -3.6152 -0.8113
 9858TIP3   OH251064   6.393   3.562  13.003  0.2638  0.4762  0.1938
 9858TIP3    H151065   6.393   3.552  12.908  0.4709  1.0334  0.1328
 9858TIP3    H251066   6.485   3.549  13.028 -0.0258 -1.3007  0.5084
 9859TIP3   OH251067   6.178   2.079   3.918 -0.4374  0.7430  0.3085
 9859TIP3    H151068   6.158   2.090   4.011 -1.3398  0.1458  0.2028
 9859TIP3    H251069   6.148   2.161   3.877 -0.4818  0.8137  0.4828
 9860TIP3   OH251070   3.587   3.635   4.438 -0.0640  0.0100 -0.3871
 9860TIP3    H151071   3.635   3.584   4.503 -0.7227 -0.4181 -0.2276
 9860TIP3    H251072   3.648   3.644   4.365  0.7275  0.5905  0.3262
 9861TIP3   OH251073   6.339   3.120  13.412 -0.0345  0.2191  0.3959
 9861TIP3    H151074   6.433   3.136  13.399  0.0614 -0.4178  0.2746
 9861TIP3    H251075   6.297   3.165  13.339  0.0982  1.3316  0.9806
 9862TIP3   OH251076   6.167   1.998  11.924 -0.0344  0.1447  0.1717
 9862TIP3    H151077   6.210   2.023  12.005 -0.8530  0.0165  0.6493
 9862TIP3    H251078   6.075   1.986  11.947 -0.2622  0.0002 -0.7479
 9863TIP3   OH251079   0.539   6.700   0.124  0.0404  0.4889  0.6410
 9863TIP3    H151080   0.451   6.674   0.098  0.3818  1.2484 -1.4327
 9863TIP3    H251081   0.597   6.652   0.065  0.9076  1.5559  0.5858
 9864TIP3   OH251082   4.234   5.373   3.970 -0.0849  0.0484 -0.3513
 9864TIP3    H151083   4.167   5.306   3.955 -0.2708 -0.1040  0.9648
 9864TIP3    H251084   4.215   5.441   3.907  0.4572 -1.3767 -2.1359
 9865TIP3   OH251085   1.580   2.227  11.808  0.2465 -0.5990  0.1924
 9865TIP3    H151086   1.571   2.217  11.713 -0.4895  1.1446  0.0539
 9865TIP3    H251087   1.673   2.210  11.825  0.2794 -1.4537 -0.7468
 9866TIP3   OH251088   5.001   4.980   0.356 -0.4247  0.0757  0.1660
 9866TIP3    H151089   5.015   5.070   0.388 -1.1192 -0.3178  1.6832
 9866TIP3    H251090   4.946   4.990   0.279  0.6493  1.0327 -0.4992
 9867TIP3   OH251091   6.673   0.505  15.232  0.1360  0.0061 -0.2549
 9867TIP3    H151092   6.675   0.597  15.256  0.3812  0.7525 -2.8109
 9867TIP3    H251093   6.765   0.478  15.232  0.2468  0.3288 -1.3174
 9868TIP3   OH251094   2.220   3.158   6.240  0.2059  0.1635 -0.2451
 9868TIP3    H151095   2.156   3.180   6.172 -0.4571 -1.0416 -0.0423
 9868TIP3    H251096   2.235   3.241   6.286 -1.2514  0.4692 -0.2705
 9869TIP3   OH251097   1.814   0.149   2.554 -0.0519  0.3620  0.2849
 9869TIP3    H151098   1.870   0.107   2.488  0.5607  1.5744 -0.0072
 9869TIP3    H251099   1.851   0.121   2.637  1.5908  1.8364  0.1001
 9870TIP3   OH251100   3.471   3.117  15.534 -0.4212  0.0362 -0.3118
 9870TIP3    H151101   3.420   3.096  15.612 -0.3765  0.7271 -0.0938
 9870TIP3    H251102   3.406   3.121  15.464 -1.0002  2.7083  0.2663
 9871TIP3   OH251103   3.107   1.051  15.115 -0.3377 -0.3078 -0.1966
 9871TIP3    H151104   3.079   1.000  15.039 -0.6541  0.5232 -0.6538
 9871TIP3    H251105   3.127   0.985  15.181 -2.3277 -1.0101 -0.1950
 9872TIP3   OH251106   4.099   2.311   2.116 -0.2153 -0.2189  0.4181
 9872TIP3    H151107   4.146   2.338   2.194  0.6174  0.3743 -0.2666
 9872TIP3    H251108   4.135   2.367   2.046  0.0712 -1.6922 -0.6552
 9873TIP3   OH251109   2.373   2.527   5.262  0.3196  0.1558 -0.5938
 9873TIP3    H151110   2.403   2.466   5.194 -0.8229 -1.1355  0.0179
 9873TIP3    H251111   2.453   2.562   5.300  1.0435 -1.6434 -0.3690
 9874TIP3   OH251112   4.616   5.563   2.543 -0.2367 -0.1195  1.2622
 9874TIP3    H151113   4.630   5.616   2.464  0.5293  0.5167  1.7996
 9874TIP3    H251114   4.531   5.521   2.530 -0.1021 -0.0495  0.0912
 9875TIP3   OH251115   6.086   4.326  10.752 -0.4236  0.5680 -0.0161
 9875TIP3    H151116   6.031   4.273  10.694 -0.2707 -0.9695  1.1649
 9875TIP3    H251117   6.028   4.396  10.782 -0.9402  0.5199 -0.8557
 9876TIP3   OH251118   3.728   3.901  13.109 -0.0021  0.5171 -0.3182
 9876TIP3    H151119   3.718   3.979  13.163  0.0212  0.1199  0.2593
 9876TIP3    H251120   3.807   3.917  13.058  0.0899  0.8027 -0.0878
 9877TIP3   OH251121   2.341   1.832   0.548 -0.8718 -0.1939  0.0050
 9877TIP3    H151122   2.406   1.896   0.519 -0.7788 -0.1315  0.3478
 9877TIP3    H251123   2.363   1.752   0.501 -0.7952 -0.0615 -0.1865
 9878TIP3   OH251124   3.990   3.353   2.462  0.3357  0.4974  0.2682
 9878TIP3    H151125   4.056   3.421   2.472  0.7812  0.7253 -2.9527
 9878TIP3    H251126   3.906   3.398   2.474  0.6494  1.5219 -1.0900
 9879TIP3   OH251127   6.702   3.370  13.609  0.4364  0.2582 -0.3856
 9879TIP3    H151128   6.791   3.400  13.588  1.3716 -1.4313  0.8996
 9879TIP3    H251129   6.715   3.284  13.650 -1.7028  0.5473  1.0425
 9880TIP3   OH251130   1.046   3.902   1.924  0.5691 -0.1274 -0.2332
 9880TIP3    H151131   1.006   3.853   1.995 -0.5728 -0.1977 -0.8972
 9880TIP3    H251132   1.113   3.842   1.888  0.6547 -0.3629  0.3088
 9881TIP3   OH251133   1.391   6.614  16.502 -0.4466  0.2281  0.1297
 9881TIP3    H151134   1.346   6.610  16.586 -1.3193  1.2821 -0.2612
 9881TIP3    H251135   1.343   6.553  16.446 -1.2524  1.1333 -0.2026
 9882TIP3   OH251136   5.683   0.670   2.911  0.6355  0.1928 -0.3812
 9882TIP3    H151137   5.677   0.716   2.828  2.9802 -0.4785 -0.9886
 9882TIP3    H251138   5.711   0.582   2.888  2.0738  0.2008  1.1286
 9883TIP3   OH251139   0.601   5.638   4.071  0.0191 -0.1888 -0.7545
 9883TIP3    H151140   0.506   5.624   4.074  0.1911 -1.4327 -0.1642
 9883TIP3    H251141   0.620   5.690   4.149 -0.0377 -1.0413 -0.1570
 9884TIP3   OH251142   1.669   0.011  13.055 -0.3585  0.1990  0.5597
 9884TIP3    H151143   1.732  -0.061  13.056  0.6613  1.0702  1.2093
 9884TIP3    H251144   1.631   0.009  13.143 -0.0504  0.6736  0.7081
 9885TIP3   OH251145   0.731   1.378  11.887  0.8948  0.4413 -0.2957
 9885TIP3    H151146   0.806   1.427  11.853  1.3710 -0.1852 -0.1686
 9885TIP3    H251147   0.727   1.402  11.980  0.2814  1.2866 -0.5264
 9886TIP3   OH251148   2.058   0.779   5.296 -0.0527  0.6014 -0.2207
 9886TIP3    H151149   2.121   0.783   5.368 -1.0119  0.5679  0.6497
 9886TIP3    H251150   2.071   0.692   5.258  0.2329  0.4870  0.1329
 9887TIP3   OH251151   5.658   3.698  13.425  0.5307  0.0728  0.5508
 9887TIP3    H151152   5.725   3.674  13.361  1.5352  1.1079  1.1732
 9887TIP3    H251153   5.611   3.616  13.441 -0.5140  0.0028 -2.3062
 9888TIP3   OH251154   4.882   1.328   1.720 -0.1169 -0.1853 -0.1634
 9888TIP3    H151155   4.916   1.352   1.633  1.4989 -1.1490  0.1653
 9888TIP3    H251156   4.791   1.304   1.704 -0.1568  0.7147 -1.4066
 9889TIP3   OH251157   6.721   1.396  15.193 -0.3457 -0.5460  0.3122
 9889TIP3    H151158   6.708   1.491  15.199  0.5355 -0.4358  0.6593
 9889TIP3    H251159   6.633   1.359  15.201 -1.1114  0.3311 -2.6564
 9890TIP3   OH251160   6.422   2.134   0.605 -0.7131  0.1247  0.3487
 9890TIP3    H151161   6.466   2.203   0.555 -1.2259  0.2059  0.0014
 9890TIP3    H251162   6.331   2.165   0.613 -0.3360  0.8569  2.6410
 9891TIP3   OH251163   1.386   3.831  13.599  0.0804 -0.2024  0.1311
 9891TIP3    H151164   1.419   3.745  13.624  0.8722 -0.0876 -0.4982
 9891TIP3    H251165   1.443   3.893  13.645 -0.1390 -0.0040  0.1417
 9892TIP3   OH251166   5.318   2.341  10.751  0.9766 -0.3209  0.0331
 9892TIP3    H151167   5.240   2.299  10.787  0.2649  0.5567 -0.4557
 9892TIP3    H251168   5.329   2.420  10.804  1.0459 -0.0198 -0.4220
 9893TIP3   OH251169   0.169   6.222  16.921  0.1479 -0.2439 -0.1472
 9893TIP3    H151170   0.081   6.205  16.888  0.9741 -1.7154 -1.8233
 9893TIP3    H251171   0.206   6.285  16.859  0.0192  1.0772  1.0651
 9894TIP3   OH251172   3.431   5.843   2.417 -0.0731 -0.2959 -0.8427
 9894TIP3    H151173   3.418   5.898   2.340 -0.9780  0.5277 -0.1269
 9894TIP3    H251174   3.345   5.805   2.435 -0.0565  0.1443  0.2196
 9895TIP3   OH251175   2.106   5.877   0.104 -0.1767  0.2115  0.0999
 9895TIP3    H151176   2.160   5.930   0.162  1.6236  0.3385 -1.5804
 9895TIP3    H251177   2.070   5.940   0.041 -0.8420 -0.1224  0.1364
 9896TIP3   OH251178   5.268   3.023  12.917 -0.2967 -0.5924  0.6155
 9896TIP3    H151179   5.266   3.020  13.012  1.8713  0.0100  0.7284
 9896TIP3    H251180   5.321   2.948  12.891  1.1875  0.5895  0.0667
 9897TIP3   OH251181   3.268   1.607   4.285 -0.4963  0.4789  0.4425
 9897TIP3    H151182   3.199   1.645   4.231  0.6467 -0.4159 -1.7515
 9897TIP3    H251183   3.311   1.683   4.325 -2.2812  1.0813  1.3370
 9898TIP3   OH251184   0.601   5.943   0.677 -0.1203 -0.2237  0.1789
 9898TIP3    H151185   0.650   5.980   0.604 -0.8851 -0.9066 -0.7180
 9898TIP3    H251186   0.514   5.926   0.640 -1.6363  2.5166  2.1327
 9899TIP3   OH251187   5.814   5.817  17.058  0.6872 -0.6926 -0.2915
 9899TIP3    H151188   5.788   5.813  16.966  1.1149 -0.4241 -0.4283
 9899TIP3    H251189   5.839   5.909  17.072 -0.2467 -0.5091  0.3357
 9900TIP3   OH251190   6.816   1.641  13.779 -0.3990  0.1256  0.1139
 9900TIP3    H151191   6.769   1.657  13.697  0.6731 -1.1862 -0.8056
 9900TIP3    H251192   6.773   1.565  13.817  0.1684 -0.3097 -0.1014
 9901TIP3   OH251193   0.281   0.330  16.870  0.3190 -0.4924 -0.6129
 9901TIP3    H151194   0.251   0.280  16.945 -1.5447  0.1392 -0.8898
 9901TIP3    H251195   0.323   0.264  16.813 -1.0534 -1.5461 -0.4543
 9902TIP3   OH251196   3.051   2.780  11.795  0.5869 -0.0519  0.7610
 9902TIP3    H151197   3.128   2.729  11.819  0.2563 -1.2668 -0.6142
 9902TIP3    H251198   3.007   2.798  11.878  1.3538 -0.9738  1.3900
 9903TIP3   OH251199   4.670   2.631   2.750 -0.2964  0.0478 -0.4073
 9903TIP3    H151200   4.677   2.624   2.845 -1.5772 -2.0578 -0.4183
 9903TIP3    H251201   4.713   2.552   2.717 -1.1899 -0.0049 -1.5027
 9904TIP3   OH251202   2.851   0.563  17.068 -0.4255 -0.2279 -0.0192
 9904TIP3    H151203   2.765   0.551  17.107 -1.3113  0.0489 -1.7637
 9904TIP3    H251204   2.877   0.652  17.091 -0.9358 -0.0648 -0.0711
 9905TIP3   OH251205   6.333   6.657  13.621  0.6346  0.3938  0.3747
 9905TIP3    H151206   6.249   6.653  13.667 -0.2614 -1.6965 -1.2380
 9905TIP3    H251207   6.383   6.723  13.667 -2.1947  2.3317  0.9426
 9906TIP3   OH251208   0.223   4.077  16.168  0.3535 -0.2353  0.3116
 9906TIP3    H151209   0.189   4.166  16.172  1.5955  0.3281 -1.1155
 9906TIP3    H251210   0.210   4.049  16.078  0.3703 -1.3605  0.6331
 9907TIP3   OH251211   6.750   4.554   0.765 -0.8523  0.1112  0.1379
 9907TIP3    H151212   6.739   4.468   0.806 -1.3830 -0.7914 -1.7919
 9907TIP3    H251213   6.801   4.604   0.828  1.7487 -2.4522  0.2570
 9908TIP3   OH251214   4.915   5.278  10.282  0.0263  0.4086  0.2146
 9908TIP3    H151215   4.856   5.307  10.351 -0.5553  0.3800 -0.2614
 9908TIP3    H251216   4.859   5.229  10.222  0.6081  0.0556 -0.0491
 9909TIP3   OH251217   2.882   2.250  10.988  0.7026  0.3068 -0.3463
 9909TIP3    H151218   2.925   2.235  11.072  0.7862 -0.9882 -0.6024
 9909TIP3    H251219   2.907   2.175  10.934  0.7910  1.2069 -1.5963
 9910TIP3   OH251220   6.340   3.420   4.536  0.1637  0.1298  0.1821
 9910TIP3    H151221   6.302   3.390   4.453  3.0791  0.4458 -1.3727
 9910TIP3    H251222   6.267   3.463   4.581 -1.6463 -0.5101 -1.9641
 9911TIP3   OH251223   3.593   5.943   5.733 -0.2960  0.1610  0.3032
 9911TIP3    H151224   3.665   5.926   5.672 -0.3473 -0.3491  0.3858
 9911TIP3    H251225   3.582   5.862   5.782 -0.2756  0.5565  0.9765
 9912TIP3   OH251226   4.329   3.985  11.812  0.8108  0.5317 -0.1042
 9912TIP3    H151227   4.410   3.969  11.765  0.8717  0.4926  0.0141
 9912TIP3    H251228   4.319   3.909  11.869  0.1617  0.0225 -0.8586
 9913TIP3   OH251229   3.896   2.378   1.190 -0.4307  0.9039  0.4075
 9913TIP3    H151230   3.884   2.424   1.273  0.4353 -0.3403  1.2616
 9913TIP3    H251231   3.987   2.350   1.191 -0.5031  0.5885 -0.8242
 9914TIP3   OH251232   6.227   2.215  13.474 -0.2126 -0.0884 -0.2161
 9914TIP3    H151233   6.229   2.130  13.430  1.4095  0.9801 -2.4672
 9914TIP3    H251234   6.311   2.256  13.450 -0.5310  1.7787  1.5618
 9915TIP3   OH251235   2.985   5.682   4.194 -0.4383  0.2489 -0.3725
 9915TIP3    H151236   3.072   5.642   4.194  0.0615  1.2985 -0.8876
 9915TIP3    H251237   2.925   5.609   4.208  0.6073 -0.2892  1.7978
 9916TIP3   OH251238   3.412   2.525   2.467  0.2155  0.4447 -0.0832
 9916TIP3    H151239   3.430   2.433   2.448  0.3140  0.7923 -1.8470
 9916TIP3    H251240   3.468   2.546   2.542 -0.2660 -1.0713  0.7380
 9917TIP3   OH251241   3.576   3.100  16.027 -0.2027 -0.2253 -0.8132
 9917TIP3    H151242   3.660   3.082  16.068  0.3162  0.5510 -1.4995
 9917TIP3    H251243   3.516   3.035  16.064  1.0944 -2.0118 -1.6637
 9918TIP3   OH251244   0.726   4.259   3.721 -0.4472  0.1143 -0.2655
 9918TIP3    H151245   0.783   4.302   3.784 -2.5800  0.9388  1.2318
 9918TIP3    H251246   0.783   4.199   3.673  1.7293  1.2546  0.7543
 9919TIP3   OH251247   0.671   2.861  11.430 -0.2574 -0.1389 -0.2082
 9919TIP3    H151248   0.624   2.943  11.415 -1.1528 -0.3911  1.0503
 9919TIP3    H251249   0.634   2.800  11.365  1.2184  0.6992 -1.9305
 9920TIP3   OH251250   1.724   5.820   1.585 -0.2486 -0.2755 -0.3708
 9920TIP3    H151251   1.637   5.781   1.593 -1.0476  1.4776 -0.0677
 9920TIP3    H251252   1.729   5.848   1.494 -0.3285  0.3483 -0.1857
 9921TIP3   OH251253   4.343   5.516  16.540  0.2241 -0.2894 -0.1574
 9921TIP3    H151254   4.263   5.520  16.489  0.7547 -0.1402 -0.9942
 9921TIP3    H251255   4.358   5.423  16.556  0.3098 -0.3714 -0.6962
 9922TIP3   OH251256   5.114   5.415   5.076 -0.3254  0.0266  0.1111
 9922TIP3    H151257   5.063   5.344   5.115  0.9487 -0.5031  0.8727
 9922TIP3    H251258   5.120   5.393   4.983  1.6543 -1.9638  0.6121
 9923TIP3   OH251259   5.063   2.971   5.479 -0.2872 -0.1831  0.7619
 9923TIP3    H151260   5.147   3.003   5.511  0.4838  0.2796 -1.4743
 9923TIP3    H251261   5.031   2.913   5.547  1.0290  0.9492  2.4213
 9924TIP3   OH251262   1.074   2.693  15.974  0.1769 -0.1912  0.0218
 9924TIP3    H151263   1.107   2.779  16.002 -2.2045  0.3336  1.6503
 9924TIP3    H251264   1.047   2.651  16.056  0.0575 -1.9433 -0.8830
 9925TIP3   OH251265   6.304   2.203   3.177  0.3955  0.8182 -0.7498
 9925TIP3    H151266   6.373   2.241   3.123  0.1691  0.3525 -1.3793
 9925TIP3    H251267   6.350   2.168   3.254  0.9087  0.2484 -1.3022
 9926TIP3   OH251268   3.459   1.631  12.789  0.1480 -0.6725  0.1338
 9926TIP3    H151269   3.517   1.706  12.776 -0.2417 -0.3569  0.1781
 9926TIP3    H251270   3.375   1.670  12.815 -0.9642 -0.8923 -2.7363
 9927TIP3   OH251271   5.740   3.762  13.953 -0.4270  0.2114  0.0023
 9927TIP3    H151272   5.689   3.778  14.033 -0.5060  2.0142 -0.3749
 9927TIP3    H251273   5.676   3.772  13.882 -0.2092 -0.7323 -0.3463
 9928TIP3   OH251274   1.863   5.392  12.303  0.2752 -0.2015  0.3408
 9928TIP3    H151275   1.778   5.380  12.259 -0.3319  2.7667  0.5050
 9928TIP3    H251276   1.918   5.433  12.236  0.5026  0.9539  1.2179
 9929TIP3   OH251277   4.924   6.432  15.323 -0.2324 -0.4078 -0.2085
 9929TIP3    H151278   4.978   6.501  15.285 -0.4771 -0.0663  0.0602
 9929TIP3    H251279   4.863   6.478  15.381  0.1071 -0.9065  0.5728
 9930TIP3   OH251280   3.560   4.434  16.940 -0.4413 -0.1208 -0.2688
 9930TIP3    H151281   3.607   4.512  16.910  0.3375 -0.4721  0.0321
 9930TIP3    H251282   3.591   4.419  17.029 -1.6869  0.0731  0.2241
 9931TIP3   OH251283   4.648   5.558  16.759  0.5312  0.0991  0.5568
 9931TIP3    H151284   4.697   5.597  16.832 -0.4833  2.6968 -0.0483
 9931TIP3    H251285   4.700   5.577  16.682  1.4307 -2.3518  0.4727
 9932TIP3   OH251286   4.746   4.421   0.589 -0.7640 -0.0733 -0.0575
 9932TIP3    H151287   4.837   4.393   0.589 -0.8419 -0.3673  0.8131
 9932TIP3    H251288   4.719   4.416   0.497 -0.0179 -0.3510 -0.2685
 9933TIP3   OH251289   3.893   6.040  13.481  0.2031  0.5325  0.6554
 9933TIP3    H151290   3.852   5.976  13.422 -1.8577  0.7837  1.7475
 9933TIP3    H251291   3.955   6.087  13.425 -1.8021  0.9068 -1.4200
 9934TIP3   OH251292   2.185   3.040   2.556 -0.0332  0.6875  0.2316
 9934TIP3    H151293   2.247   3.108   2.532  0.5907  0.1358  0.2535
 9934TIP3    H251294   2.217   3.007   2.640  0.9027 -1.0744 -0.7733
 9935TIP3   OH251295   2.425   0.853   3.273  0.1136 -0.8957  0.3476
 9935TIP3    H151296   2.420   0.806   3.356  2.5725  0.2473  1.2183
 9935TIP3    H251297   2.508   0.901   3.277 -0.9554  1.3201 -1.6411
 9936TIP3   OH251298   6.162   4.251  12.542 -0.5935  0.0024 -0.3190
 9936TIP3    H151299   6.096   4.193  12.580 -0.7682  0.5959  0.2986
 9936TIP3    H251300   6.152   4.333  12.590 -0.0087  0.3828 -0.8391
 9937TIP3   OH251301   4.560   0.785   4.195  0.5078  0.1378  0.0056
 9937TIP3    H151302   4.642   0.804   4.241 -1.0675  1.8587  2.3434
 9937TIP3    H251303   4.513   0.726   4.254 -0.8544  0.9807 -0.2008
 9938TIP3   OH251304   0.233   5.314  13.980  0.0620 -0.1851 -0.0416
 9938TIP3    H151305   0.222   5.396  14.029  1.9360 -0.0624  0.2428
 9938TIP3    H251306   0.177   5.251  14.026 -1.3399  0.8727 -0.2098
 9939TIP3   OH251307   4.484   2.814  14.765 -0.6344 -0.2469  0.0014
 9939TIP3    H151308   4.414   2.829  14.702 -0.3058  0.9804 -0.1032
 9939TIP3    H251309   4.516   2.902  14.786 -0.8674 -0.5897  2.0289
 9940TIP3   OH251310   1.019   5.647   0.823 -0.0510  0.3206 -0.6910
 9940TIP3    H151311   1.099   5.595   0.830 -0.3164  0.0199  0.5001
 9940TIP3    H251312   0.961   5.594   0.769 -0.7958 -1.3354  1.5785
 9941TIP3   OH251313   3.991   1.866   2.440  0.1965 -0.8326 -0.3485
 9941TIP3    H151314   4.012   1.877   2.347  1.6383 -0.3244  0.0020
 9941TIP3    H251315   4.005   1.773   2.457 -0.5261 -1.0150 -0.7416
 9942TIP3   OH251316   5.591   0.497  10.781 -0.0499 -0.1757  0.7553
 9942TIP3    H151317   5.564   0.561  10.846 -1.1689  0.3413 -0.1934
 9942TIP3    H251318   5.651   0.544  10.723 -4.1790  1.5527 -2.6295
 9943TIP3   OH251319   1.615   3.052  13.969 -0.0726 -0.5066  0.6320
 9943TIP3    H151320   1.673   3.026  14.040  0.0633  0.2723  0.8107
 9943TIP3    H251321   1.602   2.972  13.918 -1.9164 -1.6497  2.7374
 9944TIP3   OH251322   3.826   6.736   2.006  0.1857  0.0308 -0.3479
 9944TIP3    H151323   3.802   6.726   1.914 -1.8188 -2.4255  0.3223
 9944TIP3    H251324   3.921   6.730   2.007  0.1783 -1.1116 -2.1729
 9945TIP3   OH251325   6.626   3.355  16.196 -0.2397 -0.4933  0.3953
 9945TIP3    H151326   6.711   3.396  16.186 -0.8947  0.9362  0.4436
 9945TIP3    H251327   6.596   3.339  16.106 -1.1923  1.8125  0.2369
 9946TIP3   OH251328   0.532   2.980  15.368 -0.4459  0.0599  0.8422
 9946TIP3    H151329   0.607   3.006  15.316  0.1703  0.3978  1.8621
 9946TIP3    H251330   0.490   3.063  15.394 -1.3057 -0.1300  0.0978
 9947TIP3   OH251331   1.638   4.966   4.260  0.4903  0.0407  0.4056
 9947TIP3    H151332   1.710   5.011   4.304 -0.8933  1.7337  1.0213
 9947TIP3    H251333   1.651   4.874   4.282  0.8689  0.6314  2.8792
 9948TIP3   OH251334   0.447   1.878  13.943  0.1462 -0.5483  0.0263
 9948TIP3    H151335   0.538   1.852  13.957  0.1270 -0.0199  1.2936
 9948TIP3    H251336   0.419   1.914  14.027 -0.8298  0.4954 -0.7089
 9949TIP3   OH251337   1.305   5.901   0.712  0.4490 -0.0261 -0.3644
 9949TIP3    H151338   1.291   5.811   0.740  1.3678 -0.7872 -2.2069
 9949TIP3    H251339   1.224   5.926   0.669  0.6985 -0.4723 -1.0976
 9950TIP3   OH251340   1.053   5.951   5.041 -0.4178 -1.0091  0.0201
 9950TIP3    H151341   1.113   6.025   5.026 -1.2782 -0.5400 -1.2251
 9950TIP3    H251342   1.075   5.921   5.129  1.1389 -0.3760 -0.1158
 9951TIP3   OH251343   3.352   4.560   2.703 -0.1331  0.2231  0.3011
 9951TIP3    H151344   3.328   4.469   2.686  1.3994 -0.0656 -0.4257
 9951TIP3    H251345   3.305   4.582   2.784 -0.4616 -1.2242  0.5298
 9952TIP3   OH251346   6.388   1.599   3.091 -0.3123  0.0136 -0.3762
 9952TIP3    H151347   6.460   1.548   3.130 -0.2073 -0.2437 -0.8993
 9952TIP3    H251348   6.387   1.681   3.140  0.1685 -0.0880 -0.1943
 9953TIP3   OH251349   6.639   1.104   0.893  0.2144  0.3138 -0.1895
 9953TIP3    H151350   6.706   1.112   0.826 -1.0254 -0.0168 -1.5398
 9953TIP3    H251351   6.556   1.107   0.844 -0.7175 -2.8198  0.9549
 9954TIP3   OH251352   3.322   1.940  11.238  0.0591 -0.9905  0.4889
 9954TIP3    H151353   3.359   2.000  11.173 -1.2835 -0.1335  0.4553
 9954TIP3    H251354   3.238   1.980  11.261 -0.0950 -1.9868  1.7549
 9955TIP3   OH251355   3.641   4.559  15.195  1.1783 -0.0967  0.2469
 9955TIP3    H151356   3.581   4.539  15.123  1.3381 -1.3038  0.4297
 9955TIP3    H251357   3.694   4.480  15.205  1.4930  0.2349  1.3680
 9956TIP3   OH251358   0.577   1.884   1.363 -0.6733  0.1627  0.0304
 9956TIP3    H151359   0.583   1.840   1.279 -3.3534 -0.4572  0.0876
 9956TIP3    H251360   0.485   1.908   1.372 -0.6580 -0.4586  3.1060
 9957TIP3   OH251361   1.334   2.015   4.131  0.4699 -0.0478 -0.5561
 9957TIP3    H151362   1.319   1.962   4.209  0.2991 -0.1224 -0.6373
 9957TIP3    H251363   1.284   1.970   4.062  2.5805 -1.4333 -1.3098
 9958TIP3   OH251364   2.663   3.269  12.139 -0.2717  0.0625  0.4415
 9958TIP3    H151365   2.742   3.318  12.166  0.5171 -1.7183  1.5890
 9958TIP3    H251366   2.640   3.218  12.217 -0.8216 -1.6553 -0.7998
 9959TIP3   OH251367   0.106   0.119   0.096 -0.7886  0.6082  0.0777
 9959TIP3    H151368   0.030   0.093   0.148  0.2286 -0.0731  1.2843
 9959TIP3    H251369   0.177   0.126   0.159  0.4381  0.0424 -1.1777
 9960TIP3   OH251370   1.174   3.554   1.047  0.1688  0.2511  0.0169
 9960TIP3    H151371   1.150   3.642   1.078  1.2243  1.4973 -2.4085
 9960TIP3    H251372   1.124   3.543   0.967  0.8195 -0.9633 -0.2410
 9961TIP3   OH251373   0.065   5.286  15.442  0.0948 -0.5389  0.2241
 9961TIP3    H151374   0.110   5.318  15.521  1.3419 -0.2429 -0.5822
 9961TIP3    H251375   0.033   5.366  15.399  0.3099 -0.6211 -0.0909
 9962TIP3   OH251376   0.174   3.423   4.705 -0.1398 -0.2580 -0.0882
 9962TIP3    H151377   0.262   3.413   4.741 -0.3410  1.2859  0.9311
 9962TIP3    H251378   0.187   3.450   4.614  0.5091  1.6670  0.5306
 9963TIP3   OH251379   4.529   2.043  13.545 -0.0403 -0.0243 -0.0055
 9963TIP3    H151380   4.515   1.987  13.469  0.5426  2.4024 -2.0168
 9963TIP3    H251381   4.451   2.099  13.549 -0.6554 -0.9299  2.0116
 9964TIP3   OH251382   5.537   6.584   0.150 -0.0381 -0.2465 -0.3534
 9964TIP3    H151383   5.628   6.606   0.129  0.5886 -2.7513 -0.5918
 9964TIP3    H251384   5.500   6.555   0.067 -1.4556  1.7839 -0.5019
 9965TIP3   OH251385   2.391   5.330   6.200  0.1428 -0.8483  0.2149
 9965TIP3    H151386   2.424   5.408   6.155  0.8427 -1.2281  0.0532
 9965TIP3    H251387   2.433   5.333   6.286  0.4844 -1.2578  0.0644
 9966TIP3   OH251388   3.312   3.248   4.135 -0.1866  0.0515  0.6613
 9966TIP3    H151389   3.389   3.203   4.100 -0.4108 -1.0713  1.5851
 9966TIP3    H251390   3.288   3.311   4.066  0.0819 -1.2855 -0.6960
 9967TIP3   OH251391   5.098   0.593   1.715  0.2779 -0.0554 -0.5324
 9967TIP3    H151392   5.037   0.620   1.784 -0.4578 -2.5967 -0.0813
 9967TIP3    H251393   5.061   0.629   1.635 -1.0136 -0.2651 -0.0616
 9968TIP3   OH251394   5.584   0.429   1.265  0.4610  0.4341  0.0666
 9968TIP3    H151395   5.673   0.440   1.297 -0.0866  2.5116  1.0441
 9968TIP3    H251396   5.533   0.407   1.343 -0.1371  0.8370 -0.2049
 9969TIP3   OH251397   6.365   4.799   3.728  0.0073 -0.1007 -0.6159
 9969TIP3    H151398   6.441   4.743   3.738  0.0266 -0.4266 -2.3276
 9969TIP3    H251399   6.290   4.742   3.744  0.0858  0.3125  1.4775
 9970TIP3   OH251400   1.252   2.931   4.781  0.1111  0.2150  0.0750
 9970TIP3    H151401   1.206   2.848   4.769  1.7852 -1.0150  1.7376
 9970TIP3    H251402   1.344   2.911   4.765  0.7087  1.4317  1.7056
 9971TIP3   OH251403   3.264   4.098  12.834  0.4965 -0.2605 -0.1932
 9971TIP3    H151404   3.188   4.082  12.891  0.7706  1.2679  0.6450
 9971TIP3    H251405   3.339   4.097  12.893  0.9905 -0.3854 -0.8117
 9972TIP3   OH251406   4.763   1.890   1.291  0.3761 -0.1801 -0.5468
 9972TIP3    H151407   4.672   1.878   1.264  0.4339  0.8404 -1.2283
 9972TIP3    H251408   4.811   1.821   1.245  0.0564 -0.2420 -0.7889
 9973TIP3   OH251409   0.231   4.304  10.973  0.1340 -0.5370 -0.2567
 9973TIP3    H151410   0.215   4.218  11.013 -0.8025 -1.2966 -2.1160
 9973TIP3    H251411   0.323   4.301  10.946  0.3503 -0.6093  0.4889
 9974TIP3   OH251412   5.180   2.945  16.200 -0.0447 -0.2404  0.1475
 9974TIP3    H151413   5.201   3.016  16.138  0.3170 -0.8018 -0.3791
 9974TIP3    H251414   5.193   2.985  16.286 -2.2578  1.1008 -0.0465
 9975TIP3   OH251415   2.521   5.160  10.736 -0.3356 -0.3769 -0.1710
 9975TIP3    H151416   2.525   5.076  10.692 -0.1237 -1.1317  1.2388
 9975TIP3    H251417   2.429   5.186  10.731 -0.0752  0.3194 -2.3688
 9976TIP3   OH251418   5.462   3.315  10.198 -0.3180  0.1368 -0.1959
 9976TIP3    H151419   5.388   3.352  10.149  0.5410 -0.1368 -1.7600
 9976TIP3    H251420   5.470   3.371  10.275 -3.6156 -1.1750  1.3178
 9977TIP3   OH251421   4.161   2.479   6.431 -0.1002 -0.1920  0.0068
 9977TIP3    H151422   4.230   2.493   6.495  0.6515  2.6179 -1.2373
 9977TIP3    H251423   4.116   2.564   6.425 -1.7172 -1.0733 -1.3812
 9978TIP3   OH251424   3.676   3.865   3.813  0.0960  0.2892  0.2978
 9978TIP3    H151425   3.765   3.870   3.848  0.2337  0.0551 -0.0068
 9978TIP3    H251426   3.686   3.818   3.730 -0.4631 -0.7683  0.8047
 9979TIP3   OH251427   4.360   4.587  14.272 -0.9254  0.2149 -0.2897
 9979TIP3    H151428   4.427   4.546  14.216 -1.7410 -1.5068 -0.0932
 9979TIP3    H251429   4.280   4.583  14.219 -0.8889  2.3491 -0.5640
 9980TIP3   OH251430   0.041   3.073   3.171  0.2403 -0.3030 -1.0060
 9980TIP3    H151431   0.074   3.147   3.222  1.1975 -1.6307  0.3942
 9980TIP3    H251432   0.092   3.075   3.090  0.8319  0.1081 -0.6313
 9981TIP3   OH251433   6.746   6.757  15.566 -0.0353  0.0567  0.0680
 9981TIP3    H151434   6.673   6.733  15.510 -1.1871 -0.7053  1.8190
 9981TIP3    H251435   6.706   6.801  15.641  1.2372 -0.7783  1.2935
 9982TIP3   OH251436   6.735   1.990  12.515  0.0670  0.7107  0.0289
 9982TIP3    H151437   6.813   1.953  12.556  0.0878  0.1677 -0.4823
 9982TIP3    H251438   6.728   1.944  12.431 -0.2998  1.3929 -0.3185
 9983TIP3   OH251439   4.647   5.706  14.350  0.2184  0.3130 -0.0181
 9983TIP3    H151440   4.724   5.720  14.295  0.8827 -2.6259 -0.0315
 9983TIP3    H251441   4.581   5.672  14.290 -0.7999  1.8903  0.1702
 9984TIP3   OH251442   6.030   4.544  12.093 -0.2949 -0.2006  0.0685
 9984TIP3    H151443   6.081   4.534  12.173 -0.5199 -0.2461  0.2054
 9984TIP3    H251444   6.037   4.637  12.071 -2.1411  0.2991  1.4082
 9985TIP3   OH251445   2.023   2.216   4.590  0.1512  0.2461  0.0255
 9985TIP3    H151446   2.114   2.221   4.618 -0.0902 -2.1021  1.5044
 9985TIP3    H251447   2.026   2.175   4.503  0.5309  1.6735 -0.6755
 9986TIP3   OH251448   6.144   2.897   2.882 -0.3193 -0.4624 -0.1752
 9986TIP3    H151449   6.206   2.967   2.904  0.4151 -1.5747  1.5142
 9986TIP3    H251450   6.068   2.915   2.937 -0.6982 -0.2288 -0.7676
 9987TIP3   OH251451   3.726   4.667   5.438 -0.4560  0.3117 -0.1580
 9987TIP3    H151452   3.783   4.744   5.436 -0.4547  0.3364  0.4837
 9987TIP3    H251453   3.695   4.658   5.348  0.3701  0.4415 -0.4734
 9988TIP3   OH251454   2.738   1.866  11.898  0.0789 -0.0858  0.2751
 9988TIP3    H151455   2.683   1.903  11.967  0.3981 -0.3703  0.6852
 9988TIP3    H251456   2.679   1.855  11.824 -0.2337  0.3673  0.4509
 9989TIP3   OH251457   6.495   1.816  12.956  0.2020  0.0236 -0.2667
 9989TIP3    H151458   6.476   1.722  12.961  1.8019 -0.2714  0.9175
 9989TIP3    H251459   6.409   1.858  12.961 -0.4403 -1.3353  0.7317
 9990TIP3   OH251460   4.449   2.828  13.745 -0.0478 -0.3143  0.1810
 9990TIP3    H151461   4.520   2.893  13.744  0.2595 -0.6484  0.1615
 9990TIP3    H251462   4.493   2.744  13.743 -0.3305 -0.6031  2.4758
 9991TIP3   OH251463   2.708   1.853   3.530  0.0715  0.1466  0.3284
 9991TIP3    H151464   2.630   1.806   3.503 -0.8893  1.3863  0.8256
 9991TIP3    H251465   2.698   1.940   3.491  0.2618  0.9129  1.9042
 9992TIP3   OH251466   0.613   5.379   3.083  0.0163 -0.8012 -0.3423
 9992TIP3    H151467   0.542   5.323   3.051  1.1124 -1.8683 -0.9646
 9992TIP3    H251468   0.570   5.438   3.146 -1.1958 -2.2526  0.2623
 9993TIP3   OH251469   2.730   3.582   4.334 -0.6194  0.0480  0.1020
 9993TIP3    H151470   2.801   3.599   4.397 -0.7506  0.0870  0.2414
 9993TIP3    H251471   2.657   3.550   4.388 -0.5009 -0.6007 -0.1173
 9994TIP3   OH251472   1.587   2.346   2.973 -0.4114 -0.0155 -0.3805
 9994TIP3    H151473   1.551   2.428   3.006 -0.0925  0.7492 -1.8397
 9994TIP3    H251474   1.533   2.278   3.013 -0.2367  0.8440  1.4137
 9995TIP3   OH251475   4.095   2.096   5.638  0.0873 -0.2922  0.7140
 9995TIP3    H151476   4.113   2.177   5.590 -0.9144 -1.2694 -1.4467
 9995TIP3    H251477   4.018   2.116   5.691 -0.8495 -0.0876 -0.6592
 9996TIP3   OH251478   2.010   4.593   1.227  0.1235  0.3356  0.1391
 9996TIP3    H151479   2.045   4.512   1.191 -2.9250 -1.3486  0.6905
 9996TIP3    H251480   2.001   4.576   1.320 -1.9941  0.6786  0.0427
 9997TIP3   OH251481   3.129   6.043   1.112 -0.2277  0.6348 -0.3887
 9997TIP3    H151482   3.034   6.033   1.108 -0.0562 -1.4409 -0.5213
 9997TIP3    H251483   3.163   5.974   1.055  1.3643  0.4681  0.6846
 9998TIP3   OH251484   1.315   1.362  15.743  0.2309 -0.5203 -0.0228
 9998TIP3    H151485   1.400   1.403  15.725  0.0059 -0.7376 -1.6933
 9998TIP3    H251486   1.309   1.362  15.839  1.7879  0.1523  0.1107
 9999TIP3   OH251487   5.199   3.978   0.176 -0.3576 -0.5767  0.4684
 9999TIP3    H151488   5.222   4.054   0.229 -1.0360  0.9647 -1.3440
 9999TIP3    H251489   5.122   4.006   0.126 -0.0053 -2.0893 -1.0051
10000TIP3   OH251490   2.162   2.499  13.296 -0.5429  0.0214 -0.2367
10000TIP3    H151491   2.177   2.496  13.390  0.2046  0.5826 -0.3304
10000TIP3    H251492   2.249   2.513  13.258 -0.8995  0.2772 -0.9794
10001TIP3   OH251493   2.825   0.668   3.493 -0.3552 -0.0000 -0.0283
10001TIP3    H151494   2.753   0.725   3.467 -0.8268 -0.8038 -0.5028
10001TIP3    H251495   2.792   0.621   3.570 -0.3993 -0.4978 -0.3518
10002TIP3   OH251496   5.239   4.835  15.544 -0.4773 -0.2668  0.5056
10002TIP3    H151497   5.290   4.910  15.574 -2.3328  1.8471 -1.2737
10002TIP3    H251498   5.151   4.851  15.578 -1.2559 -0.8032 -1.1400
10003TIP3   OH251499   0.605   4.830  12.880  0.2794 -0.0085 -0.1787
10003TIP3    H151500   0.649   4.890  12.820  1.1743 -0.9643 -0.5232
10003TIP3    H251501   0.523   4.808  12.836  0.2687  0.4175 -0.3740
10004TIP3   OH251502   1.210   0.954  15.790  0.6727  0.2040 -0.6661
10004TIP3    H151503   1.153   1.024  15.758  1.1821  0.7809 -0.3677
10004TIP3    H251504   1.172   0.929  15.874  1.7007  1.6983  0.3018
10005TIP3   OH251505   4.763   4.633   4.983  0.6223 -0.2550  0.2752
10005TIP3    H151506   4.700   4.597   4.920  0.1751  1.0578 -0.0579
10005TIP3    H251507   4.826   4.680   4.929  0.4362  0.5870  0.7711
10006TIP3   OH251508   5.844   5.179   1.065  0.5660 -0.1592  0.0276
10006TIP3    H151509   5.906   5.121   1.110  1.3070 -0.0439 -0.7989
10006TIP3    H251510   5.826   5.134   0.982  1.7967  1.1356 -1.0013
10007TIP3   OH251511   6.534   3.893   4.945 -0.1912  0.3582  0.3490
10007TIP3    H151512   6.497   3.877   4.858 -3.4473 -1.0022  1.7836
10007TIP3    H251513   6.591   3.817   4.961  0.5208  0.6776 -0.6055
10008TIP3   OH251514   0.356   6.436  13.528 -0.0666 -0.5955  0.1850
10008TIP3    H151515   0.329   6.508  13.585 -0.2596  0.2878 -0.9657
10008TIP3    H251516   0.424   6.474  13.472  0.8340 -1.7193  0.4900
10009TIP3   OH251517   3.490   4.445   2.373  0.0611 -0.0865 -0.4709
10009TIP3    H151518   3.470   4.371   2.429  0.6355 -0.1546 -0.3475
10009TIP3    H251519   3.451   4.520   2.418  2.7306  0.3015  1.4706
10010TIP3   OH251520   2.200   6.506  13.586 -0.6577 -0.1937  0.1876
10010TIP3    H151521   2.175   6.469  13.501 -2.3454  2.0512 -0.3743
10010TIP3    H251522   2.145   6.459  13.649 -0.5025 -0.8185 -0.1353
10011TIP3   OH251523   0.726   4.669   4.288  0.0855 -0.1464  0.0100
10011TIP3    H151524   0.743   4.592   4.342  0.8910 -0.4907 -0.7178
10011TIP3    H251525   0.710   4.634   4.200  0.1932  0.4998 -0.2691
10012TIP3   OH251526   4.019   1.405   6.021  0.3744 -0.0545 -0.5627
10012TIP3    H151527   4.101   1.363   6.048  0.5232 -0.1668 -1.1748
10012TIP3    H251528   3.979   1.433   6.103 -0.4504 -2.7085  0.0647
10013TIP3   OH251529   5.824   1.482  14.284  0.1134  0.3022 -0.0016
10013TIP3    H151530   5.810   1.571  14.250  0.9968  0.5580  0.2613
10013TIP3    H251531   5.900   1.491  14.342 -0.2617 -0.4769  0.6296
10014TIP3   OH251532   0.818   0.578  15.699 -0.1333 -0.9462 -0.2471
10014TIP3    H151533   0.876   0.612  15.630  0.2009  0.2044  0.5785
10014TIP3    H251534   0.731   0.609  15.673  0.2582  1.3196  0.8858
10015TIP3   OH251535   5.168   4.295  11.764 -0.5070  0.1533  0.6755
10015TIP3    H151536   5.150   4.383  11.798 -2.4231  0.4777 -0.9539
10015TIP3    H251537   5.097   4.241  11.799 -0.6558 -0.2061 -0.1556
10016TIP3   OH251538   2.891   0.603   3.161 -0.0621  0.3649 -0.7645
10016TIP3    H151539   2.903   0.697   3.149 -1.6737  1.0995  2.3205
10016TIP3    H251540   2.800   0.594   3.189  0.6612 -1.8365  1.1841
10017TIP3   OH251541   5.055   2.631   1.930 -0.2934  0.5317 -0.2901
10017TIP3    H151542   5.054   2.535   1.932  2.3835  0.4602  1.0670
10017TIP3    H251543   5.086   2.653   1.842  1.2101  0.0729  0.1122
10018TIP3   OH251544   5.386   3.530   3.545 -0.2817  0.1351 -0.2485
10018TIP3    H151545   5.429   3.600   3.494 -0.2295 -0.5836 -1.2231
10018TIP3    H251546   5.298   3.564   3.562 -0.2375  0.4774 -0.6675
10019TIP3   OH251547   2.658   2.715  14.294  0.2247 -0.1972  0.2509
10019TIP3    H151548   2.667   2.805  14.324 -1.6837  0.2052 -0.2379
10019TIP3    H251549   2.589   2.718  14.227  0.4152 -1.9483 -0.0953
10020TIP3   OH251550   4.741   4.111   5.459 -0.7697  0.5771 -0.1689
10020TIP3    H151551   4.677   4.043   5.439  0.7386 -1.5957  1.9089
10020TIP3    H251552   4.811   4.098   5.394 -0.1749 -0.3556  0.6319
10021TIP3   OH251553   6.195   5.629   2.479  0.0590  0.3148  0.3734
10021TIP3    H151554   6.212   5.719   2.451  1.3635 -0.0016  0.0921
10021TIP3    H251555   6.111   5.607   2.439 -1.4247  2.1251  2.2205
10022TIP3   OH251556   4.423   6.150  14.537  0.7527 -0.1281  0.0990
10022TIP3    H151557   4.344   6.203  14.548  0.4585 -0.3446 -0.8562
10022TIP3    H251558   4.395   6.061  14.558  1.5188  0.1843  2.8373
10023TIP3   OH251559   4.415   3.477   1.488  0.7241 -0.2443 -0.9127
10023TIP3    H151560   4.428   3.540   1.417 -2.2899 -1.0387 -2.3296
10023TIP3    H251561   4.385   3.530   1.562  1.2739  0.3041 -1.0748
10024TIP3   OH251562   4.377   5.153  15.452 -0.0581  0.1763  0.2518
10024TIP3    H151563   4.452   5.148  15.511 -0.9165  2.2378  1.6283
10024TIP3    H251564   4.310   5.101  15.496  0.1839 -0.7094 -0.4038
10025TIP3   OH251565   6.372   6.399  11.649  0.3252 -0.3061  0.0925
10025TIP3    H151566   6.302   6.379  11.712 -0.0894 -0.8977 -0.5474
10025TIP3    H251567   6.452   6.368  11.692  0.0715 -0.5020  0.4295
10026TIP3   OH251568   2.700   1.166   5.023  0.3977  0.1561  0.2078
10026TIP3    H151569   2.761   1.172   4.950  0.8848 -1.0666  0.4842
10026TIP3    H251570   2.689   1.072   5.037 -0.3932  0.3727  1.1202
10027TIP3   OH251571   0.338   4.205   2.657 -0.4195 -0.6550  0.1710
10027TIP3    H151572   0.430   4.227   2.646 -1.0203  2.8743  0.8541
10027TIP3    H251573   0.321   4.221   2.750 -2.3631  2.2088 -0.5579
10028TIP3   OH251574   3.758   6.754  15.855 -0.2235  0.5902 -0.1354
10028TIP3    H151575   3.735   6.670  15.815 -1.9774  1.2651 -0.6632
10028TIP3    H251576   3.842   6.777  15.816  0.0659 -0.7019 -0.3235
10029TIP3   OH251577   2.914   4.643  16.074  0.6847  0.0969  0.5730
10029TIP3    H151578   2.831   4.689  16.060  0.3108 -1.1345 -1.5424
10029TIP3    H251579   2.888   4.553  16.096  1.4379 -0.3810 -0.4368
10030TIP3   OH251580   5.582   0.863   1.820  0.0883  0.4114  0.2151
10030TIP3    H151581   5.618   0.867   1.731 -2.5804  1.1116 -0.9298
10030TIP3    H251582   5.646   0.811   1.869  2.9487  2.0757 -1.4245
10031TIP3   OH251583   2.694   1.226   1.425 -0.1744  0.5463 -0.1807
10031TIP3    H151584   2.659   1.303   1.381 -0.8081  0.1221 -0.4333
10031TIP3    H251585   2.766   1.259   1.479  1.2363  0.9574 -2.2340
10032TIP3   OH251586   3.347   0.631  15.557 -0.0575 -0.1904  0.0132
10032TIP3    H151587   3.331   0.678  15.639  0.7101 -0.0336  0.0804
10032TIP3    H251588   3.399   0.692  15.504  0.3211 -0.6761 -0.1827
10033TIP3   OH251589   5.851   3.808   5.374 -0.8659  0.1455 -0.0196
10033TIP3    H151590   5.871   3.715   5.386  0.4236  0.4176  0.0730
10033TIP3    H251591   5.936   3.849   5.361 -1.2563  1.5493  1.5408
10034TIP3   OH251592   0.709   4.257  15.349  0.5275  1.0792  1.1441
10034TIP3    H151593   0.614   4.272  15.348 -0.0584 -1.8419 -0.0780
10034TIP3    H251594   0.728   4.231  15.439 -0.4577 -0.9308  0.8508
10035TIP3   OH251595   0.068   6.821  15.369 -0.0321 -0.3962  0.4262
10035TIP3    H151596   0.121   6.751  15.331  1.6244  0.2201  1.4770
10035TIP3    H251597   0.026   6.782  15.445  0.0791 -0.5237  0.4213
10036TIP3   OH251598   0.303   2.957  16.436 -0.7283  0.1298 -0.2758
10036TIP3    H151599   0.338   3.046  16.444 -0.5549 -0.1053  3.0841
10036TIP3    H251600   0.237   2.963  16.367 -1.7788  3.2683  0.8438
10037TIP3   OH251601   4.976   1.308   2.812 -0.1954  0.0360  0.8884
10037TIP3    H151602   4.917   1.234   2.800 -1.6411  1.5009 -2.4123
10037TIP3    H251603   5.033   1.306   2.735 -0.0299  2.0963  0.8975
10038TIP3   OH251604   3.486   6.367  12.997 -0.2053 -0.2557 -0.2902
10038TIP3    H151605   3.548   6.403  13.060 -0.9550  0.5204  0.0173
10038TIP3    H251606   3.518   6.397  12.912  0.0791 -0.2125 -0.1673
10039TIP3   OH251607   1.350   2.087  15.116 -0.1246 -0.2453  0.1114
10039TIP3    H151608   1.408   2.112  15.188  0.0135 -0.9059  0.2403
10039TIP3    H251609   1.366   1.993  15.105  0.8001  0.0721 -1.6116
10040TIP3   OH251610   3.510   5.855  14.354 -0.3250 -0.2499  0.1635
10040TIP3    H151611   3.443   5.921  14.334  1.6619  1.3978 -1.6415
10040TIP3    H251612   3.527   5.866  14.447  0.6340  2.6542 -0.2301
10041TIP3   OH251613   5.956   4.276   2.643 -0.0151  0.6311 -0.6250
10041TIP3    H151614   5.978   4.267   2.736  1.2981  2.7239 -0.6677
10041TIP3    H251615   6.036   4.311   2.603 -1.0328  1.1664 -2.2732
10042TIP3   OH251616   2.588   1.326   2.032 -0.0389  0.7909 -0.2851
10042TIP3    H151617   2.639   1.322   2.114 -1.6954  0.7717  0.7964
10042TIP3    H251618   2.608   1.412   1.995 -0.1460  1.2864  0.7621
10043TIP3   OH251619   1.064   1.034  11.705  0.4264 -0.3404  0.0840
10043TIP3    H151620   1.004   1.012  11.634  0.9481 -0.5729 -0.2869
10043TIP3    H251621   1.008   1.043  11.782 -0.4249  1.8018 -0.6985
10044TIP3   OH251622   4.512   2.847  17.136 -0.0810  0.1184  0.6366
10044TIP3    H151623   4.592   2.872  17.181  0.2739 -1.9071  1.2104
10044TIP3    H251624   4.508   2.752  17.144 -2.5528  0.1595  0.6272
10045TIP3   OH251625   5.783   2.944   5.751 -0.6964 -0.2954 -0.5127
10045TIP3    H151626   5.848   2.992   5.699  0.7373 -0.4025  1.1069
10045TIP3    H251627   5.699   2.982   5.724  0.3061  2.7062  0.2070
10046TIP3   OH251628   4.325   6.201   1.413 -0.1969 -0.6054 -0.0282
10046TIP3    H151629   4.338   6.192   1.319 -1.2785 -0.6981 -0.1776
10046TIP3    H251630   4.248   6.147   1.432  0.3154 -1.0030  0.9977
10047TIP3   OH251631   1.559   2.010  12.351 -0.6122  0.2637 -0.1515
10047TIP3    H151632   1.605   1.938  12.308 -0.8199 -0.5632  0.9608
10047TIP3    H251633   1.468   1.981  12.354 -0.8847  1.0430 -0.6183
10048TIP3   OH251634   3.459   0.798   0.095 -0.2646  0.0888  0.1724
10048TIP3    H151635   3.472   0.889   0.123 -2.4483  0.0365  1.5319
10048TIP3    H251636   3.438   0.805   0.002  2.5298  0.6539 -0.5173
10049TIP3   OH251637   5.014   2.669   5.164 -0.3862 -0.0749  0.6157
10049TIP3    H151638   5.092   2.648   5.216  0.7867 -1.2354 -1.4866
10049TIP3    H251639   5.039   2.744   5.111 -1.0965  0.2423  0.7173
10050TIP3   OH251640   0.948   0.608   4.780 -0.2304 -0.3388 -0.5641
10050TIP3    H151641   1.043   0.615   4.769  0.1169 -1.4698  1.2307
10050TIP3    H251642   0.935   0.520   4.816 -1.6645  0.7340  1.7854
10051TIP3   OH251643   1.419   2.639   5.033  0.1082 -0.0896 -0.1544
10051TIP3    H151644   1.444   2.724   5.067 -0.0752 -0.5423  1.1820
10051TIP3    H251645   1.388   2.591   5.109 -0.6476 -1.0472 -1.0325
10052TIP3   OH251646   2.655   6.749  11.336 -0.0967 -0.0091  0.1725
10052TIP3    H151647   2.738   6.719  11.300 -0.8879  0.4984 -2.3181
10052TIP3    H251648   2.678   6.823  11.392  1.3067 -1.4947  1.6318
10053TIP3   OH251649   1.717   5.470   3.910  0.4376 -0.1500  0.8276
10053TIP3    H151650   1.758   5.436   3.990  2.3700  1.1503  0.4716
10053TIP3    H251651   1.624   5.479   3.933  1.1890  2.0732  3.6942
10054TIP3   OH251652   0.710   1.006  15.643  0.4260  0.7220 -0.1624
10054TIP3    H151653   0.738   1.088  15.684  0.7709  0.7960 -0.5421
10054TIP3    H251654   0.758   1.003  15.560 -1.8193  1.5836 -1.5813
10055TIP3   OH251655   3.020   3.874   2.534  0.1219  0.2316 -0.1539
10055TIP3    H151656   3.044   3.825   2.613  2.6903  0.0851 -0.9369
10055TIP3    H251657   3.071   3.954   2.538  2.7734 -1.0943 -3.0236
10056TIP3   OH251658   4.874   3.973   6.234 -0.1373 -0.5567 -0.3804
10056TIP3    H151659   4.918   4.016   6.160  3.1606  0.9486  2.1517
10056TIP3    H251660   4.827   4.044   6.279 -1.0500 -1.1860 -0.3199
10057TIP3   OH251661   4.898   6.244   2.058 -0.5381 -0.5454  0.4941
10057TIP3    H151662   4.987   6.209   2.056  0.3699  1.6306 -1.9295
10057TIP3    H251663   4.887   6.274   2.149  1.3081 -0.5791  0.7730
10058TIP3   OH251664   1.919   1.560   4.816 -0.1840 -0.3772 -0.1580
10058TIP3    H151665   1.901   1.634   4.874  0.2167 -0.4984  0.1266
10058TIP3    H251666   1.867   1.488   4.853  0.8604 -0.7266  0.6624
10059TIP3   OH251667   4.983   0.948  11.185  0.1275 -0.6758  0.1077
10059TIP3    H151668   4.979   0.867  11.236 -0.8661  0.0831  1.3133
10059TIP3    H251669   4.958   0.922  11.097  0.9894 -1.8770  0.1963
10060TIP3   OH251670   0.968   3.346  15.821  0.5316  0.1833 -0.2335
10060TIP3    H151671   0.944   3.299  15.901  0.9645 -0.4123 -0.4480
10060TIP3    H251672   0.927   3.296  15.751 -1.2428  1.6120 -0.2988
10061TIP3   OH251673   6.811   5.821   4.236  0.6952 -1.1376 -0.7870
10061TIP3    H151674   6.756   5.767   4.179 -0.5830 -1.1039  0.3336
10061TIP3    H251675   6.887   5.844   4.183 -0.7171 -0.5750 -2.7023
10062TIP3   OH251676   5.672   5.308   3.080  0.5242  0.2182 -0.4940
10062TIP3    H151677   5.580   5.332   3.072  0.4763  1.4226  2.2637
10062TIP3    H251678   5.671   5.227   3.130  0.9580 -0.4520 -1.5467
10063TIP3   OH251679   5.308   1.754  10.894 -0.5382 -0.6735  0.1293
10063TIP3    H151680   5.282   1.723  10.981 -1.1173  0.9012  0.5498
10063TIP3    H251681   5.330   1.846  10.907  0.3927 -0.6817 -1.2078
10064TIP3   OH251682   3.681   3.295  11.685  0.2768  0.4239 -0.2478
10064TIP3    H151683   3.730   3.377  11.682  0.4195  0.6038  3.2351
10064TIP3    H251684   3.597   3.316  11.645 -0.2593  2.8185  1.8429
10065TIP3   OH251685   0.965   3.456  14.156  0.2463 -0.4796 -0.8450
10065TIP3    H151686   1.048   3.463  14.109  0.3604 -0.0954 -0.5956
10065TIP3    H251687   0.936   3.366  14.140  1.0267 -0.8188 -0.4197
10066TIP3   OH251688   5.344   5.653  16.533  0.1737  0.7442  0.1229
10066TIP3    H151689   5.378   5.564  16.535  1.8672  1.3647  1.5756
10066TIP3    H251690   5.274   5.653  16.599 -0.7148  0.2088 -0.7859
10067TIP3   OH251691   2.660   3.576   5.693  0.3366  0.0731 -0.2179
10067TIP3    H151692   2.696   3.493   5.662 -0.2870 -0.1473 -0.3815
10067TIP3    H251693   2.730   3.640   5.681  1.5599 -0.7902  1.7348
10068TIP3   OH251694   1.604   5.189  10.573 -0.4830  0.2720  0.1406
10068TIP3    H151695   1.671   5.241  10.530  0.9755 -0.8362  0.9747
10068TIP3    H251696   1.551   5.252  10.621 -0.0869  1.1839 -0.6077
10069TIP3   OH251697   5.400   5.332   3.063  0.3916  0.4982  0.4318
10069TIP3    H151698   5.357   5.377   3.137  0.6642  1.2070  0.1670
10069TIP3    H251699   5.368   5.242   3.069 -1.0916  0.9821  0.2846
10070TIP3   OH251700   2.602   3.337   3.076  0.5890 -0.2072 -0.0074
10070TIP3    H151701   2.597   3.325   2.982  0.5180  1.7208 -0.2943
10070TIP3    H251702   2.675   3.398   3.089 -1.0534  1.6915  0.9032
10071TIP3   OH251703   3.473   6.424   2.270  0.1958  0.1751 -0.1376
10071TIP3    H151704   3.542   6.468   2.220  1.5921 -1.3795  0.3242
10071TIP3    H251705   3.491   6.331   2.258 -1.0646 -0.2498  1.0772
10072TIP3   OH251706   4.571   5.700  12.402  0.4648 -0.0902 -0.7145
10072TIP3    H151707   4.656   5.737  12.426 -0.2583  0.2881  1.5212
10072TIP3    H251708   4.550   5.640  12.474 -1.3288  0.1170 -1.0235
10073TIP3   OH251709   4.879   2.322  14.661  0.9261 -0.1004 -0.0119
10073TIP3    H151710   4.924   2.382  14.602  1.0355  2.1710  2.2001
10073TIP3    H251711   4.788   2.352  14.661  1.2148  0.9529  2.0183
10074TIP3   OH251712   6.048   0.640   6.417  0.3525 -0.1608  0.1859
10074TIP3    H151713   6.019   0.562   6.370 -0.0398 -1.5139  2.5068
10074TIP3    H251714   5.969   0.674   6.459  0.1383  2.6111 -2.1208
10075TIP3   OH251715   3.594   5.277  13.259  0.3101  0.4057 -0.4503
10075TIP3    H151716   3.569   5.349  13.317 -0.8785 -0.0267 -0.3887
10075TIP3    H251717   3.610   5.320  13.174 -1.8453  0.6484 -0.8145
10076TIP3   OH251718   6.514   6.797  12.340  0.0396  0.3897 -0.2916
10076TIP3    H151719   6.432   6.795  12.389 -0.4217 -1.5900 -1.0927
10076TIP3    H251720   6.544   6.888  12.348 -1.8861  0.9964  0.5420
10077TIP3   OH251721   5.815   6.127  10.271  0.7737 -0.5640 -0.0949
10077TIP3    H151722   5.837   6.103  10.361 -0.3287 -0.5418  0.1902
10077TIP3    H251723   5.792   6.044  10.228  0.2720 -0.4411 -0.0620
10078TIP3   OH251724   4.849   6.512   4.922 -0.7444 -0.4104  0.3011
10078TIP3    H151725   4.789   6.556   4.982  1.4786 -0.4341  2.7361
10078TIP3    H251726   4.825   6.420   4.926 -0.5825 -0.4212  1.2864
10079TIP3   OH251727   1.337   5.281  11.789 -0.5140 -0.2584  0.0731
10079TIP3    H151728   1.303   5.196  11.817  0.8806 -1.0367 -0.5108
10079TIP3    H251729   1.372   5.266  11.701 -1.4903  1.2638 -0.6303
10080TIP3   OH251730   5.774   0.910   0.857  0.2607 -0.6027 -0.7788
10080TIP3    H151731   5.704   0.933   0.796 -0.5471 -0.6625  0.0979
10080TIP3    H251732   5.788   0.990   0.909 -1.9443 -1.6291  1.6827
10081TIP3   OH251733   5.345   3.855  15.489 -0.2323 -0.2697  0.2642
10081TIP3    H151734   5.301   3.863  15.573  1.0219  2.0831  0.7876
10081TIP3    H251735   5.296   3.913  15.431  1.0496  0.9918  0.3919
10082TIP3   OH251736   5.356   3.611  13.254  0.2346 -0.6051  0.5473
10082TIP3    H151737   5.354   3.553  13.330  0.3724 -1.3471  0.0027
10082TIP3    H251738   5.362   3.699  13.291 -1.5570 -0.8098  1.4398
10083TIP3   OH251739   3.316   2.806  14.713 -0.3252  0.0144  0.3627
10083TIP3    H151740   3.349   2.868  14.778 -2.3537 -0.0358  1.5144
10083TIP3    H251741   3.237   2.847  14.678 -0.5832 -1.0264 -0.3099
10084TIP3   OH251742   1.721   4.359  15.816  0.6797 -0.1907  0.1849
10084TIP3    H151743   1.750   4.450  15.809  0.7628 -0.2523 -0.3823
10084TIP3    H251744   1.758   4.328  15.898 -1.1642  0.9278  1.4988
10085TIP3   OH251745   2.040   4.497   2.615 -0.2894 -0.2774  0.1793
10085TIP3    H151746   2.066   4.434   2.681 -3.8686 -0.2789  1.8512
10085TIP3    H251747   1.962   4.459   2.575  0.5856  0.6790 -2.6810
10086TIP3   OH251748   3.510   2.971  14.926  0.1938 -0.0509 -0.1359
10086TIP3    H151749   3.531   2.895  14.980  0.0394  0.7355  1.0629
10086TIP3    H251750   3.565   3.042  14.960 -1.0327  0.8554  0.0285
10087TIP3   OH251751   3.230   4.690   1.100  0.4086 -0.1650  0.1371
10087TIP3    H151752   3.161   4.753   1.080 -0.3304 -1.0449 -0.1780
10087TIP3    H251753   3.270   4.722   1.181 -1.0921 -0.2081  0.9379
10088TIP3   OH251754   2.639   6.649  17.051 -0.1160  0.3464 -0.3964
10088TIP3    H151755   2.721   6.604  17.033  1.2433  1.4874  2.3973
10088TIP3    H251756   2.649   6.734  17.008 -0.4752 -0.0294 -1.2498
10089TIP3   OH251757   5.960   2.391  14.087 -0.6691 -0.1308 -0.7466
10089TIP3    H151758   6.049   2.401  14.119 -1.0626  3.3174 -0.2856
10089TIP3    H251759   5.969   2.372  13.994  0.4625 -2.2504 -0.2686
10090TIP3   OH251760   0.756   6.620   1.374  0.0923  0.0330  0.2209
10090TIP3    H151761   0.727   6.563   1.445  2.0301  0.5278  1.4889
10090TIP3    H251762   0.828   6.671   1.412  1.0862  0.4518 -2.0486
10091TIP3   OH251763   0.976   6.206  12.736  0.1037  0.3183  0.2134
10091TIP3    H151764   0.882   6.212  12.721  0.1615  0.0647 -0.2560
10091TIP3    H251765   1.015   6.226  12.651  0.4296 -1.7737 -0.1670
10092TIP3   OH251766   2.479   0.108   0.485 -0.7980  0.3384 -0.2511
10092TIP3    H151767   2.504   0.114   0.393 -0.6823  0.8792 -0.1887
10092TIP3    H251768   2.426   0.186   0.501 -0.7289  0.3050  0.1638
10093TIP3   OH251769   5.613   5.190   5.830  0.5314 -0.0549 -0.5609
10093TIP3    H151770   5.581   5.115   5.780 -0.2304  1.7651 -3.0010
10093TIP3    H251771   5.688   5.222   5.781 -0.2016  1.7827 -0.5844
10094TIP3   OH251772   0.954   0.966  11.469 -0.4246  0.1543  0.1703
10094TIP3    H151773   1.043   0.954  11.436 -0.3642  0.6914  0.1258
10094TIP3    H251774   0.900   0.976  11.391 -0.6029 -0.6667  0.1842
10095TIP3   OH251775   5.390   1.378   3.312  0.4700  0.0210  0.4487
10095TIP3    H151776   5.424   1.463   3.338 -0.3819  0.5093  0.0143
10095TIP3    H251777   5.454   1.345   3.249  0.0937  0.9857 -0.4621
10096TIP3   OH251778   0.879   3.164  15.596  0.9066  0.5870 -0.8567
10096TIP3    H151779   0.965   3.151  15.555  0.1397  0.8612 -2.6535
10096TIP3    H251780   0.829   3.214  15.531 -0.7030  0.2089  0.0411
10097TIP3   OH251781   4.434   4.655   4.292 -0.8282 -0.1260  0.1738
10097TIP3    H151782   4.495   4.640   4.364  0.8065 -2.0039 -1.5004
10097TIP3    H251783   4.483   4.634   4.213 -3.0385  0.2861 -1.4223
10098TIP3   OH251784   4.182   5.999   2.651  0.1069 -0.0910 -0.1448
10098TIP3    H151785   4.270   6.015   2.686 -1.0039  3.9383  1.3649
10098TIP3    H251786   4.165   6.074   2.594 -2.0785 -1.2151 -1.0944
10099TIP3   OH251787   1.208   0.946   2.205 -0.0714 -0.0933  0.4236
10099TIP3    H151788   1.159   0.975   2.128  0.3798 -0.3271  0.0442
10099TIP3    H251789   1.299   0.942   2.176 -0.0857 -1.7023  0.5130
10100TIP3   OH251790   1.773   2.635   2.337  0.0568  0.0037 -0.4097
10100TIP3    H151791   1.843   2.697   2.358 -0.3405  0.8397 -1.4501
10100TIP3    H251792   1.718   2.634   2.415  2.6120 -2.7654  1.5757
10101TIP3   OH251793   2.432   1.635  11.517 -0.8443 -0.1035 -0.5636
10101TIP3    H151794   2.355   1.684  11.488 -0.4232  1.9575  1.4750
10101TIP3    H251795   2.432   1.643  11.612  1.4990 -0.6226 -0.4429
10102TIP3   OH251796   0.642   4.083   1.697  0.4591  0.2772  0.4516
10102TIP3    H151797   0.604   4.141   1.763  0.9447  0.3561  0.6667
10102TIP3    H251798   0.643   3.997   1.739 -1.7268 -0.2553 -0.4256
10103TIP3   OH251799   6.539   0.337   2.786  0.0185  0.8300  0.4691
10103TIP3    H151800   6.565   0.425   2.757  0.9507  0.8018  1.1850
10103TIP3    H251801   6.470   0.352   2.850 -0.1838  1.0072  0.2154
10104TIP3   OH251802   1.035   5.833   5.295 -0.7068 -0.6391 -0.6372
10104TIP3    H151803   0.941   5.831   5.277 -0.6553 -0.6333 -0.9028
10104TIP3    H251804   1.045   5.782   5.375 -1.1145  0.5166  0.1814
10105TIP3   OH251805   1.442   6.229  12.258 -0.2136 -0.2251  0.4461
10105TIP3    H151806   1.351   6.219  12.230 -0.6151  0.4984  1.4451
10105TIP3    H251807   1.490   6.163  12.207 -1.6944 -2.5896  1.9224
10106TIP3   OH251808   0.344   0.377  15.380  0.0324  0.2178 -0.0202
10106TIP3    H151809   0.381   0.454  15.337  2.7317 -0.9642 -0.0624
10106TIP3    H251810   0.409   0.308  15.364 -1.4557 -1.6177  1.4435
10107TIP3   OH251811   6.634   0.062  16.470  0.2538  0.1051  0.5307
10107TIP3    H151812   6.627   0.156  16.486  0.8192  0.2221  0.0949
10107TIP3    H251813   6.655   0.025  16.556  0.2250  0.3935  0.6638
10108TIP3   OH251814   2.299   6.790   3.793 -0.4778 -0.0417  0.6147
10108TIP3    H151815   2.366   6.748   3.847 -0.3413  0.5601  0.9263
10108TIP3    H251816   2.311   6.752   3.706 -0.8959 -1.2493  1.0603
10109TIP3   OH251817   3.191   5.262   3.552 -0.0560 -0.5292  0.3890
10109TIP3    H151818   3.270   5.311   3.576  0.0668 -0.7700  0.4816
10109TIP3    H251819   3.199   5.250   3.457 -0.0755 -0.3884  0.3693
10110TIP3   OH251820   5.070   0.752   4.856 -0.0914 -0.2954  1.1452
10110TIP3    H151821   5.165   0.752   4.843 -0.1165 -3.1159  0.4302
10110TIP3    H251822   5.056   0.705   4.938 -0.8766  0.4466  1.4538
10111TIP3   OH251823   2.783   4.368  14.519 -0.3240 -0.7602 -0.0664
10111TIP3    H151824   2.870   4.353  14.556 -0.2686  1.4222  0.8449
10111TIP3    H251825   2.724   4.368  14.594 -1.3299 -3.1028 -0.7538
10112TIP3   OH251826   6.820   2.032   3.990 -0.4653  0.3066  0.4500
10112TIP3    H151827   6.895   2.063   4.040 -0.2479  1.0415 -0.3174
10112TIP3    H251828   6.753   2.099   4.003 -0.6833  0.0945  0.4224
10113TIP3   OH251829   2.432   0.402  10.774 -0.8903  0.1158 -0.1047
10113TIP3    H151830   2.402   0.391  10.864 -0.2741 -1.7566 -0.0925
10113TIP3    H251831   2.506   0.462  10.780  1.1698 -2.3927  1.1214
10114TIP3   OH251832   1.609   0.253   4.145  0.6144 -0.1795  0.1978
10114TIP3    H151833   1.609   0.261   4.050  1.7543  0.7605  0.2559
10114TIP3    H251834   1.609   0.159   4.162  1.1561 -0.3559 -0.7432
10115TIP3   OH251835   1.660   5.633  16.249  0.4953 -0.0666 -0.3855
10115TIP3    H151836   1.567   5.613  16.248  0.4208  0.2865 -1.0047
10115TIP3    H251837   1.694   5.589  16.327 -0.0983 -0.6150 -0.4339
10116TIP3   OH251838   4.551   0.005   2.663 -0.1210 -0.5751  0.3515
10116TIP3    H151839   4.553  -0.065   2.727 -2.1520 -2.4124 -1.4282
10116TIP3    H251840   4.541  -0.039   2.579  1.3431  1.7589 -1.1852
10117TIP3   OH251841   1.994   4.024   0.146 -0.0336 -0.0037 -0.0381
10117TIP3    H151842   1.963   4.013   0.056  1.6864  0.1734 -0.7020
10117TIP3    H251843   1.991   4.118   0.162 -2.9833 -0.2080  1.1543
10118TIP3   OH251844   2.527   0.613   5.261 -0.2918  0.1615 -1.0580
10118TIP3    H151845   2.617   0.643   5.261  0.8466 -2.7287  1.3748
10118TIP3    H251846   2.533   0.519   5.249 -2.9517 -0.1580 -0.5657
10119TIP3   OH251847   3.846   3.325  16.720  0.4718  0.0511 -0.4340
10119TIP3    H151848   3.787   3.390  16.759 -1.6112 -0.7591 -2.0463
10119TIP3    H251849   3.934   3.360  16.736 -0.4880  2.2029  0.5477
10120TIP3   OH251850   4.900   0.269   1.396 -0.0779  0.4702  0.4114
10120TIP3    H151851   4.979   0.292   1.444  0.6584 -0.8083 -0.1380
10120TIP3    H251852   4.832   0.259   1.463  0.4297  0.7481  0.9681
10121TIP3   OH251853   3.697   2.608   2.022 -0.1794  0.2502 -0.3164
10121TIP3    H151854   3.681   2.523   2.062  1.1841  1.2170  2.5942
10121TIP3    H251855   3.668   2.671   2.088  0.6850  2.0097 -1.5329
10122TIP3   OH251856   1.265   6.610   3.940 -0.2048  0.0314  0.5111
10122TIP3    H151857   1.351   6.578   3.913  0.0076  0.4467  0.6913
10122TIP3    H251858   1.273   6.705   3.940 -1.6893  0.3140 -2.9550
10123TIP3   OH251859   0.241   2.271  12.622 -0.0900  0.3228  0.0542
10123TIP3    H151860   0.335   2.254  12.629 -0.4049 -1.3985  0.8583
10123TIP3    H251861   0.232   2.334  12.551  1.5588 -0.6167 -1.0364
10124TIP3   OH251862   6.826   6.215  15.224  0.5977 -0.4295  0.3348
10124TIP3    H151863   6.918   6.232  15.246  0.0735  1.9713  0.8947
10124TIP3    H251864   6.776   6.247  15.299 -0.7860  0.2036 -0.7948
10125TIP3   OH251865   3.183   0.987   0.157 -0.1838 -0.3474  0.1049
10125TIP3    H151866   3.190   0.894   0.136 -1.1375 -0.1908 -1.0021
10125TIP3    H251867   3.103   0.995   0.209  0.3325 -0.2483  0.8988
10126TIP3   OH251868   2.079   0.199  16.672  0.4369  0.2125 -0.1496
10126TIP3    H151869   2.063   0.254  16.749  2.7889 -0.1745  0.6994
10126TIP3    H251870   2.154   0.239  16.629  0.8848 -1.1551 -0.6767
10127TIP3   OH251871   2.455   4.848   3.090  0.0670  0.2232  0.0881
10127TIP3    H151872   2.396   4.909   3.045  0.5595  1.1783  0.7078
10127TIP3    H251873   2.408   4.764   3.088 -0.9191  0.7586 -0.2106
10128TIP3   OH251874   1.319   5.487   1.882  0.2499  0.4721 -0.1717
10128TIP3    H151875   1.229   5.507   1.856 -0.0957 -0.4144  0.2831
10128TIP3    H251876   1.326   5.520   1.971  0.3927  0.5757 -0.2206
10129TIP3   OH251877   2.853   1.991   1.973 -0.5071 -0.3264  0.2872
10129TIP3    H151878   2.862   2.000   1.878  1.3082 -3.7531 -0.0289
10129TIP3    H251879   2.759   1.985   1.988 -0.8167 -0.0914 -1.3236
10130TIP3   OH251880   0.065   2.388   1.116  0.4749 -0.0235 -0.1131
10130TIP3    H151881   0.118   2.467   1.100  0.7223  0.2322  1.7222
10130TIP3    H251882  -0.020   2.408   1.077  1.0353  0.4667 -1.1338
10131TIP3   OH251883   3.656   5.103   0.578 -0.1250  0.3524  0.7039
10131TIP3    H151884   3.600   5.171   0.540  0.0113 -0.1868 -0.4977
10131TIP3    H251885   3.697   5.145   0.653 -2.5940  0.5934  2.0249
10132TIP3   OH251886   1.631   0.145  15.134  0.0858  0.0593  0.2385
10132TIP3    H151887   1.695   0.206  15.171  2.4015 -1.3278 -1.2470
10132TIP3    H251888   1.675   0.060  15.135 -1.0897 -0.6815 -2.3099
10133TIP3   OH251889   1.405   2.248   1.110 -0.1131 -0.1429  0.3481
10133TIP3    H151890   1.388   2.301   1.189 -0.9991  0.8545 -0.4775
10133TIP3    H251891   1.417   2.312   1.041 -0.6489 -1.0162 -0.5804
10134TIP3   OH251892   3.796   4.023   2.862  0.1994 -0.2681  0.7330
10134TIP3    H151893   3.725   3.994   2.920 -0.1804  1.0003  0.9167
10134TIP3    H251894   3.764   4.006   2.774 -0.4747  0.5703  0.8029
10135TIP3   OH251895   1.043   2.871  14.239 -0.6185  0.5319 -0.2161
10135TIP3    H151896   0.979   2.880  14.310  0.8707  0.9867  1.1339
10135TIP3    H251897   1.085   2.786  14.255  0.5878  1.1834  0.2397
10136TIP3   OH251898   4.200   1.312  15.335 -1.2276 -0.1075 -0.7953
10136TIP3    H151899   4.128   1.367  15.366  0.0262  1.5183 -0.6333
10136TIP3    H251900   4.274   1.336  15.391 -0.2759 -0.9315 -1.6696
10137TIP3   OH251901   1.842   5.777   5.304  0.0647  0.1545 -0.0970
10137TIP3    H151902   1.774   5.752   5.365  0.9711  2.8696  2.2757
10137TIP3    H251903   1.840   5.873   5.304  1.1474  0.3008 -3.2204
10138TIP3   OH251904   1.072   2.016  13.735  0.0017  0.9224  0.3637
10138TIP3    H151905   1.067   2.103  13.694  1.0022  0.8426  0.0309
10138TIP3    H251906   1.162   1.988  13.719 -0.4623 -0.4213 -0.0205
10139TIP3   OH251907   4.774   4.497  16.475  0.1305 -0.7950 -0.0689
10139TIP3    H151908   4.809   4.582  16.447 -1.1547  0.2400  1.3097
10139TIP3    H251909   4.710   4.519  16.543  0.2926 -2.9302  0.8389
10140TIP3   OH251910   0.359   5.203  17.032  0.1239 -0.1657 -0.0276
10140TIP3    H151911   0.338   5.139  16.963  1.0461 -3.2038  2.2730
10140TIP3    H251912   0.444   5.240  17.005  0.1608 -0.8129 -0.8357
10141TIP3   OH251913   3.806   3.885  15.128  0.0046 -0.3662 -0.1652
10141TIP3    H151914   3.795   3.819  15.060 -2.2972  0.1014 -0.3373
10141TIP3    H251915   3.830   3.836  15.206 -1.7037 -1.4615 -0.2814
10142TIP3   OH251916   0.387   1.367   2.692 -0.2426 -0.3541  0.2896
10142TIP3    H151917   0.299   1.334   2.711 -1.1262  1.0045 -1.1818
10142TIP3    H251918   0.423   1.388   2.778 -1.5733 -0.4265  0.8949
10143TIP3   OH251919   0.403   2.514   0.051  0.7603  0.4569  0.0730
10143TIP3    H151920   0.371   2.540   0.137 -0.7118 -1.6907  0.2466
10143TIP3    H251921   0.485   2.469   0.069 -0.2232 -1.2218  0.5698
10144TIP3   OH251922   0.537   6.537  13.328 -0.3778 -0.4618  0.0916
10144TIP3    H151923   0.609   6.601  13.332  0.9261 -1.8740  0.2810
10144TIP3    H251924   0.463   6.586  13.295  0.1764  1.5077  1.5673
10145TIP3   OH251925   3.853   4.741   3.011  0.3106 -0.2357  0.1538
10145TIP3    H151926   3.828   4.672   2.950  0.5884  1.8085 -2.4538
10145TIP3    H251927   3.949   4.737   3.014  0.3920  0.5914 -0.7802
10146TIP3   OH251928   4.359   6.522  14.243 -0.2300  0.3886  0.1714
10146TIP3    H151929   4.284   6.524  14.183 -0.5451  0.4610  0.5650
10146TIP3    H251930   4.398   6.436  14.230  0.5703  0.9357 -1.1952
10147TIP3   OH251931   6.669   2.037  13.677  0.3163  0.0178 -0.8128
10147TIP3    H151932   6.710   2.112  13.633 -0.0242  0.0142 -1.1455
10147TIP3    H251933   6.633   2.074  13.757 -0.3257  0.3310 -1.2334
10148TIP3   OH251934   3.810   4.561   0.887 -0.0003  0.2727  0.7025
10148TIP3    H151935   3.865   4.498   0.934  0.7942  1.4764  1.4137
10148TIP3    H251936   3.866   4.597   0.819 -0.2393  0.7239  0.7407
10149TIP3   OH251937   3.588   0.938   2.873 -0.0562  0.0346 -0.2054
10149TIP3    H151938   3.658   1.003   2.887  2.0882 -1.8139 -1.7055
10149TIP3    H251939   3.545   0.931   2.958  2.6463  0.1313  1.2774
10150TIP3   OH251940   2.842   2.014   1.689  0.2848 -0.0141  0.0991
10150TIP3    H151941   2.800   2.072   1.626 -0.5763 -0.0797  0.6028
10150TIP3    H251942   2.801   1.929   1.675  0.7373 -0.2424  0.1353
10151TIP3   OH251943   5.582   5.942   2.266  0.1860  0.4821 -0.6447
10151TIP3    H151944   5.666   5.986   2.260  0.0621  0.7975 -0.0929
10151TIP3    H251945   5.590   5.866   2.208  0.9663  0.3225 -0.3336
10152TIP3   OH251946   5.276   0.139  15.911  0.1392 -0.1495 -0.5516
10152TIP3    H151947   5.328   0.211  15.875  0.0714  0.2161  0.0516
10152TIP3    H251948   5.307   0.061  15.865  1.5252 -0.0109  0.0659
10153TIP3   OH251949   0.208   6.426   2.280  0.0445 -0.9230 -0.1102
10153TIP3    H151950   0.156   6.350   2.256 -2.3590  0.5989 -0.0774
10153TIP3    H251951   0.224   6.471   2.197 -0.8359 -0.1466  0.1127
10154TIP3   OH251952   1.393   0.033   4.663 -0.3099  0.3417 -0.3620
10154TIP3    H151953   1.440  -0.021   4.599  1.4234 -0.3562  1.3894
10154TIP3    H251954   1.318   0.067   4.615 -0.1590 -1.7155 -2.2161
10155TIP3   OH251955   2.957   0.329   4.967 -0.1219  0.8839 -0.2904
10155TIP3    H151956   2.867   0.322   4.936 -0.3773  4.0443 -0.6275
10155TIP3    H251957   2.999   0.388   4.904  2.0577 -0.0772  0.1705
10156TIP3   OH251958   1.396   5.579  13.944  0.7423 -0.0961  0.2107
10156TIP3    H151959   1.425   5.497  13.984 -1.3058 -0.3792  1.2605
10156TIP3    H251960   1.435   5.578  13.856 -0.9778 -3.3350 -0.6854
10157TIP3   OH251961   1.695   3.907   3.915 -0.5073  0.2616  0.3096
10157TIP3    H151962   1.706   3.842   3.984 -1.7353  0.6227  0.8599
10157TIP3    H251963   1.780   3.908   3.869 -1.0206 -3.0630 -0.9488
10158TIP3   OH251964   6.130   6.595   3.364 -0.2909 -0.5187 -0.2973
10158TIP3    H151965   6.165   6.562   3.282 -1.3298 -1.1715 -0.4955
10158TIP3    H251966   6.091   6.519   3.406 -0.4884 -0.0299  0.4244
10159TIP3   OH251967   1.127   0.633   3.524 -0.2430  0.0594  0.0876
10159TIP3    H151968   1.092   0.570   3.460  1.4815  3.2604 -4.5802
10159TIP3    H251969   1.049   0.666   3.569 -2.1053 -0.1250 -2.7296
10160TIP3   OH251970   0.074   4.710  16.231 -0.0666 -0.2018 -0.3089
10160TIP3    H151971   0.096   4.617  16.235 -0.4948 -0.4907 -2.8142
10160TIP3    H251972   0.113   4.740  16.149 -0.4451  1.6976  0.1592
10161TIP3   OH251973   1.522   2.586  16.552 -0.0991 -0.2707 -0.3145
10161TIP3    H151974   1.532   2.624  16.640  1.8854  0.8583 -0.9519
10161TIP3    H251975   1.546   2.657  16.493 -0.8986 -1.1740 -1.7640
10162TIP3   OH251976   1.011   5.826   1.243 -0.0728  0.2040 -0.1154
10162TIP3    H151977   1.102   5.798   1.253 -1.2187 -3.2025  2.4174
10162TIP3    H251978   0.966   5.749   1.208 -2.0792  1.7112 -1.0196
10163TIP3   OH251979   1.983   4.907   5.532 -0.2143 -0.3271 -0.1931
10163TIP3    H151980   2.019   4.835   5.584  0.9742 -0.4781 -1.1876
10163TIP3    H251981   1.972   4.870   5.444 -1.5967  0.1104 -0.2332
10164TIP3   OH251982   0.422   0.139  14.609  0.7027  0.1558 -0.2365
10164TIP3    H151983   0.425   0.043  14.610  0.3977  0.0725 -2.7176
10164TIP3    H251984   0.337   0.160  14.649  0.2084 -0.6693 -0.8321
10165TIP3   OH251985   3.628   1.323  17.144  0.1486 -0.3702 -0.5715
10165TIP3    H151986   3.595   1.410  17.165  0.8962 -0.4113  0.9067
10165TIP3    H251987   3.709   1.338  17.097  0.2641 -0.2725 -0.3389
10166TIP3   OH251988   4.415   3.851  15.280 -0.0529  0.1143  0.1044
10166TIP3    H151989   4.407   3.756  15.278  0.5800  0.0477  0.5425
10166TIP3    H251990   4.324   3.882  15.277 -0.2438 -0.4800 -0.6589
10167TIP3   OH251991   4.854   3.777   4.187 -0.0795 -0.1520  0.0654
10167TIP3    H151992   4.889   3.846   4.130  0.7247 -0.0289  0.6802
10167TIP3    H251993   4.833   3.705   4.128 -1.5445  0.8207 -0.6849
10168TIP3   OH251994   3.269   2.823  11.971  0.2103 -0.1885  0.3979
10168TIP3    H151995   3.348   2.853  11.927 -1.2614  1.0534 -1.6087
10168TIP3    H251996   3.231   2.903  12.009 -0.3760 -0.6561  0.8222
10169TIP3   OH251997   0.968   0.726  14.842  0.3572  0.0380  0.1149
10169TIP3    H151998   1.058   0.755  14.861  0.1790  0.4785  0.3152
10169TIP3    H251999   0.971   0.631  14.849  0.1922  0.1632  2.9577
10170TIP3   OH252000   1.298   4.088  11.887 -0.2678  0.2205  0.0003
10170TIP3    H152001   1.370   4.151  11.883 -0.0759  0.0439  0.5350
10170TIP3    H252002   1.220   4.140  11.870 -0.1889  0.7628  1.1603
10171TIP3   OH252003   2.340   6.352  14.867 -0.3242  0.4097  0.6808
10171TIP3    H152004   2.337   6.259  14.888  0.2546 -0.0387 -1.0574
10171TIP3    H252005   2.261   6.367  14.814  0.6000  0.4165 -0.7502
10172TIP3   OH252006   1.765   6.296   3.941  0.0959 -0.2931  0.3004
10172TIP3    H152007   1.820   6.359   3.893  0.1315  1.1087  2.0932
10172TIP3    H252008   1.787   6.211   3.902  0.6571  0.6857 -1.6435
10173TIP3   OH252009   5.295   5.486  14.112  0.4528 -0.2065  0.8864
10173TIP3    H152010   5.352   5.535  14.171  1.5134 -1.1381  0.6598
10173TIP3    H252011   5.331   5.502  14.025 -0.5237  0.3739  0.5726
10174TIP3   OH252012   4.176   5.183   5.004  0.1390 -0.4993  0.0130
10174TIP3    H152013   4.146   5.102   5.046 -0.7001  0.4123  1.2318
10174TIP3    H252014   4.250   5.156   4.951 -2.4575 -2.8401 -2.8447
10175TIP3   OH252015   5.101   1.072  13.547  0.2454 -0.0812  0.9755
10175TIP3    H152016   5.117   0.986  13.506 -1.6192  0.1311 -0.3094
10175TIP3    H252017   5.183   1.120  13.534  0.9736 -1.3094  0.8330
10176TIP3   OH252018   1.123   2.486  11.313  0.2731  0.5268  0.6118
10176TIP3    H152019   1.163   2.402  11.334  0.8312  1.0440  1.6679
10176TIP3    H252020   1.122   2.534  11.395 -0.9424  1.1964  0.2301
10177TIP3   OH252021   4.785   1.465  14.177  0.0722 -0.4370 -0.7856
10177TIP3    H152022   4.711   1.407  14.159 -0.6400 -0.0331  0.6282
10177TIP3    H252023   4.744   1.549  14.199  1.0567  0.4851 -2.2462
10178TIP3   OH252024   5.834   4.742   4.208  0.5579  0.3049  0.2465
10178TIP3    H152025   5.778   4.696   4.271  0.7014  1.1218  0.9905
10178TIP3    H252026   5.775   4.803   4.164  0.3835 -0.5118 -0.6820
10179TIP3   OH252027   1.856   6.318   5.545  0.3309 -0.3088 -0.0095
10179TIP3    H152028   1.789   6.250   5.538 -0.5766  0.2960  1.9516
10179TIP3    H252029   1.869   6.349   5.456 -0.9842 -1.4115 -0.6159
10180TIP3   OH252030   2.269   0.418   3.134  0.3089 -0.2714  0.4464
10180TIP3    H152031   2.222   0.433   3.051 -1.3545 -0.5994  1.2825
10180TIP3    H252032   2.312   0.502   3.152  0.1219  0.0199 -0.4180
10181TIP3   OH252033   1.995   3.596   3.847 -0.2821 -0.0598 -0.0628
10181TIP3    H152034   1.944   3.573   3.925 -0.5563 -0.5627 -0.3871
10181TIP3    H252035   2.074   3.542   3.853  0.5959  1.2776  0.8379
10182TIP3   OH252036   2.435   6.260  13.449  0.2998  0.2862  0.5321
10182TIP3    H152037   2.489   6.323  13.401 -0.4476  2.6869  2.6349
10182TIP3    H252038   2.346   6.279  13.421  0.1603 -1.0467 -0.0366
10183TIP3   OH252039   2.909   4.883   6.316 -0.0399  0.2178  0.0236
10183TIP3    H152040   2.895   4.914   6.406  0.0571  0.2011  0.0452
10183TIP3    H252041   2.928   4.790   6.325  0.3278  0.2883  0.0213
10184TIP3   OH252042   2.164   5.966  11.163  0.3824 -0.6916 -0.1476
10184TIP3    H152043   2.188   6.038  11.222  3.7032 -2.2882  0.7150
10184TIP3    H252044   2.105   5.911  11.215  1.0447 -0.6351  0.6843
10185TIP3   OH252045   1.549   1.746   1.590  0.0690 -0.9845 -0.4573
10185TIP3    H152046   1.585   1.657   1.584 -0.6262 -1.2469 -0.8123
10185TIP3    H252047   1.489   1.753   1.516  1.3543  0.3752 -1.4027
10186TIP3   OH252048   4.534   5.533  16.118 -0.2886 -0.6588  0.2742
10186TIP3    H152049   4.593   5.605  16.140 -0.5962 -1.0555  2.5907
10186TIP3    H252050   4.474   5.571  16.053  1.8150  0.0299 -1.3808
10187TIP3   OH252051   0.989   4.702   3.916  0.5074 -0.4556 -0.3541
10187TIP3    H152052   0.899   4.716   3.946  0.5687  0.5253 -0.6103
10187TIP3    H252053   1.041   4.762   3.968  0.8916 -0.3309 -0.8736
10188TIP3   OH252054   3.772   5.671   0.456  0.2446  0.1704  0.0448
10188TIP3    H152055   3.723   5.740   0.412 -2.7446 -0.3366  2.2830
10188TIP3    H252056   3.739   5.590   0.417  0.9518 -0.1405  0.0719
10189TIP3   OH252057   5.058   6.282   0.344  0.4101 -0.5823 -0.6661
10189TIP3    H152058   5.011   6.318   0.420  0.3250  0.8538 -1.3579
10189TIP3    H252059   5.100   6.358   0.304  2.4170 -1.6713 -0.7268
10190TIP3   OH252060   6.234   2.136   4.973 -0.2461  0.1379 -0.1876
10190TIP3    H152061   6.255   2.227   4.993  0.1373 -0.0289  0.1762
10190TIP3    H252062   6.138   2.134   4.969 -0.2721  0.4804  0.1808
10191TIP3   OH252063   0.671   6.100  11.633  0.0800  0.1737  0.0313
10191TIP3    H152064   0.747   6.098  11.576  0.1364  1.1194  0.0456
10191TIP3    H252065   0.683   6.179  11.686 -0.2721 -0.3564  0.9282
10192TIP3   OH252066   2.297   2.434   0.422  0.1052  0.0946 -0.2294
10192TIP3    H152067   2.255   2.461   0.340 -0.1354 -0.7142 -0.3830
10192TIP3    H252068   2.229   2.387   0.469  0.8174 -1.2064 -0.4667
10193TIP3   OH252069   3.205   6.308  16.304 -0.8780  0.4384 -0.1427
10193TIP3    H152070   3.121   6.308  16.258 -1.3137 -1.2231  0.5622
10193TIP3    H252071   3.186   6.268  16.389  0.6881 -0.3601 -0.1277
10194TIP3   OH252072   2.153   6.413  15.858 -0.1692 -0.2876  0.4351
10194TIP3    H152073   2.061   6.410  15.883 -0.2035 -0.9888  0.2380
10194TIP3    H252074   2.178   6.504  15.872 -0.9853 -0.0096  0.1558
10195TIP3   OH252075   1.989   3.350   3.656  0.0617 -0.2047  0.2760
10195TIP3    H152076   1.939   3.372   3.735 -0.3479 -2.0085  0.5511
10195TIP3    H252077   1.988   3.255   3.652  0.4823 -0.1783 -1.6628
10196TIP3   OH252078   0.539   0.942   0.147 -0.2668 -0.5591 -0.1775
10196TIP3    H152079   0.475   0.876   0.172  1.3099 -1.5776  1.3992
10196TIP3    H252080   0.567   0.916   0.059  0.2868 -2.0029  0.3903
10197TIP3   OH252081   2.794   4.009  13.211  0.0865  0.2723 -0.5260
10197TIP3    H152082   2.748   4.090  13.230 -0.6189 -0.1258 -0.4819
10197TIP3    H252083   2.852   3.996  13.286 -2.2675 -1.0046  1.2317
10198TIP3   OH252084   4.776   1.891   3.026 -0.2109  0.3195 -0.2303
10198TIP3    H152085   4.718   1.835   3.078 -3.1823  1.4196 -2.1207
10198TIP3    H252086   4.764   1.979   3.061 -1.2183  0.8609 -1.8290
10199TIP3   OH252087   1.996   5.828  16.840  0.0970  0.3108  0.5828
10199TIP3    H152088   2.080   5.875  16.847  0.7175 -0.4973 -1.0940
10199TIP3    H252089   1.931   5.897  16.827  0.8915  0.8100 -1.0096
10200TIP3   OH252090   4.835   3.602   4.796 -0.0431  0.2918 -0.7776
10200TIP3    H152091   4.820   3.672   4.859  0.1980  1.4173 -1.9510
10200TIP3    H252092   4.771   3.534   4.821  0.7837  0.2117  1.3490
10201TIP3   OH252093   4.704   4.599   4.379 -0.5256 -0.5379 -0.5568
10201TIP3    H152094   4.783   4.650   4.359 -0.1353 -1.2191 -0.7641
10201TIP3    H252095   4.713   4.576   4.471 -0.6642 -0.3106 -0.4840
10202TIP3   OH252096   1.775   5.835  15.491 -0.0085 -0.3336  0.0483
10202TIP3    H152097   1.697   5.887  15.470 -0.1213  0.0323  1.2761
10202TIP3    H252098   1.849   5.891  15.466 -0.1371  0.1227  0.6609
10203TIP3   OH252099   2.483   6.772  12.260  0.0515 -0.4561 -0.2180
10203TIP3    H152100   2.574   6.746  12.274  0.7778  0.9284 -1.9146
10203TIP3    H252101   2.450   6.794  12.347  1.2475 -1.2826  0.4592
10204TIP3   OH252102   2.000   5.486  10.175  0.2797  0.1024  0.5863
10204TIP3    H152103   2.055   5.438  10.113 -2.6803 -1.0047 -1.4187
10204TIP3    H252104   2.029   5.577  10.167 -0.1163  0.0727 -2.8045
10205TIP3   OH252105   6.711   2.781   5.124  0.3465 -0.3479  0.1669
10205TIP3    H152106   6.790   2.812   5.169  0.8346 -1.2251 -0.0589
10205TIP3    H252107   6.665   2.861   5.099  1.4457  0.2079 -0.1838
10206TIP3   OH252108   6.571   5.971   0.147 -0.3889 -0.1655  0.1373
10206TIP3    H152109   6.497   5.929   0.193 -0.3547 -1.0508 -0.5876
10206TIP3    H252110   6.605   5.903   0.090 -0.8288  1.0922 -1.6911
10207TIP3   OH252111   0.229   2.866   5.747 -0.5146  0.3677  0.2906
10207TIP3    H152112   0.209   2.943   5.695  0.9368  0.4889 -0.1515
10207TIP3    H252113   0.164   2.866   5.817 -0.1508  2.3812  0.6917
10208TIP3   OH252114   3.461   2.837   3.189 -0.2168  0.7158 -0.0902
10208TIP3    H152115   3.458   2.771   3.120 -0.2292  0.9643 -0.3288
10208TIP3    H252116   3.521   2.800   3.254  0.6219  0.9366 -0.7123
10209TIP3   OH252117   2.499   3.088   0.676  0.3429 -0.4687 -0.3563
10209TIP3    H152118   2.451   3.109   0.595  0.0708 -1.8088 -0.5579
10209TIP3    H252119   2.436   3.040   0.729  1.8334 -3.7438 -1.3032
10210TIP3   OH252120   0.457   5.312  15.005 -0.7076 -0.1075  0.2788
10210TIP3    H152121   0.437   5.305  14.912 -0.0147 -0.1430  0.1216
10210TIP3    H252122   0.467   5.222  15.034 -0.0341 -0.0760  0.1729
10211TIP3   OH252123   2.653   2.215  15.149  0.0785  0.4387 -0.0004
10211TIP3    H152124   2.739   2.215  15.192 -0.1273  0.6477  0.4174
10211TIP3    H252125   2.591   2.238  15.218 -0.3346  0.1465 -0.2657
10212TIP3   OH252126   0.511   1.311  11.750 -0.2697 -0.3468 -0.9774
10212TIP3    H152127   0.596   1.332  11.787  0.5383 -2.4528 -1.5082
10212TIP3    H252128   0.478   1.394  11.716  0.9518  0.7549  0.4299
10213TIP3   OH252129   6.776   3.951  12.295  0.2211  0.3132  0.7676
10213TIP3    H152130   6.863   3.926  12.328  0.1446 -0.7137  0.2458
10213TIP3    H252131   6.721   3.952  12.373  0.2174 -1.3122  0.8337
10214TIP3   OH252132   2.112   4.560  12.862  0.7049 -1.0263  0.3207
10214TIP3    H152133   2.035   4.550  12.919  0.6499 -0.0913  0.4261
10214TIP3    H252134   2.076   4.563  12.774  0.4876  0.4326  0.4234
10215TIP3   OH252135   5.358   6.396   3.016 -0.2280  0.2148  0.2402
10215TIP3    H152136   5.350   6.344   3.096  2.2392 -1.1946 -0.3455
10215TIP3    H252137   5.323   6.340   2.947 -2.2962  1.4056  0.2204
10216TIP3   OH252138   4.292   2.055  13.317  0.6456 -0.3419 -0.1808
10216TIP3    H152139   4.264   2.134  13.364 -1.1170 -0.5242 -0.8366
10216TIP3    H252140   4.211   2.005  13.305  1.7329 -2.2232  0.1518
10217TIP3   OH252141   4.103   0.569   0.379  0.0436 -0.1543  0.5998
10217TIP3    H152142   4.164   0.574   0.453  0.8456 -2.0321  0.1051
10217TIP3    H252143   4.058   0.654   0.380 -0.8026 -0.5255  3.9202
10218TIP3   OH252144   4.455   6.151   4.414 -0.1800  0.0929  0.0427
10218TIP3    H152145   4.465   6.119   4.325 -1.8232  0.8456 -0.4616
10218TIP3    H252146   4.448   6.246   4.404  0.6042  0.2788  1.0891
10219TIP3   OH252147   4.046   5.388  15.069  0.4350 -0.6791  0.1254
10219TIP3    H152148   3.992   5.321  15.027  1.2046 -1.5138  0.4404
10219TIP3    H252149   4.053   5.360  15.160  0.1858  0.2143  0.4353
10220TIP3   OH252150   5.332   3.547  14.918  0.0226 -0.3218  0.1203
10220TIP3    H152151   5.315   3.637  14.946 -0.1291  0.3167 -1.8851
10220TIP3    H252152   5.319   3.495  14.997 -0.5109  1.3348  1.1845
10221TIP3   OH252153   3.957   6.138  12.035  0.4418 -0.2935  0.3237
10221TIP3    H152154   3.946   6.129  12.130 -0.5812  2.2754  0.5461
10221TIP3    H252155   3.868   6.142  12.001  0.7481  1.3677 -0.3880
10222TIP3   OH252156   5.065   3.544   6.045 -0.2014  0.2315 -0.2539
10222TIP3    H152157   5.040   3.473   6.104  0.5532 -1.6100 -2.0277
10222TIP3    H252158   4.981   3.582   6.018 -0.5512  1.1034  1.9282
10223TIP3   OH252159   5.187   5.932   3.763 -0.0743  0.1892 -0.2208
10223TIP3    H152160   5.144   5.889   3.837  0.1296 -0.4044 -0.4466
10223TIP3    H252161   5.206   6.020   3.795 -0.8202  0.2358  0.1203
10224TIP3   OH252162   6.606   1.278   0.135  0.0670  0.2273 -0.3465
10224TIP3    H152163   6.638   1.189   0.146 -4.7506 -1.7967 -0.1544
10224TIP3    H252164   6.633   1.324   0.214 -0.5791 -2.2875  1.4446
10225TIP3   OH252165   5.265   5.562   1.310 -0.1452 -0.0382 -0.4590
10225TIP3    H152166   5.282   5.575   1.217 -0.9218 -0.3218 -0.6460
10225TIP3    H252167   5.210   5.636   1.336 -0.1232 -0.0836 -0.2769
10226TIP3   OH252168   5.111   4.488  12.587  0.2494  0.0303  0.2379
10226TIP3    H152169   5.157   4.413  12.549 -0.2060  1.2191 -2.9586
10226TIP3    H252170   5.041   4.449  12.640 -0.2970 -1.8317 -1.7177
10227TIP3   OH252171   1.286   1.259  15.265  0.1867  0.2569  0.2586
10227TIP3    H152172   1.272   1.331  15.203  0.1212  1.1773  1.3085
10227TIP3    H252173   1.208   1.203  15.255  0.1117  0.4700 -0.3782
10228TIP3   OH252174   0.279   3.502   1.912  0.2127 -0.1076  0.3282
10228TIP3    H152175   0.346   3.552   1.866  0.1556 -0.4833 -0.1622
10228TIP3    H252176   0.249   3.561   1.981  0.3745  0.4176 -0.0445
10229TIP3   OH252177   0.326   6.633  11.189  0.2609 -0.0414 -0.4975
10229TIP3    H152178   0.407   6.670  11.223 -1.7224  2.2455  2.1091
10229TIP3    H252179   0.283   6.595  11.265 -1.9669  0.4615 -1.4461
10230TIP3   OH252180   0.518   3.741   4.307 -0.4527  0.4528 -0.2036
10230TIP3    H152181   0.585   3.804   4.282  1.1676 -1.2980 -0.4326
10230TIP3    H252182   0.558   3.689   4.377 -2.8268  1.5340  2.1410
10231TIP3   OH252183   6.822   3.749   3.451  0.3110  0.3029 -0.0256
10231TIP3    H152184   6.813   3.844   3.450  1.3970  0.4283  0.3415
10231TIP3    H252185   6.890   3.732   3.517 -1.6280 -0.8966  1.7884
10232TIP3   OH252186   0.776   3.028  14.282 -0.3044  0.0674  0.8356
10232TIP3    H152187   0.725   3.098  14.323 -0.7242  0.4337 -0.2769
10232TIP3    H252188   0.808   2.976  14.356 -3.6084 -1.1475  1.6222
10233TIP3   OH252189   4.967   4.838   6.251  0.0763  0.0187 -0.0854
10233TIP3    H152190   4.945   4.931   6.260 -1.7254 -0.2205 -1.3703
10233TIP3    H252191   4.939   4.816   6.162  2.9993 -1.1304 -0.8580
10234TIP3   OH252192   2.007   5.206   3.749 -0.0486  0.0810  0.3540
10234TIP3    H152193   2.010   5.142   3.678  0.7667  1.1708 -0.6443
10234TIP3    H252194   1.918   5.242   3.745  0.1653  0.5453 -0.5137
10235TIP3   OH252195   2.079   0.188  13.042 -0.3014  0.6522 -0.1417
10235TIP3    H152196   2.016   0.183  12.970  0.6735  1.1845 -1.0567
10235TIP3    H252197   2.080   0.280  13.067 -0.8795  0.4196  0.8093
10236TIP3   OH252198   6.335   3.568  15.417  0.0313 -0.3633 -0.1025
10236TIP3    H152199   6.373   3.637  15.363 -1.0944 -0.0871 -0.5807
10236TIP3    H252200   6.363   3.487  15.375  0.6466 -0.1857 -0.0449
10237TIP3   OH252201   6.603   6.041   1.610 -0.4725  0.5479  0.3370
10237TIP3    H152202   6.582   6.049   1.703 -0.3346 -0.7254  0.4939
10237TIP3    H252203   6.594   5.948   1.592  1.0136  0.5505 -0.5705
10238TIP3   OH252204   2.293   2.172   5.219 -0.1845 -0.4553 -0.6902
10238TIP3    H152205   2.253   2.099   5.267  0.9888 -1.8825 -1.7923
10238TIP3    H252206   2.219   2.219   5.180 -0.9050 -2.7010 -2.2253
10239TIP3   OH252207   6.446   6.104   4.616 -0.2935 -0.6244  0.3994
10239TIP3    H152208   6.531   6.133   4.584 -0.5699 -2.0532 -1.8551
10239TIP3    H252209   6.466   6.045   4.688  0.3993  1.9180  2.4553
10240TIP3   OH252210   5.956   0.447  13.602  0.0725 -0.3290  0.0008
10240TIP3    H152211   5.952   0.488  13.515 -1.1116  0.1408  0.2637
10240TIP3    H252212   5.891   0.378  13.598  0.9281 -1.1611  0.1051
10241TIP3   OH252213   0.759   6.065  15.531 -0.1230  0.1094  0.2171
10241TIP3    H152214   0.789   6.086  15.619 -0.0271  0.5228  0.0882
10241TIP3    H252215   0.804   6.129  15.475 -0.4182  0.0426 -0.0958
10242TIP3   OH252216   4.724   1.304  15.810  0.2576 -0.2903 -0.9704
10242TIP3    H152217   4.633   1.327  15.827  0.1120 -0.3230 -1.6917
10242TIP3    H252218   4.740   1.230  15.869 -0.3851 -0.7111 -1.3029
10243TIP3   OH252219   5.824   3.216  16.821  0.0758  0.0714  0.0435
10243TIP3    H152220   5.849   3.253  16.736  1.4170 -0.7682  0.0329
10243TIP3    H252221   5.796   3.127  16.801  2.3500 -0.8693  0.6245
10244TIP3   OH252222   2.910   5.170   0.339 -0.1861 -0.4984  0.4822
10244TIP3    H152223   3.003   5.172   0.317 -0.1153 -0.2332  0.8109
10244TIP3    H252224   2.903   5.106   0.410 -0.0661  0.4040  1.3285
10245TIP3   OH252225   5.297   1.492  16.032 -0.0266  0.2161 -0.4042
10245TIP3    H152226   5.347   1.452  16.104 -1.1648  0.4323  0.5337
10245TIP3    H252227   5.327   1.583  16.030  1.7541 -0.3424 -1.8136
10246TIP3   OH252228   5.097   3.090   3.348  0.3182 -0.0286 -0.1957
10246TIP3    H152229   5.095   3.047   3.262  0.0737  1.9401 -1.2440
10246TIP3    H252230   5.181   3.136   3.350  0.6316 -0.6208  0.9381
10247TIP3   OH252231   1.745   1.075   3.047  0.4508 -0.1242 -0.0229
10247TIP3    H152232   1.732   1.083   3.141  0.2887 -0.5866 -0.0037
10247TIP3    H252233   1.711   1.158   3.012  4.6684  2.1426  0.6491
10248TIP3   OH252234   6.542   2.852   2.697  0.2615 -0.2472  0.1482
10248TIP3    H152235   6.555   2.773   2.644 -0.4652  0.7491 -1.5883
10248TIP3    H252236   6.461   2.890   2.664  0.7240  1.3566  0.7760
10249TIP3   OH252237   2.576   2.799  11.023 -0.4132 -0.0328 -0.0685
10249TIP3    H152238   2.578   2.715  10.976  0.6504  0.0687 -0.2334
10249TIP3    H252239   2.559   2.864  10.955 -0.6727 -0.0522 -0.0255
10250TIP3   OH252240   1.625   2.820  12.156  0.3675  0.1006 -0.1937
10250TIP3    H152241   1.540   2.857  12.134  1.4630  3.1630  0.2646
10250TIP3    H252242   1.625   2.816  12.252  0.4649 -0.6445 -0.2199
10251TIP3   OH252243   3.737   2.539  11.868  0.9271 -0.2646  0.3131
10251TIP3    H152244   3.808   2.603  11.869  0.0985  0.6818  0.1616
10251TIP3    H252245   3.742   2.498  11.782  0.5101  0.7145 -0.1946
10252TIP3   OH252246   4.581   6.523  14.072  0.3707  0.3049  0.6141
10252TIP3    H152247   4.518   6.541  14.142 -1.2679 -0.3562 -0.6058
10252TIP3    H252248   4.639   6.457  14.108  1.5583  2.1936  2.3960
10253TIP3   OH252249   5.231   1.794   0.626  0.1850 -0.1041 -0.0108
10253TIP3    H152250   5.256   1.744   0.704  0.2510 -1.2779 -0.7759
10253TIP3    H252251   5.265   1.882   0.643  1.3053 -0.6619  0.7287
10254TIP3   OH252252   4.043   3.317  12.794  0.0919  0.1036  0.8854
10254TIP3    H152253   3.982   3.371  12.844 -0.8838 -0.2526  0.0926
10254TIP3    H252254   4.100   3.381  12.751  0.2520  0.4376  1.5745
10255TIP3   OH252255   3.908   2.128   3.154  0.1483 -0.4374  0.4257
10255TIP3    H152256   3.819   2.159   3.167 -0.2178 -1.2381 -0.0483
10255TIP3    H252257   3.964   2.195   3.192 -0.6867 -0.2726  1.3872
10256TIP3   OH252258   4.540   3.248   1.436 -0.7042  0.4285 -0.7358
10256TIP3    H152259   4.475   3.197   1.388 -0.6796  0.6709 -1.0260
10256TIP3    H252260   4.495   3.331   1.455 -1.3705 -0.3109  1.2319
10257TIP3   OH252261   2.275   1.698   2.842 -0.8066  0.4835  0.4665
10257TIP3    H152262   2.297   1.606   2.825  0.9977  1.1712 -1.4105
10257TIP3    H252263   2.360   1.741   2.851 -1.5921  2.1576  0.1969
10258TIP3   OH252264   2.108   3.977  16.827 -0.1654 -0.1629 -0.5994
10258TIP3    H152265   2.166   3.993  16.901  0.2291 -1.4523 -0.5951
10258TIP3    H252266   2.042   3.917  16.861 -0.1210 -0.5750 -1.2180
10259TIP3   OH252267   0.487   5.589  16.220 -0.4439 -0.1712  0.8019
10259TIP3    H152268   0.423   5.586  16.290 -1.0674 -0.5621  0.2322
10259TIP3    H252269   0.545   5.514  16.237 -0.0601  0.2550  1.3859
10260TIP3   OH252270   3.522   0.327   0.157 -0.5528  0.4175  0.5868
10260TIP3    H152271   3.448   0.328   0.218  0.5788 -0.0267  2.0148
10260TIP3    H252272   3.508   0.249   0.103 -0.5441 -0.3020  1.6052
10261TIP3   OH252273   4.025   0.180   1.136 -0.4496 -0.5623  0.3617
10261TIP3    H152274   4.078   0.223   1.069 -2.1176 -1.2382 -1.4557
10261TIP3    H252275   3.936   0.211   1.121 -0.9228 -0.9500  2.1102
10262TIP3   OH252276   3.158   3.850  13.455 -0.1570 -0.2890 -0.1305
10262TIP3    H152277   3.157   3.761  13.492  1.5183  0.1357  1.0381
10262TIP3    H252278   3.164   3.907  13.531  1.7101  0.6901 -0.9559
10263TIP3   OH252279   4.804   1.565  16.463  0.1180  0.1439 -0.0980
10263TIP3    H152280   4.788   1.473  16.442 -1.2107  0.1521  0.7870
10263TIP3    H252281   4.821   1.566  16.557  0.1582  0.8025 -0.1052
10264TIP3   OH252282   0.721   2.016   1.547 -0.1377  0.2662 -0.1953
10264TIP3    H152283   0.765   2.051   1.470 -0.1720  0.4901 -0.1146
10264TIP3    H252284   0.674   1.939   1.515 -0.8640  0.8632 -0.5715
10265TIP3   OH252285   4.022   3.638  16.734  0.5794  0.5795 -0.5152
10265TIP3    H152286   4.046   3.567  16.675 -1.9819 -0.2042 -0.7034
10265TIP3    H252287   4.003   3.712  16.676 -1.5483 -0.0749 -0.7236
10266TIP3   OH252288   5.799   4.235  13.370 -0.1743  0.8443 -0.3401
10266TIP3    H152289   5.734   4.268  13.309  1.6250  3.8569 -0.8361
10266TIP3    H252290   5.859   4.183  13.315  0.6117  2.3122 -0.9220
10267TIP3   OH252291   5.947   1.746   0.940 -0.1122 -0.2661  0.1546
10267TIP3    H152292   5.961   1.834   0.977 -0.8960  0.9154 -2.1694
10267TIP3    H252293   5.857   1.725   0.963  0.6749 -1.4424  2.4773
10268TIP3   OH252294   3.566   1.090  16.284  0.2089  0.3807  0.2467
10268TIP3    H152295   3.538   1.039  16.360  1.8259 -0.7730  0.1344
10268TIP3    H252296   3.555   1.031  16.210 -0.9996  1.3703 -0.3900
10269TIP3   OH252297   5.209   3.920  15.212  0.0176 -0.1669  0.2334
10269TIP3    H152298   5.174   3.993  15.263  0.7924 -0.3157  0.9955
10269TIP3    H252299   5.150   3.914  15.137  0.3971  1.7750 -0.2894
10270TIP3   OH252300   4.207   3.394  11.569  0.2375  0.1366 -0.5614
10270TIP3    H152301   4.225   3.330  11.638 -0.3631 -0.2134 -0.7222
10270TIP3    H252302   4.229   3.350  11.488  2.0937  0.9580 -0.5533
10271TIP3   OH252303   4.658   5.986  12.230 -0.1083  0.1464  0.0660
10271TIP3    H152304   4.748   5.965  12.205 -0.2146 -0.0054 -0.1811
10271TIP3    H252305   4.614   6.006  12.148  0.5173  3.4728  0.3712
10272TIP3   OH252306   0.434   3.587   6.370  0.2958 -0.1974  0.1857
10272TIP3    H152307   0.501   3.631   6.423  1.1983 -0.3816 -0.7760
10272TIP3    H252308   0.443   3.494   6.393 -0.0469 -0.1517  0.5075
10273TIP3   OH252309   2.027   3.094  15.200  0.3955 -0.6074  0.8057
10273TIP3    H152310   2.093   3.041  15.154  0.7114  0.3083  0.1786
10273TIP3    H252311   1.977   3.030  15.251  2.0073 -1.3092  1.6147
10274TIP3   OH252312   5.461   0.761   3.629  0.4205  0.4885  0.5205
10274TIP3    H152313   5.463   0.706   3.551  2.2682 -0.1123  0.9524
10274TIP3    H252314   5.391   0.725   3.683  0.2263 -0.1153 -0.1333
10275TIP3   OH252315   5.576   5.269  15.010 -0.3480 -0.1907 -0.0244
10275TIP3    H152316   5.670   5.254  15.015 -0.3968 -0.1560  1.2865
10275TIP3    H252317   5.538   5.199  15.062 -0.9532  0.5773  0.6047
10276TIP3   OH252318   1.582   6.377   3.644 -0.0141 -0.0169 -0.1415
10276TIP3    H152319   1.633   6.413   3.572 -1.4146  0.6288 -0.8653
10276TIP3    H252320   1.592   6.441   3.715  1.3659 -0.6532  0.2591
10277TIP3   OH252321   0.033   5.829   3.561 -0.0648 -0.1439  0.7360
10277TIP3    H152322   0.106   5.890   3.571 -0.8448  1.1389 -0.8355
10277TIP3    H252323  -0.031   5.857   3.626 -0.0611  0.1597  0.6099
10278TIP3   OH252324   4.905   1.484  16.852 -0.6028 -0.2005 -0.1821
10278TIP3    H152325   4.900   1.556  16.789  1.1536 -0.9992 -1.3055
10278TIP3    H252326   4.905   1.405  16.798 -0.2102 -0.9641  0.8986
10279TIP3   OH252327   3.934   5.065  15.994 -0.3593 -0.0949 -0.0064
10279TIP3    H152328   3.940   5.024  15.908 -0.2984  1.7686 -0.9611
10279TIP3    H252329   3.843   5.094  16.000 -1.2660 -2.9239  1.9738
10280TIP3   OH252330   3.690   3.403  16.364 -0.0193  0.0107  0.8274
10280TIP3    H152331   3.643   3.394  16.282  1.1031  1.1451  0.0249
10280TIP3    H252332   3.679   3.494  16.389  1.5492  0.2627  0.7161
10281TIP3   OH252333   3.262   4.298  16.852  0.0873 -0.8603  0.1734
10281TIP3    H152334   3.290   4.300  16.943  2.1833  0.5949 -0.4120
10281TIP3    H252335   3.225   4.385  16.835  1.5950 -0.3611 -0.8231
10282TIP3   OH252336   5.000   2.145   3.832  0.0459 -0.0408 -0.4903
10282TIP3    H152337   5.089   2.137   3.798  0.5665  0.0915  0.8068
10282TIP3    H252338   4.963   2.058   3.821  1.5250 -1.1010  2.1285
10283TIP3   OH252339   2.653   5.082   5.007 -0.0432  0.8577 -0.4480
10283TIP3    H152340   2.564   5.060   4.979  0.1598 -1.6484  0.5977
10283TIP3    H252341   2.710   5.050   4.937  0.1478  0.0534  0.0624
10284TIP3   OH252342   4.860   4.410   5.100 -0.3022 -0.0107 -0.8749
10284TIP3    H152343   4.824   4.390   5.187  1.1412 -0.9631 -0.4718
10284TIP3    H252344   4.849   4.505   5.091 -0.3529  0.1209  0.4022
10285TIP3   OH252345   2.482   3.503   5.900  0.2896  0.0629  0.1538
10285TIP3    H152346   2.466   3.411   5.924 -1.3270 -0.4290 -2.4578
10285TIP3    H252347   2.560   3.500   5.845 -0.3128  0.0735 -0.7240
10286TIP3   OH252348   6.017   3.426   2.229 -0.5729 -0.4853  0.1416
10286TIP3    H152349   6.098   3.413   2.180  0.4188  0.8181  1.3609
10286TIP3    H252350   5.990   3.515   2.206 -0.4822 -0.1277  1.3667
10287TIP3   OH252351   1.103   4.421   0.996 -0.6455 -0.1476 -0.4873
10287TIP3    H152352   1.167   4.448   1.062 -2.5683 -1.1020  1.9271
10287TIP3    H252353   1.042   4.494   0.990 -1.8287 -1.0022  0.6708
10288TIP3   OH252354   5.666   2.380   4.528  0.3179  0.3378 -0.3127
10288TIP3    H152355   5.654   2.444   4.598 -0.1084  0.4611 -0.4934
10288TIP3    H252356   5.649   2.429   4.448  1.1223  0.2783 -0.5264
10289TIP3   OH252357   1.562   3.296   0.817  0.1956 -0.5408 -0.1029
10289TIP3    H152358   1.629   3.297   0.748  2.7052 -1.2992  2.1643
10289TIP3    H252359   1.540   3.204   0.828 -1.1494 -0.3165 -0.6769
10290TIP3   OH252360   0.709   3.726   0.823  0.2156  0.2850 -0.4254
10290TIP3    H152361   0.655   3.786   0.772 -0.0332  0.9012  0.5226
10290TIP3    H252362   0.662   3.716   0.906  0.3642 -1.0660 -0.4812
10291TIP3   OH252363   2.050   0.557  17.138 -0.2283 -0.6315  0.8258
10291TIP3    H152364   2.014   0.602  17.215 -0.7975  0.3555  0.0127
10291TIP3    H252365   1.974   0.537  17.084  0.3411  1.6722 -1.0227
10292TIP3   OH252366   0.333   3.582   3.153 -0.9092  0.6630 -0.3900
10292TIP3    H152367   0.425   3.607   3.163 -0.7905  0.7030 -1.5283
10292TIP3    H252368   0.331   3.489   3.173 -0.6086  0.6382 -0.4842
10293TIP3   OH252369   3.400   0.589   0.719  0.2366  0.9793  0.7858
10293TIP3    H152370   3.424   0.681   0.717  0.3729  0.9352 -0.6534
10293TIP3    H252371   3.317   0.586   0.766  0.6308  1.7162  1.5638
10294TIP3   OH252372   4.937   6.795  12.891 -0.6055  0.2901 -0.4897
10294TIP3    H152373   4.946   6.822  12.800  0.5631 -0.7345 -0.7013
10294TIP3    H252374   4.973   6.707  12.894 -2.6336 -0.5838  0.5503
10295TIP3   OH252375   2.162   2.075   0.468  0.1886  0.0942 -0.2891
10295TIP3    H152376   2.093   2.056   0.404 -1.6381 -0.1528  1.6488
10295TIP3    H252377   2.212   1.994   0.473 -1.7380 -1.0923  0.9958
10296TIP3   OH252378   5.183   2.503   6.332  0.1162  0.8016  0.0289
10296TIP3    H152379   5.199   2.509   6.426 -0.9410  2.0388  0.1623
10296TIP3    H252380   5.092   2.531   6.321 -0.2218 -0.6622 -1.2273
10297TIP3   OH252381   2.024   2.964  12.952  0.8526 -0.0854 -0.0817
10297TIP3    H152382   2.023   2.906  12.876  1.0249 -2.5198  1.6589
10297TIP3    H252383   2.111   2.951  12.991 -0.5627 -2.1566  2.7569
10298TIP3   OH252384   3.746   3.530  11.130  0.2350  0.2917 -0.6339
10298TIP3    H152385   3.789   3.447  11.148 -0.7304 -0.0643  0.1852
10298TIP3    H252386   3.784   3.591  11.194  0.6213  0.3745 -0.9382
10299TIP3   OH252387   0.325   4.570   2.398  0.4487 -0.7457 -0.2046
10299TIP3    H152388   0.281   4.571   2.483 -0.1242 -3.0174 -0.4112
10299TIP3    H252389   0.283   4.641   2.349 -0.4225 -0.5051  0.8416
10300TIP3   OH252390   2.960   3.259  11.739 -0.2537 -0.4837  0.3510
10300TIP3    H152391   2.971   3.231  11.649 -1.6409 -0.7003  0.2366
10300TIP3    H252392   2.985   3.352  11.739 -1.1541 -0.2361 -0.4492
10301TIP3   OH252393   2.772   4.312  11.484  0.3594 -0.2961 -1.1047
10301TIP3    H152394   2.820   4.296  11.404  1.5302 -1.4075 -0.2181
10301TIP3    H252395   2.830   4.282  11.554 -0.5130  0.8873  0.1827
10302TIP3   OH252396   2.341   4.771  14.397 -0.6933  0.2702 -0.1588
10302TIP3    H152397   2.376   4.847  14.445  0.1076  0.1690 -0.5557
10302TIP3    H252398   2.407   4.702  14.411 -0.6909  0.0944 -0.9965
10303TIP3   OH252399   2.134   2.420  10.825 -0.2819 -0.1411  0.1898
10303TIP3    H152400   2.131   2.330  10.794 -1.6025  0.6452 -2.2133
10303TIP3    H252401   2.186   2.416  10.905  0.5026 -2.8710 -0.3551
10304TIP3   OH252402   0.195   4.038   1.438 -0.5512  0.0545 -0.0473
10304TIP3    H152403   0.289   4.045   1.452 -0.7310  1.7497  0.4520
10304TIP3    H252404   0.160   4.011   1.523 -0.5223 -0.6494 -0.2526
10305TIP3   OH252405   4.027   6.037  11.759  0.3745 -0.1149  0.0784
10305TIP3    H152406   3.994   6.093  11.689  2.8433  1.7832  0.3095
10305TIP3    H252407   3.997   6.079  11.840  0.3503 -0.4178  0.2282
10306TIP3   OH252408   0.529   6.680  11.364 -0.3269 -0.4839 -0.4826
10306TIP3    H152409   0.529   6.762  11.415 -1.1813 -1.2273  0.7704
10306TIP3    H252410   0.560   6.614  11.426 -0.9517 -1.3365 -1.0627
10307TIP3   OH252411   2.090   0.856   3.903 -0.2454 -0.0685 -0.5052
10307TIP3    H152412   2.173   0.817   3.874 -0.6391 -1.0014 -0.3964
10307TIP3    H252413   2.095   0.855   3.998 -0.2624  0.1544 -0.5008
10308TIP3   OH252414   2.760   5.482   4.902  0.3915 -0.2343 -0.0859
10308TIP3    H152415   2.690   5.520   4.954  0.6226 -1.6919  1.3654
10308TIP3    H252416   2.726   5.481   4.812 -0.4057  1.3857  0.1571
10309TIP3   OH252417   6.772   3.237  13.032  0.1888 -0.0426  0.1692
10309TIP3    H152418   6.745   3.170  12.968 -0.7977  0.5665 -0.0776
10309TIP3    H252419   6.812   3.187  13.103 -0.1257 -0.8616 -0.2132
10310TIP3   OH252420   2.186   4.403  14.757  0.6691 -0.1131 -0.0316
10310TIP3    H152421   2.135   4.329  14.791 -0.4600 -0.0813 -1.5287
10310TIP3    H252422   2.264   4.362  14.719  0.5914 -0.4219  0.1383
10311TIP3   OH252423   5.872   5.723  11.682  0.0444  0.3773 -0.3164
10311TIP3    H152424   5.961   5.705  11.710 -0.1226 -0.2677 -0.1821
10311TIP3    H252425   5.867   5.688  11.593 -0.4116 -0.7085  0.1094
10312TIP3   OH252426   6.021   4.205   1.925  0.0237 -0.2388 -0.7828
10312TIP3    H152427   5.934   4.213   1.964  0.7411 -1.4484  1.2436
10312TIP3    H252428   6.019   4.123   1.877  0.6940 -1.5357  1.2882
10313TIP3   OH252429   0.340   0.585   2.815  0.2270  0.7020 -0.2921
10313TIP3    H152430   0.312   0.571   2.725 -1.2897 -0.5422  0.3403
10313TIP3    H252431   0.377   0.501   2.842  0.1996  0.9068  0.4023
10314TIP3   OH252432   1.787   1.909   1.593  0.2165 -0.2091  0.7029
10314TIP3    H152433   1.808   1.904   1.500 -0.6858  0.9920  0.4164
10314TIP3    H252434   1.698   1.875   1.600  0.1251  0.0961  1.0679
10315TIP3   OH252435   6.073   6.359  12.876 -0.3113  0.1654 -0.3086
10315TIP3    H152436   6.088   6.326  12.787  1.0447 -0.2887  0.0654
10315TIP3    H252437   5.978   6.351  12.888 -0.5060  0.1368 -1.6682
10316TIP3   OH252438   5.070   0.066   6.316 -0.3362  0.2566  0.2606
10316TIP3    H152439   5.154   0.112   6.318 -0.4482  0.4932 -0.2549
10316TIP3    H252440   5.013   0.122   6.264 -1.0734  0.5154  1.3032
10317TIP3   OH252441   5.500   3.719   2.791 -0.2103  0.6996 -0.5888
10317TIP3    H152442   5.423   3.669   2.766  0.7785 -0.9059 -0.5784
10317TIP3    H252443   5.469   3.810   2.798 -2.3806 -0.0806  0.8010
10318TIP3   OH252444   4.029   0.883   3.748  0.0000 -0.3269 -0.1154
10318TIP3    H152445   4.011   0.789   3.745  0.1940 -0.3644 -0.1374
10318TIP3    H252446   3.966   0.921   3.686 -0.9971 -0.2868  0.8888
10319TIP3   OH252447   4.608   1.049   4.573  0.4666 -0.3502  0.4976
10319TIP3    H152448   4.593   1.024   4.664 -1.0310 -0.8902  0.1235
10319TIP3    H252449   4.695   1.091   4.574  0.2421  0.1615  2.2516
10320TIP3   OH252450   3.827   0.869  14.054 -0.1286  1.0528  0.1274
10320TIP3    H152451   3.827   0.871  13.958 -1.5597  0.1446  0.0806
10320TIP3    H252452   3.742   0.906  14.079 -0.4085 -0.0998  0.9789
10321TIP3   OH252453   2.856   2.541   5.254  0.2474 -0.6041  0.5988
10321TIP3    H152454   2.797   2.473   5.288 -0.4033  0.9735  2.8300
10321TIP3    H252455   2.799   2.615   5.236  1.1916 -0.0257 -0.0883
10322TIP3   OH252456   6.645   6.699   5.429 -0.3161  0.0341  0.0013
10322TIP3    H152457   6.613   6.609   5.435 -2.2174  0.7213  1.4919
10322TIP3    H252458   6.737   6.694   5.454  0.1674 -1.7162 -1.8777
10323TIP3   OH252459   6.507   3.868  12.864  0.2491 -0.2749 -0.5691
10323TIP3    H152460   6.518   3.960  12.888  0.4696 -0.3686 -0.3039
10323TIP3    H252461   6.566   3.821  12.923 -1.5690 -0.8183  0.8757
10324TIP3   OH252462   4.941   6.199  15.650  0.1372  0.6078 -0.2109
10324TIP3    H152463   4.937   6.138  15.724  0.6083  1.7753  0.8033
10324TIP3    H252464   5.007   6.263  15.675 -1.2850  2.3081 -0.6443
10325TIP3   OH252465   3.438   0.179   1.128  0.1149 -0.3233 -0.3161
10325TIP3    H152466   3.380   0.255   1.121 -0.3515 -0.8398 -2.7820
10325TIP3    H252467   3.443   0.144   1.040  2.7335 -1.4137  0.1601
10326TIP3   OH252468   3.340   4.678  15.896  0.2830  0.5475 -0.4846
10326TIP3    H152469   3.409   4.674  15.962 -1.4463 -0.1980  1.4165
10326TIP3    H252470   3.384   4.663  15.813  2.0758 -3.0911  0.9061
10327TIP3   OH252471   5.256   5.313  12.463  0.2913 -0.4876 -0.1675
10327TIP3    H152472   5.331   5.369  12.484  0.2254 -0.4503 -0.0277
10327TIP3    H252473   5.280   5.226  12.496  1.0835 -0.9411 -1.8281
10328TIP3   OH252474   2.439   3.942  13.299  0.2040  0.3630 -0.2760
10328TIP3    H152475   2.450   3.907  13.211 -0.9279  1.5890 -0.9410
10328TIP3    H252476   2.524   3.981  13.320  0.2733  0.7045 -1.1344
10329TIP3   OH252477   1.587   1.219   3.562 -0.1831 -0.3034 -0.0237
10329TIP3    H152478   1.521   1.228   3.631 -1.0053  2.8436 -1.0442
10329TIP3    H252479   1.670   1.230   3.607 -0.6326  0.4593  0.6482
10330TIP3   OH252480   4.231   6.515  14.540  0.5665 -0.2201 -0.0759
10330TIP3    H152481   4.161   6.576  14.517  1.0297  0.7365  0.9607
10330TIP3    H252482   4.288   6.512  14.464 -0.3539 -0.6839 -0.7703
10331TIP3   OH252483   1.466   6.596  10.755 -0.4857  0.4478 -0.0864
10331TIP3    H152484   1.509   6.680  10.774 -0.5814  0.7487 -1.1590
10331TIP3    H252485   1.525   6.530  10.791  0.2143  0.9154 -0.3648
10332TIP3   OH252486   5.394   2.232  14.278 -0.3664 -0.1602 -0.1715
10332TIP3    H152487   5.427   2.296  14.340  0.3736  0.2533 -0.9778
10332TIP3    H252488   5.348   2.168  14.332 -0.6373  0.7423  0.6947
10333TIP3   OH252489   4.558   1.749  12.243 -0.0252 -0.0342  0.1434
10333TIP3    H152490   4.648   1.779  12.250 -0.0614  0.4225 -1.1873
10333TIP3    H252491   4.514   1.790  12.317  0.4044  1.4924 -0.3974
10334TIP3   OH252492   5.241   1.981  16.380  0.5575  0.4789 -0.3126
10334TIP3    H152493   5.331   1.946  16.380  0.7330  0.8090  1.5819
10334TIP3    H252494   5.195   1.927  16.444 -0.8171 -0.1393 -1.7751
10335TIP3   OH252495   4.166   6.397   3.431  0.2604 -0.6369 -0.1092
10335TIP3    H152496   4.188   6.477   3.383 -0.1008 -0.5525 -0.1424
10335TIP3    H252497   4.246   6.374   3.478  1.4534 -2.1241 -2.6634
10336TIP3   OH252498   6.812   3.998  10.855  0.5458 -0.0507  0.1267
10336TIP3    H152499   6.771   3.917  10.825 -0.0922  0.0481  0.7063
10336TIP3    H252500   6.759   4.026  10.930  1.5300  0.2168  0.7422
10337TIP3   OH252501   1.536   1.581  13.075 -0.6540  0.0679 -0.2629
10337TIP3    H152502   1.582   1.664  13.059  0.5718 -0.7364 -0.9875
10337TIP3    H252503   1.560   1.559  13.165 -0.9978  0.4956 -0.0600
10338TIP3   OH252504   3.100   1.268  11.469 -0.4757  0.5026  0.2259
10338TIP3    H152505   3.006   1.285  11.476 -0.9046 -1.7719  0.6972
10338TIP3    H252506   3.107   1.202  11.401  1.0117  1.9794 -1.1295
10339TIP3   OH252507   1.791   2.525   3.713  0.1982  1.0172 -0.4422
10339TIP3    H152508   1.798   2.581   3.790  0.7248 -0.8458  0.9274
10339TIP3    H252509   1.850   2.565   3.649  0.3696  2.1505  0.4044
10340TIP3   OH252510   0.083   3.433   2.990 -0.3403 -0.8452  0.0633
10340TIP3    H152511   0.160   3.446   2.934  0.1508 -1.4049  0.5868
10340TIP3    H252512   0.106   3.476   3.073 -0.6344 -0.9174  0.1832
10341TIP3   OH252513   1.795   2.684   3.042 -0.2809 -0.1433  0.0060
10341TIP3    H152514   1.869   2.727   3.085  0.3858  0.4663 -1.6615
10341TIP3    H252515   1.728   2.751   3.035  0.2325  0.2734 -1.3231
10342TIP3   OH252516   3.097   1.549  12.050  0.3565  0.0035  0.1036
10342TIP3    H152517   3.114   1.469  11.999  0.6318 -0.0472  0.2696
10342TIP3    H252518   3.133   1.529  12.137  0.3116  0.2612  0.1811
10343TIP3   OH252519   0.669   0.162  11.399  0.7011  0.1674  0.2691
10343TIP3    H152520   0.675   0.256  11.381 -1.4282  0.0882 -1.2591
10343TIP3    H252521   0.595   0.154  11.459  0.5720 -0.5389  0.0289
10344TIP3   OH252522   3.857   0.008   5.015 -0.7630 -0.0318 -0.0461
10344TIP3    H152523   3.892   0.027   5.102  0.1917 -0.1649 -0.3963
10344TIP3    H252524   3.898   0.072   4.958 -2.6718  1.1874 -0.1687
10345TIP3   OH252525   5.378   4.560   2.966 -0.3605  0.2279 -0.3283
10345TIP3    H152526   5.301   4.605   2.931 -0.3401  0.1849 -0.4268
10345TIP3    H252527   5.452   4.604   2.926 -0.3692 -0.9132 -1.6651
10346TIP3   OH252528   0.820   2.267  13.796  0.2351  0.1471 -0.2314
10346TIP3    H152529   0.885   2.239  13.860 -1.2863 -2.5306  0.3150
10346TIP3    H252530   0.849   2.229  13.713 -1.5261 -2.8782  0.3986
10347TIP3   OH252531   5.383   1.718  16.553  0.1062  0.1203  0.2258
10347TIP3    H152532   5.440   1.755  16.620 -0.4026  2.8677 -0.7232
10347TIP3    H252533   5.396   1.774  16.477 -1.0537 -1.4923 -1.2508
10348TIP3   OH252534   2.678   1.420   4.900  0.4181  0.2849 -0.2767
10348TIP3    H152535   2.606   1.481   4.916 -2.7747 -2.0213 -3.9388
10348TIP3    H252536   2.648   1.337   4.935  1.4052 -0.6521 -1.5391
10349TIP3   OH252537   1.076   6.232   3.823  0.3888  0.4368  0.3818
10349TIP3    H152538   1.000   6.275   3.863 -0.1784 -1.3402  1.3321
10349TIP3    H252539   1.049   6.214   3.733 -0.1638  0.1952  0.5925
10350TIP3   OH252540   5.939   0.013  14.592  0.1551  0.5324 -0.2192
10350TIP3    H152541   5.921  -0.058  14.529  0.7421  1.3222 -1.3124
10350TIP3    H252542   5.963  -0.033  14.672 -0.6436 -0.5139 -0.5417
10351TIP3   OH252543   2.091   2.662  13.025  0.1250 -0.2685  0.3308
10351TIP3    H152544   2.105   2.709  13.107 -0.6988 -0.6969  0.7324
10351TIP3    H252545   2.136   2.578  13.038  0.4092 -0.1437  0.1547
10352TIP3   OH252546   6.392   3.937   5.573  0.1965 -0.2639 -0.2359
10352TIP3    H152547   6.343   3.856   5.580 -0.1711 -0.2092 -1.8295
10352TIP3    H252548   6.477   3.911   5.538 -0.7725  0.2121 -3.2830
10353TIP3   OH252549   5.796   3.957   3.555  0.3708  0.4157  0.3228
10353TIP3    H152550   5.730   3.979   3.620  2.5384  0.1842  2.7780
10353TIP3    H252551   5.821   3.867   3.576  1.1437  0.3363 -0.8463
10354TIP3   OH252552   3.641   2.214   3.201  0.2104  0.1730  0.2508
10354TIP3    H152553   3.605   2.158   3.271 -1.7637  0.5286 -0.4185
10354TIP3    H252554   3.565   2.238   3.148  1.1547  2.6237 -0.1185
10355TIP3   OH252555   2.785   0.430  14.805  0.5385  0.2051 -0.1707
10355TIP3    H152556   2.692   0.452  14.799  0.5791  0.5876  0.4901
10355TIP3    H252557   2.826   0.509  14.840  1.0154 -0.1860  0.1706
10356TIP3   OH252558   1.954   2.579   0.338  0.2362 -0.0223 -0.6886
10356TIP3    H152559   1.887   2.637   0.301 -1.0522  0.0201  1.5191
10356TIP3    H252560   2.028   2.586   0.278 -0.3366  2.9445 -1.2129
10357TIP3   OH252561   3.677   0.615  13.615  0.4722  0.6234  0.1766
10357TIP3    H152562   3.678   0.553  13.542 -1.2390  1.0574 -0.2551
10357TIP3    H252563   3.627   0.570  13.683 -0.0289  1.1700  0.1747
10358TIP3   OH252564   3.576   6.163  11.428 -0.2081  0.4547 -0.1304
10358TIP3    H152565   3.491   6.198  11.454 -0.2449  0.4845 -0.2855
10358TIP3    H252566   3.560   6.070  11.411 -0.2907  0.5357 -0.5111
10359TIP3   OH252567   6.212   4.485  11.080  0.3817 -0.1029  0.3162
10359TIP3    H152568   6.307   4.494  11.087  0.7766 -1.9873 -1.8178
10359TIP3    H252569   6.199   4.421  11.011 -2.4486 -0.6570  1.2655
10360TIP3   OH252570   2.254   4.656  14.908 -0.0857 -0.2499 -0.0191
10360TIP3    H152571   2.217   4.573  14.878 -0.6065  0.1630 -0.5304
10360TIP3    H252572   2.326   4.673  14.847 -1.7623  1.0908 -1.7519
10361TIP3   OH252573   4.532   1.172   2.929 -0.3051 -0.2304  0.3552
10361TIP3    H152574   4.473   1.098   2.913 -1.8680  0.3213  3.0210
10361TIP3    H252575   4.619   1.132   2.934 -0.8327 -1.5468 -0.4444
10362TIP3   OH252576   2.853   2.253   6.584 -0.0698  0.3757  0.0103
10362TIP3    H152577   2.781   2.257   6.522  1.3699  1.1183 -1.6717
10362TIP3    H252578   2.881   2.343   6.595  2.5003 -0.0977 -1.7489
10363TIP3   OH252579   6.423   1.749  12.361  0.0887  0.8854  0.2301
10363TIP3    H152580   6.328   1.735  12.362 -0.2462  2.6050 -1.2341
10363TIP3    H252581   6.454   1.699  12.285  0.0759  1.6509 -0.2923
10364TIP3   OH252582   1.359   3.196  10.384  0.2448  0.2934  0.4263
10364TIP3    H152583   1.340   3.218  10.475 -1.9652 -1.2694  0.4472
10364TIP3    H252584   1.341   3.102  10.378 -2.1590  0.7701 -2.0997
10365TIP3   OH252585   1.092   4.556  15.895  0.0290  0.2967  0.0698
10365TIP3    H152586   1.080   4.589  15.984  0.0747 -0.3917  0.3315
10365TIP3    H252587   1.014   4.504  15.878 -0.2830  0.9332 -0.5337
10366TIP3   OH252588   0.133   0.742  13.389  0.1688  0.1556 -0.0392
10366TIP3    H152589   0.203   0.701  13.338  1.5334  1.2310  0.8703
10366TIP3    H252590   0.151   0.836  13.383 -3.0286  0.7643 -2.3207
10367TIP3   OH252591   3.243   4.367  13.263  0.2288  0.4060 -0.7500
10367TIP3    H152592   3.264   4.277  13.238 -0.5804  0.2941 -1.0428
10367TIP3    H252593   3.269   4.419  13.187  1.9145  0.5901 -0.0857
10368TIP3   OH252594   6.581   6.340   6.218 -0.4679 -0.1738 -0.1156
10368TIP3    H152595   6.584   6.418   6.274 -1.3872 -0.1074 -0.1451
10368TIP3    H252596   6.545   6.272   6.275 -1.7187 -0.0257 -0.7002
10369TIP3   OH252597   4.400   6.668   1.155  0.0321 -0.3551 -0.2615
10369TIP3    H152598   4.330   6.685   1.093  0.0324 -0.8933 -0.4171
10369TIP3    H252599   4.420   6.575   1.144 -0.6420 -0.7057  1.2507
10370TIP3   OH252600   6.137   5.892  12.619 -0.1185 -0.0347  0.4737
10370TIP3    H152601   6.146   5.971  12.567  0.5207 -0.4395 -0.0527
10370TIP3    H252602   6.223   5.880  12.660  1.5191 -3.0364 -3.2596
10371TIP3   OH252603   5.729   2.151  12.484 -0.5044  0.2994  0.8785
10371TIP3    H152604   5.818   2.132  12.514  0.1042 -1.6195 -1.8762
10371TIP3    H252605   5.672   2.117  12.554  0.8334  1.1393  2.4591
10372TIP3   OH252606   0.861   1.116   2.277 -0.4793  0.0907 -0.5822
10372TIP3    H152607   0.933   1.160   2.231 -0.5568 -0.2804 -1.0618
10372TIP3    H252608   0.785   1.171   2.259 -0.5428 -0.1410 -1.0449
10373TIP3   OH252609   6.165   5.815  11.416 -0.0268  0.3699  0.2166
10373TIP3    H152610   6.201   5.881  11.475  0.1378 -0.1159  0.6688
10373TIP3    H252611   6.146   5.863  11.335 -1.0707  1.2229  0.9428
10374TIP3   OH252612   6.538   1.169  16.561  0.8510 -0.8921 -0.4530
10374TIP3    H152613   6.495   1.248  16.595  1.2582 -0.6322 -0.5460
10374TIP3    H252614   6.521   1.102  16.628 -0.6149 -1.0850 -0.9703
10375TIP3   OH252615   5.667   5.056  15.179  0.0220 -0.4031 -0.1313
10375TIP3    H152616   5.731   5.110  15.224 -0.7934  0.2084  0.3385
10375TIP3    H252617   5.718   4.991  15.132  1.0128  0.4987 -0.3381
10376TIP3   OH252618   1.299   1.677  12.947  0.4335  0.0494 -0.2026
10376TIP3    H152619   1.348   1.665  13.028 -1.8195 -0.8131  1.1187
10376TIP3    H252620   1.293   1.589  12.910  2.0486  0.5323 -1.7517
10377TIP3   OH252621   2.459   3.133   3.834  0.1020  0.1313 -0.9912
10377TIP3    H152622   2.516   3.056   3.838 -0.5274 -0.3091  1.2193
10377TIP3    H252623   2.517   3.205   3.811  2.0686  0.0330  2.7895
10378TIP3   OH252624   4.120   0.916  15.488  0.4725 -0.0901  0.1644
10378TIP3    H152625   4.081   0.829  15.498  1.2918 -0.5431 -0.4979
10378TIP3    H252626   4.194   0.903  15.429 -0.8224  1.4828 -1.9404
10379TIP3   OH252627   4.042   2.289   5.144  0.1773  0.0120  0.2094
10379TIP3    H152628   4.020   2.217   5.085 -0.7068  0.5308 -0.1169
10379TIP3    H252629   4.137   2.282   5.157  0.1502 -0.9903 -0.0933
10380TIP3   OH252630   4.267   1.219  11.516 -0.3209 -0.2818  0.2080
10380TIP3    H152631   4.338   1.163  11.548 -0.1194 -0.1162  0.0577
10380TIP3    H252632   4.268   1.295  11.574 -0.0544 -0.0524 -0.0928
10381TIP3   OH252633   0.782   2.081  14.661 -0.1417 -0.4890  0.1181
10381TIP3    H152634   0.873   2.050  14.660 -0.0506 -0.2245  0.1445
10381TIP3    H252635   0.755   2.073  14.752  0.6908  1.8210  0.6463
10382TIP3   OH252636   3.437   4.916  13.913 -0.4932 -0.1823 -0.2821
10382TIP3    H152637   3.444   4.982  13.982 -1.4620 -0.5664  0.2006
10382TIP3    H252638   3.343   4.913  13.892 -0.3087 -0.5976 -1.1038
10383TIP3   OH252639   3.634   4.701   2.746  0.0032 -0.3056 -0.0175
10383TIP3    H152640   3.594   4.637   2.687 -1.1355  0.5197 -0.1888
10383TIP3    H252641   3.715   4.660   2.776 -1.8302 -2.8418  1.7877
10384TIP3   OH252642   6.359   0.974  14.853  0.4483  0.4242  0.3417
10384TIP3    H152643   6.366   1.020  14.769  3.2117  0.6034  0.5741
10384TIP3    H252644   6.435   0.915  14.854 -0.2943 -0.5667  2.1477
10385TIP3   OH252645   3.470   2.197   2.608  0.7745  0.3601 -0.0166
10385TIP3    H152646   3.554   2.242   2.597  1.8060 -1.2610  0.8841
10385TIP3    H252647   3.493   2.111   2.641 -1.2304 -0.3692 -0.3849
10386TIP3   OH252648   0.445   4.640   5.461 -0.2615  0.7107  0.1378
10386TIP3    H152649   0.429   4.652   5.368  1.3866  0.4400 -0.2241
10386TIP3    H252650   0.523   4.693   5.478 -0.2634  0.3793  1.2565
10387TIP3   OH252651   5.136   2.229  14.464 -0.2939 -0.0892  0.3378
10387TIP3    H152652   5.108   2.306  14.513 -0.3000  0.3869 -0.3992
10387TIP3    H252653   5.204   2.190  14.518  1.1214  1.5437 -0.1546
10388TIP3   OH252654   6.392   4.326  15.930 -0.1534 -0.0713  0.2238
10388TIP3    H152655   6.484   4.299  15.919 -0.1734  0.0285 -0.2332
10388TIP3    H252656   6.351   4.300  15.847 -0.0728  1.8010 -0.4468
10389TIP3   OH252657   5.042   4.513   4.790  0.4167  0.0557 -0.0899
10389TIP3    H152658   5.043   4.604   4.818  0.8643  0.1408 -0.3751
10389TIP3    H252659   5.087   4.466   4.860 -1.2621 -0.2067  0.8845
10390TIP3   OH252660   3.474   1.108   5.470 -0.3442 -0.0755  0.8022
10390TIP3    H152661   3.465   1.190   5.518  0.6322 -0.1148  1.0701
10390TIP3    H252662   3.554   1.068   5.505  1.3673  0.6612 -1.9401
10391TIP3   OH252663   0.291   3.600  13.392 -0.4723  0.2246 -0.0892
10391TIP3    H152664   0.224   3.575  13.328 -0.2801  0.2728 -0.3100
10391TIP3    H252665   0.373   3.589  13.346 -0.4141  3.2236 -0.8882
10392TIP3   OH252666   2.945   1.754  14.075 -0.4459 -0.4268 -0.2030
10392TIP3    H152667   2.913   1.780  13.988 -1.7057 -0.9463  0.0880
10392TIP3    H252668   2.946   1.836  14.125 -0.4524 -0.2519 -0.4866
10393TIP3   OH252669   3.323   0.869  16.177  0.0978  0.5576  0.0009
10393TIP3    H152670   3.323   0.834  16.266 -1.6609 -1.0244 -0.5604
10393TIP3    H252671   3.305   0.963  16.189 -4.5387 -0.2335  1.2700
10394TIP3   OH252672   3.137   1.036  13.933 -0.2617  0.4021 -0.1027
10394TIP3    H152673   3.155   1.130  13.930  0.8296  0.1881 -1.0880
10394TIP3    H252674   3.046   1.029  13.962 -0.1770  1.7331  0.5335
10395TIP3   OH252675   4.937   6.590   3.389 -0.1462  0.4778  0.1894
10395TIP3    H152676   5.014   6.539   3.415 -0.3254  0.7543  1.3410
10395TIP3    H252677   4.884   6.529   3.338  1.5916  0.7705 -2.0927
10396TIP3   OH252678   3.885   3.141   1.776 -0.4629  0.1740 -0.0884
10396TIP3    H152679   3.805   3.161   1.825 -1.2637 -2.3318 -0.2036
10396TIP3    H252680   3.887   3.045   1.773  3.3564  0.0619  1.2334
10397TIP3   OH252681   6.518   2.762  12.756  0.3726 -0.4816  0.1843
10397TIP3    H152682   6.503   2.800  12.842  0.8556 -0.0177  0.0660
10397TIP3    H252683   6.485   2.827  12.695  1.6112 -0.0355 -0.0345
10398TIP3   OH252684   4.020   0.324  14.752  0.3343 -0.3869  0.8584
10398TIP3    H152685   4.072   0.403  14.762  0.0526 -0.3286  2.0294
10398TIP3    H252686   4.046   0.269  14.826 -0.8128 -0.6006  1.1291
10399TIP3   OH252687   5.766   5.652   0.211  0.4568  0.3685 -0.5078
10399TIP3    H152688   5.841   5.691   0.166  0.5670 -0.0299 -0.6791
10399TIP3    H252689   5.781   5.670   0.303  0.9989 -0.0978 -0.4967
10400TIP3   OH252690   5.287   2.322  12.958  0.2666 -0.2221  0.0871
10400TIP3    H152691   5.340   2.401  12.947 -0.4141  0.3847  0.9588
10400TIP3    H252692   5.267   2.293  12.870  1.0201  0.2476 -0.2452
10401TIP3   OH252693   4.631   2.018  12.890  0.9475 -0.3662  0.4559
10401TIP3    H152694   4.637   2.027  12.985  3.0869  3.4527  0.1725
10401TIP3    H252695   4.710   1.969  12.866  0.7577 -0.7429  0.5971
10402TIP3   OH252696   2.935   2.820   0.120 -0.1812 -0.6555  0.3327
10402TIP3    H152697   2.983   2.811   0.038  1.1650  0.3476  0.9649
10402TIP3    H252698   2.870   2.888   0.104 -0.6931 -1.2686 -0.2240
10403TIP3   OH252699   2.876   1.779   1.228 -0.9792  0.0013  0.5396
10403TIP3    H152700   2.911   1.862   1.258 -1.7238  0.9268 -1.0062
10403TIP3    H252701   2.791   1.770   1.271 -1.0298  0.1916  0.4769
10404TIP3   OH252702   1.854   2.712  12.873 -0.0190  0.2186 -0.5540
10404TIP3    H152703   1.929   2.660  12.904  0.2380 -0.4708 -2.1841
10404TIP3    H252704   1.781   2.684  12.928  0.2178 -1.5953 -1.0954
10405TIP3   OH252705   1.438   0.098  13.429 -0.9262 -0.6695 -0.0468
10405TIP3    H152706   1.375   0.114  13.499 -0.7242  2.9684 -0.5336
10405TIP3    H252707   1.517   0.143  13.456  0.1314 -1.6435 -1.3430
10406TIP3   OH252708   3.456   1.501  15.829 -0.4170  0.4473 -0.0294
10406TIP3    H152709   3.520   1.470  15.766  0.1167  1.1931  0.1301
10406TIP3    H252710   3.373   1.499  15.781  0.0974  1.7787 -1.0427
10407TIP3   OH252711   5.995   1.785  16.709 -0.1833  0.2034 -0.0524
10407TIP3    H152712   6.059   1.715  16.696 -1.5522 -0.7709 -2.0525
10407TIP3    H252713   5.941   1.755  16.782  0.6063  0.2940  0.5919
10408TIP3   OH252714   0.396   6.106   5.633  0.1192 -0.0606 -0.1773
10408TIP3    H152715   0.331   6.162   5.591 -0.4409 -1.5667 -1.4551
10408TIP3    H252716   0.480   6.135   5.597 -0.0664  0.5308 -0.1415
10409TIP3   OH252717   0.885   1.693  10.394  0.0401 -0.3970  0.1517
10409TIP3    H152718   0.973   1.655  10.396  1.1640  1.9869  1.8280
10409TIP3    H252719   0.839   1.649  10.465  0.9936  0.5320  1.4071
10410TIP3   OH252720   6.358   4.201   1.205  0.2232  0.3708 -0.2603
10410TIP3    H152721   6.361   4.131   1.271  1.0783  0.7010  0.0672
10410TIP3    H252722   6.434   4.184   1.149  0.1534  0.7488 -0.4744
10411TIP3   OH252723   3.230   2.210   0.761  0.3847  0.3415  0.2890
10411TIP3    H152724   3.268   2.184   0.845 -1.2217  0.8954  1.2498
10411TIP3    H252725   3.142   2.172   0.762  1.3858 -2.5277 -2.6563
10412TIP3   OH252726   5.642   2.233   4.823  0.4297  0.6334 -0.3237
10412TIP3    H152727   5.641   2.289   4.745 -1.3140  1.3824  0.1580
10412TIP3    H252728   5.707   2.166   4.805  0.6858  1.2986 -2.0523
10413TIP3   OH252729   5.613   3.805   5.793  0.0847 -1.2749 -0.1384
10413TIP3    H152730   5.700   3.773   5.771  0.7252 -0.0597  0.5137
10413TIP3    H252731   5.608   3.799   5.888 -0.2716 -0.6868 -0.1084
10414TIP3   OH252732   1.942   1.589  15.543  0.0586 -0.2560 -0.6830
10414TIP3    H152733   1.905   1.565  15.458  0.6683  0.8053 -1.2640
10414TIP3    H252734   1.929   1.511  15.597 -2.8038 -0.0537 -0.9185
10415TIP3   OH252735   6.597   3.481  13.370 -0.6501  0.0192  0.1125
10415TIP3    H152736   6.573   3.572  13.388 -2.7808 -0.8599  2.3606
10415TIP3    H252737   6.619   3.444  13.455 -1.7443 -2.0198 -0.4047
10416TIP3   OH252738   1.321   5.557   0.139  0.0710  0.0494 -0.4934
10416TIP3    H152739   1.315   5.581   0.047  0.0950 -1.1043 -0.8043
10416TIP3    H252740   1.357   5.468   0.139  0.8498  0.3382  0.6604
10417TIP3   OH252741   2.991   4.651   1.915  0.1007 -0.7378 -0.3038
10417TIP3    H152742   3.000   4.590   1.989 -0.1429  0.5694  0.8391
10417TIP3    H252743   2.943   4.601   1.849 -0.0409 -1.8158  0.5816
10418TIP3   OH252744   5.439   5.100   1.681 -0.1147 -0.7993 -0.0213
10418TIP3    H152745   5.372   5.109   1.749 -0.5431 -1.2071 -0.3758
10418TIP3    H252746   5.519   5.134   1.720 -0.6666  0.2653  0.2096
10419TIP3   OH252747   4.170   3.641   6.590  0.1199  0.1505 -0.1969
10419TIP3    H152748   4.107   3.616   6.657 -0.1119  0.2468 -0.3804
10419TIP3    H252749   4.177   3.736   6.598  0.6514  0.0823  0.1889
10420TIP3   OH252750   2.627   2.101   1.545  0.3170 -0.3898  0.5178
10420TIP3    H152751   2.597   2.192   1.541  0.6284 -0.2626  1.0344
10420TIP3    H252752   2.549   2.050   1.524  0.0885 -0.0092  0.4217
10421TIP3   OH252753   4.476   6.429   1.019  0.0286  0.2354 -0.3280
10421TIP3    H152754   4.507   6.428   0.929 -0.9943 -0.6881 -0.6929
10421TIP3    H252755   4.401   6.369   1.020 -0.4275  0.7743  0.9724
10422TIP3   OH252756   3.771   2.540  12.441 -0.0685  0.3962  0.3271
10422TIP3    H152757   3.708   2.579  12.501 -0.2791  0.3742  0.1200
10422TIP3    H252758   3.764   2.446  12.456  0.0306  0.4020  0.4171
10423TIP3   OH252759   2.506   6.355  16.756 -0.0311 -0.1626  0.1491
10423TIP3    H152760   2.429   6.412  16.755  0.7625  0.9594  0.3290
10423TIP3    H252761   2.518   6.330  16.665 -0.8388 -0.6749  0.1768
10424TIP3   OH252762   1.085   4.959   4.457 -0.3660 -0.1608 -0.1767
10424TIP3    H152763   1.084   5.055   4.455  1.0478 -0.1363 -1.0210
10424TIP3    H252764   1.052   4.933   4.371 -1.1683 -0.4437  0.2154
10425TIP3   OH252765   4.118   5.573   5.843  0.3130  0.4133 -0.1150
10425TIP3    H152766   4.122   5.530   5.758 -2.1828  0.5766 -0.3766
10425TIP3    H252767   4.185   5.528   5.895  1.5242 -0.0395 -1.9728
10426TIP3   OH252768   2.799   3.568  16.258 -0.2638  0.7171 -0.3115
10426TIP3    H152769   2.835   3.636  16.314  0.5812  1.2340 -1.4408
10426TIP3    H252770   2.875   3.532  16.212 -0.8382 -0.2053 -0.5801
10427TIP3   OH252771   5.876   4.049  17.127 -0.3684  0.0247 -0.1616
10427TIP3    H152772   5.947   3.995  17.092 -0.4034  0.8028 -1.4977
10427TIP3    H252773   5.803   3.989  17.137 -0.3338 -0.2529 -1.3810
10428TIP3   OH252774   2.286   6.523   2.278 -0.3386  0.0155 -0.2140
10428TIP3    H152775   2.332   6.604   2.256 -1.7215  0.7249 -0.6277
10428TIP3    H252776   2.333   6.488   2.353  0.7163  0.8220 -0.4785
10429TIP3   OH252777   1.810   5.050  14.816 -0.4762  0.0320  0.0391
10429TIP3    H152778   1.825   4.956  14.804 -0.6916  0.1739 -1.4803
10429TIP3    H252779   1.729   5.067  14.769 -0.7548  0.8851  0.8098
10430TIP3   OH252780   1.973   2.848   2.440 -0.1459 -0.1291  0.1217
10430TIP3    H152781   1.996   2.869   2.530 -1.0906 -0.0269  0.3525
10430TIP3    H252782   2.031   2.901   2.386  0.6950 -0.4890  0.6666
10431TIP3   OH252783   3.901   2.572   1.794  0.1042  0.3330 -0.5285
10431TIP3    H152784   3.828   2.520   1.761  0.4435 -0.6548  0.2348
10431TIP3    H252785   3.868   2.613   1.874  0.3231  0.0261 -0.2779
10432TIP3   OH252786   2.291   4.084  11.614  0.4003 -0.2669  0.1356
10432TIP3    H152787   2.308   4.080  11.520 -1.7181 -1.2954 -0.2551
10432TIP3    H252788   2.326   4.169  11.641  0.9465  0.0982 -1.5990
10433TIP3   OH252789   4.309   2.575  13.210  0.3599 -0.1257  0.3805
10433TIP3    H152790   4.290   2.492  13.165  1.2392 -1.2921  2.0389
10433TIP3    H252791   4.223   2.609  13.235  0.0047 -0.7811  0.0796
10434TIP3   OH252792   2.769   6.658  13.171 -0.1756  0.4508  0.2093
10434TIP3    H152793   2.758   6.750  13.148  2.0867  1.1235  1.4908
10434TIP3    H252794   2.809   6.619  13.094 -0.8853  0.5801 -0.2370
10435TIP3   OH252795   2.977   5.323  13.627  0.3579  0.0063 -0.7940
10435TIP3    H152796   2.928   5.300  13.706  1.1317  0.2932 -0.2161
10435TIP3    H252797   3.058   5.363  13.660  0.5464  0.4245 -1.7352
10436TIP3   OH252798   4.473   0.958   3.635 -0.0717 -0.1265  0.0888
10436TIP3    H152799   4.479   0.877   3.685  1.1470 -1.5452 -2.1806
10436TIP3    H252800   4.394   0.947   3.581  1.1014 -0.7526 -1.6139
10437TIP3   OH252801   5.272   1.091  15.900 -0.0848  0.3910  0.1251
10437TIP3    H152802   5.179   1.081  15.878 -0.2875  1.8037  0.2696
10437TIP3    H252803   5.286   1.185  15.903  0.8044  0.2303  2.5204
10438TIP3   OH252804   3.177   4.236   1.972 -0.0957 -0.5539  0.3115
10438TIP3    H152805   3.169   4.293   1.895 -1.0482 -1.6521 -0.4262
10438TIP3    H252806   3.239   4.282   2.028 -0.2985  0.8777 -0.5675
10439TIP3   OH252807   3.804   0.838   4.401 -0.2583 -0.1673 -0.4582
10439TIP3    H152808   3.829   0.929   4.415 -3.2127  0.3956  1.9700
10439TIP3    H252809   3.804   0.799   4.488 -3.5579 -1.1429 -0.7676
10440TIP3   OH252810   6.401   6.715  12.089  0.0582  0.0673 -0.1141
10440TIP3    H152811   6.463   6.750  12.152 -1.0540  0.6839  0.6647
10440TIP3    H252812   6.442   6.635  12.057  0.8976  0.0492  0.9596
10441TIP3   OH252813   1.738   2.200   5.855  0.0294  0.4751  0.7821
10441TIP3    H152814   1.784   2.266   5.907  1.7323 -0.2519  0.2877
10441TIP3    H252815   1.795   2.187   5.779 -1.1540 -0.3059  0.0068
10442TIP3   OH252816   5.499   3.047  12.034 -0.7800  0.1773  0.4677
10442TIP3    H152817   5.546   3.126  12.011  0.3261 -0.4407  0.5171
10442TIP3    H252818   5.407   3.066  12.015 -0.4139  1.1339 -0.3941
10443TIP3   OH252819   1.087   5.333  16.250  0.4085  0.7976 -0.2649
10443TIP3    H152820   1.099   5.243  16.219 -2.1735  0.7405 -1.3552
10443TIP3    H252821   1.164   5.350  16.305  2.2312 -1.1840 -1.9999
10444TIP3   OH252822   2.636   1.928  11.362  0.3377 -0.6776 -0.2357
10444TIP3    H152823   2.549   1.887  11.359 -1.2453  2.2602  1.0391
10444TIP3    H252824   2.649   1.963  11.274 -1.4221  1.7658  0.3808
10445TIP3   OH252825   5.149   4.965  15.319  0.1292 -0.4560 -0.0778
10445TIP3    H152826   5.055   4.952  15.326  0.1753 -3.4215 -2.8786
10445TIP3    H252827   5.188   4.889  15.362  1.0632 -1.2157 -2.1513
10446TIP3   OH252828   5.465   0.639  13.283 -0.3542  0.0411 -0.4515
10446TIP3    H152829   5.444   0.546  13.278 -0.6091  0.0724  0.0296
10446TIP3    H252830   5.438   0.674  13.198  1.1310 -0.5938 -1.2445
10447TIP3   OH252831   0.457   5.034  15.064 -0.0432 -0.1314 -0.1451
10447TIP3    H152832   0.515   4.960  15.049 -2.0972 -1.9864  0.4450
10447TIP3    H252833   0.468   5.056  15.157 -0.3397 -0.5554 -0.0069
10448TIP3   OH252834   6.512   4.162   0.047  0.6928  0.2524  0.6360
10448TIP3    H152835   6.490   4.071   0.026  0.1266  0.2558  1.1811
10448TIP3    H252836   6.504   4.167   0.142 -0.9645  1.2905  0.4747
10449TIP3   OH252837   6.599   2.580  16.532  0.4906  0.0059  0.1527
10449TIP3    H152838   6.654   2.533  16.595 -1.1697 -2.0877  0.1329
10449TIP3    H252839   6.565   2.655  16.582  1.9371  0.3503  0.6712
10450TIP3   OH252840   4.567   3.775   4.085 -0.2711 -1.1908 -0.0087
10450TIP3    H152841   4.526   3.734   4.009 -0.7073 -1.4848  0.3810
10450TIP3    H252842   4.651   3.807   4.053 -1.2182  0.3162 -1.0804
10451TIP3   OH252843   5.953   3.024  14.172  0.6218 -0.0384 -0.3179
10451TIP3    H152844   5.914   3.033  14.260  1.4327 -0.1900  0.0670
10451TIP3    H252845   5.878   3.027  14.113 -0.1330 -1.7123  0.4835
10452TIP3   OH252846   3.571   1.736   1.523  0.1001  0.1051  0.4442
10452TIP3    H152847   3.664   1.760   1.521  0.7871 -2.3258  0.3847
10452TIP3    H252848   3.525   1.820   1.534  2.3620  1.2176  2.2348
10453TIP3   OH252849   6.190   6.264  15.995 -0.5862  0.2570 -0.5568
10453TIP3    H152850   6.226   6.175  15.993 -0.4972  0.2332  1.0817
10453TIP3    H252851   6.101   6.254  15.961 -0.6623 -0.5072 -0.1643
10454TIP3   OH252852   3.943   4.590  16.990  0.0745  0.2783  0.5946
10454TIP3    H152853   4.012   4.642  17.033  0.3100  0.4320  0.0429
10454TIP3    H252854   3.991   4.517  16.952 -0.2228 -0.2058  1.1421
10455TIP3   OH252855   4.176   4.621   0.808  0.0758 -0.3190  0.2282
10455TIP3    H152856   4.122   4.692   0.843  1.1637  0.8703 -0.4349
10455TIP3    H252857   4.147   4.543   0.855 -0.5361  0.7106  1.6095
10456TIP3   OH252858   6.429   1.510   0.967  0.0100  0.6144 -0.2474
10456TIP3    H152859   6.509   1.457   0.958 -0.8594 -0.7613 -0.1608
10456TIP3    H252860   6.427   1.563   0.888  1.2352  1.0058 -0.0443
10457TIP3   OH252861   2.891   1.092   5.312  0.4679  0.4776 -0.1621
10457TIP3    H152862   2.810   1.137   5.288  0.0261 -0.1549  0.1554
10457TIP3    H252863   2.954   1.164   5.324 -0.3117  1.0502  0.6595
10458TIP3   OH252864   4.973   5.653  15.085  0.4431 -0.2671  0.0073
10458TIP3    H152865   5.005   5.625  14.999 -0.2877  2.6581 -1.3272
10458TIP3    H252866   5.043   5.709  15.119 -0.3126  0.5553  0.2122
10459TIP3   OH252867   6.106   4.575   0.523 -0.0491 -0.0796  0.1333
10459TIP3    H152868   6.190   4.565   0.568  0.2865  0.8583 -0.2627
10459TIP3    H252869   6.040   4.557   0.590  0.4617 -0.5260  0.5205
10460TIP3   OH252870   4.587   6.464   3.478 -0.1720  0.2986  0.0340
10460TIP3    H152871   4.617   6.551   3.451  0.9248 -0.0375  0.1216
10460TIP3    H252872   4.550   6.426   3.399 -1.6445  1.2180  0.2311
10461TIP3   OH252873   0.663   4.831  15.070 -0.0513  0.5194  0.9420
10461TIP3    H152874   0.689   4.753  15.119 -1.1798 -0.3396  0.2384
10461TIP3    H252875   0.741   4.887  15.069  0.5699 -0.3045  2.0308
10462TIP3   OH252876   0.908   5.226  13.397 -0.1548 -0.1868  0.4996
10462TIP3    H152877   0.993   5.223  13.354 -0.3529  0.4215  0.0465
10462TIP3    H252878   0.925   5.271  13.480 -0.3826  1.8490 -0.4998
10463TIP3   OH252879   4.374   6.387  12.837  0.1110  0.0454  0.3100
10463TIP3    H152880   4.455   6.388  12.889  0.8377  1.7748 -0.7449
10463TIP3    H252881   4.382   6.311  12.781  0.9998  0.1638  0.2607
10464TIP3   OH252882   4.327   4.509   2.583 -0.3286  0.0062 -0.8443
10464TIP3    H152883   4.240   4.513   2.544 -0.5972 -0.5681 -0.3206
10464TIP3    H252884   4.332   4.422   2.623 -0.2483  0.7194  0.8007
10465TIP3   OH252885   1.427   3.846  15.418 -0.1799  0.3197 -0.1371
10465TIP3    H152886   1.345   3.814  15.381  0.0625  1.0077 -1.3394
10465TIP3    H252887   1.450   3.921  15.363 -0.1369  1.8415  1.8552
10466TIP3   OH252888   0.419   1.426  13.030  0.0773  0.0718  0.6073
10466TIP3    H152889   0.394   1.346  12.985  0.1070 -0.3398  1.3008
10466TIP3    H252890   0.336   1.470  13.049  0.1146  2.4548 -3.6030
10467TIP3   OH252891   6.294   0.349  13.082 -0.0115  0.3142  0.5585
10467TIP3    H152892   6.355   0.390  13.021 -0.5084 -2.2815 -1.8906
10467TIP3    H252893   6.210   0.349  13.035 -0.7160 -0.6911  1.7539
10468TIP3   OH252894   0.148   3.910  15.116 -0.1266  0.1017 -0.2454
10468TIP3    H152895   0.152   3.971  15.043 -1.0200 -0.4702 -0.7935
10468TIP3    H252896   0.062   3.869  15.108 -0.6366  0.7110  1.7018
10469TIP3   OH252897   1.126   0.496   2.983 -0.6591  0.4844  0.1646
10469TIP3    H152898   1.057   0.432   2.999  0.2562 -0.6186 -0.0899
10469TIP3    H252899   1.174   0.501   3.066 -2.0768  2.6278  0.9417
10470TIP3   OH252900   0.732   1.331  12.430  0.2014  0.0187 -0.2560
10470TIP3    H152901   0.776   1.276  12.365  0.3401  0.3325 -0.4276
10470TIP3    H252902   0.644   1.344  12.396  0.4041  0.5313 -0.5881
10471TIP3   OH252903   5.651   1.627   2.375 -0.0799  0.3879 -0.0613
10471TIP3    H152904   5.607   1.645   2.292 -1.4937  0.0570  0.5867
10471TIP3    H252905   5.720   1.565   2.352  0.4145  1.3247 -1.1920
10472TIP3   OH252906   6.794   3.735   2.261 -0.5866 -0.1580  0.0173
10472TIP3    H152907   6.772   3.820   2.224  0.2436 -0.1993 -0.5846
10472TIP3    H252908   6.889   3.734   2.265 -0.5604 -1.3206 -0.5848
10473TIP3   OH252909   6.541   2.051  11.828 -0.7188  0.3755  0.3323
10473TIP3    H152910   6.560   2.141  11.856  0.5460  0.0909  0.4285
10473TIP3    H252911   6.526   2.003  11.909  1.0633 -0.0258  0.4668
10474TIP3   OH252912   2.982   6.646   2.750  0.3040 -0.5586 -0.1358
10474TIP3    H152913   3.052   6.583   2.734  0.7600 -0.6125  1.8909
10474TIP3    H252914   2.920   6.599   2.806  0.2725  0.5361  0.7710
10475TIP3   OH252915   0.244   1.071  15.289  0.0264  0.3038  0.3306
10475TIP3    H152916   0.183   1.065  15.215  0.3786  0.0097  0.0620
10475TIP3    H252917   0.218   1.152  15.334 -0.9331 -0.1168  0.5603
10476TIP3   OH252918   0.917   0.557  11.320 -0.1396  0.2695 -0.4466
10476TIP3    H152919   0.993   0.613  11.307 -0.2944  0.5467 -0.1658
10476TIP3    H252920   0.845   0.605  11.280 -0.3352  0.4318  0.0839
10477TIP3   OH252921   6.432   5.534  13.392  0.2834  0.1005  0.3161
10477TIP3    H152922   6.512   5.580  13.369  0.4011 -0.6941 -0.9933
10477TIP3    H252923   6.377   5.541  13.314 -0.0891 -1.0934  0.4483
10478TIP3   OH252924   4.681   3.502   6.088 -0.0413 -0.3408 -0.1853
10478TIP3    H152925   4.599   3.498   6.038 -0.9120  0.4148  1.1266
10478TIP3    H252926   4.691   3.595   6.109 -0.4305 -0.7491  2.1337
10479TIP3   OH252927   6.059   2.478   4.623  0.0152 -0.7852  0.2502
10479TIP3    H152928   6.137   2.429   4.650  1.3680 -0.0725 -2.0124
10479TIP3    H252929   6.070   2.564   4.665  1.0243 -0.3598 -0.8108
10480TIP3   OH252930   0.403   4.053   1.163  0.3807 -0.0285  0.5019
10480TIP3    H152931   0.315   4.080   1.187 -0.2637  0.0351 -1.7309
10480TIP3    H252932   0.412   3.965   1.200 -0.6683 -0.1010  0.6173
10481TIP3   OH252933   5.970   6.430   4.572  0.6327 -0.2442  0.2393
10481TIP3    H152934   5.985   6.520   4.599  0.4945 -0.3122  0.5428
10481TIP3    H252935   6.057   6.389   4.572  0.5339 -0.5005  1.5010
10482TIP3   OH252936   3.315   4.552  10.947 -0.0677  0.0359  0.0645
10482TIP3    H152937   3.336   4.459  10.937 -0.8199 -0.3355  1.5502
10482TIP3    H252938   3.251   4.570  10.879  1.5707  0.0245 -1.5621
10483TIP3   OH252939   6.372   0.905   1.878 -0.4535 -0.1070  0.3725
10483TIP3    H152940   6.313   0.924   1.951 -1.6409  1.6794 -0.9745
10483TIP3    H252941   6.318   0.856   1.817 -0.0042 -0.0066 -0.1060
10484TIP3   OH252942   3.988   4.321   2.140  0.3484  0.4431 -0.1184
10484TIP3    H152943   4.079   4.324   2.170  0.7583 -3.6599 -0.3099
10484TIP3    H252944   3.937   4.305   2.220  0.4863 -2.1758 -0.4621
10485TIP3   OH252945   0.665   1.799  11.006  0.4047 -0.3699 -0.7071
10485TIP3    H152946   0.609   1.858  11.056  2.0360 -0.6931  1.6997
10485TIP3    H252947   0.706   1.854  10.940 -0.3874  0.5347 -0.4569
10486TIP3   OH252948   5.773   2.634   2.298 -0.6325 -0.0894  0.1055
10486TIP3    H152949   5.704   2.621   2.233 -0.5131  1.0347 -0.2797
10486TIP3    H252950   5.731   2.683   2.369 -0.8374 -1.5747  1.0496
10487TIP3   OH252951   5.686   2.037  11.821 -0.2329 -0.5757 -0.1728
10487TIP3    H152952   5.708   2.000  11.735  0.2976 -0.0616 -0.2696
10487TIP3    H252953   5.707   2.130  11.812  0.3726 -0.6191  0.6983
10488TIP3   OH252954   6.517   4.070  16.792  0.3413 -0.4804  0.4046
10488TIP3    H152955   6.556   4.154  16.816  0.6894 -0.2450 -0.8886
10488TIP3    H252956   6.438   4.093  16.743 -0.2054 -0.9329  1.0603
10489TIP3   OH252957   6.393   3.751  16.029 -0.5932 -0.1889 -0.1521
10489TIP3    H152958   6.333   3.772  15.958 -0.7520  1.2937  0.3728
10489TIP3    H252959   6.390   3.828  16.086  1.0481 -0.4972  0.4101
10490TIP3   OH252960   2.279   0.804  12.805  0.6877 -0.9354  0.0662
10490TIP3    H152961   2.189   0.802  12.774  0.0212  0.2939  1.7659
10490TIP3    H252962   2.325   0.860  12.743 -0.5646  1.3353  1.0899
10491TIP3   OH252963   4.803   0.288  11.141  0.1706 -0.1379  0.4508
10491TIP3    H152964   4.835   0.376  11.157  0.7278 -0.4952  1.3912
10491TIP3    H252965   4.856   0.232  11.198  0.5902 -1.2111 -0.9344
10492TIP3   OH252966   6.521   2.947  13.116  0.0064  0.2546 -0.2449
10492TIP3    H152967   6.433   2.982  13.107  0.0557  0.9420  1.5562
10492TIP3    H252968   6.509   2.854  13.137 -0.2189 -0.0068 -1.4567
10493TIP3   OH252969   3.478   4.860  12.069 -0.2236 -0.3138  0.6946
10493TIP3    H152970   3.437   4.885  12.151 -1.4509  1.5705 -0.4277
10493TIP3    H252971   3.543   4.928  12.052 -0.0880 -0.5968  0.0285
10494TIP3   OH252972   5.179   6.071   3.330  0.0574 -0.4573 -0.1026
10494TIP3    H152973   5.177   6.025   3.414 -0.7088 -0.0938  0.0872
10494TIP3    H252974   5.135   6.012   3.270  0.2292 -0.5335 -0.1542
10495TIP3   OH252975   3.174   1.037   4.751  0.4726 -0.1742  0.4804
10495TIP3    H152976   3.263   1.030   4.785  0.1474  0.6539  1.5627
10495TIP3    H252977   3.146   0.946   4.737  1.7442 -0.4312 -0.6480
10496TIP3   OH252978   3.493   5.341  16.284 -0.2166 -0.2624 -0.7189
10496TIP3    H152979   3.419   5.304  16.235 -0.5423 -0.2368 -0.2436
10496TIP3    H252980   3.522   5.270  16.341 -0.2861 -0.0623 -0.4358
10497TIP3   OH252981   3.689   1.775  13.418 -0.9512  0.2505 -0.7843
10497TIP3    H152982   3.630   1.710  13.455  1.0790 -1.5010 -0.4467
10497TIP3    H252983   3.701   1.748  13.327  0.0864 -0.0084 -0.5795
10498TIP3   OH252984   4.587   1.606   4.614  0.1830  0.5973 -0.1608
10498TIP3    H152985   4.571   1.641   4.701 -0.4120  0.2004 -0.1031
10498TIP3    H252986   4.651   1.665   4.575  0.3835  0.8264  0.5104
10499TIP3   OH252987   3.379   5.061   5.869 -0.3375 -0.0240  0.9735
10499TIP3    H152988   3.430   4.993   5.825  1.0489  0.2254  2.1031
10499TIP3    H252989   3.406   5.054   5.961 -0.2890  1.9307  1.1421
10500TIP3   OH252990   3.770   6.719  15.505 -0.6318 -0.0092 -0.6310
10500TIP3    H152991   3.783   6.812  15.486  1.5862 -0.2409 -0.4914
10500TIP3    H252992   3.858   6.681  15.504 -1.3406 -1.8672  0.6580
10501TIP3   OH252993   0.869   0.453   5.118 -0.4457  0.5978 -0.1508
10501TIP3    H152994   0.958   0.481   5.136 -0.4527  0.5044  0.0394
10501TIP3    H252995   0.823   0.466   5.202 -0.4933  0.1987 -0.1144
10502TIP3   OH252996   5.740   1.685   0.234 -0.5903  0.1322  0.0667
10502TIP3    H152997   5.723   1.607   0.287  0.5966  0.2800  0.6964
10502TIP3    H252998   5.669   1.745   0.256 -2.7937 -1.4827 -1.9993
10503TIP3   OH252999   2.293   0.049  12.903  0.3133  0.4455 -0.0234
10503TIP3    H153000   2.220   0.077  12.959  0.9019 -0.5557  1.2963
10503TIP3    H253001   2.267  -0.037  12.871  1.6593 -0.8348  2.0439
10504TIP3   OH253002   3.426   5.309   5.724 -0.0549 -0.1703  0.1109
10504TIP3    H153003   3.508   5.291   5.678 -0.7625  0.4091 -1.4406
10504TIP3    H253004   3.419   5.238   5.788  1.5893 -0.2931  0.2150
10505TIP3   OH253005   1.224   1.484   6.086  0.1699 -0.2491  0.0493
10505TIP3    H153006   1.132   1.490   6.111  0.4546 -0.8598  1.2807
10505TIP3    H253007   1.267   1.552   6.138  0.5843 -0.6979  0.2904
10506TIP3   OH253008   4.787   6.540   3.754  0.8012  0.3482  0.0070
10506TIP3    H153009   4.807   6.465   3.697  0.3820 -0.0758  0.4100
10506TIP3    H253010   4.696   6.526   3.780  1.0263  0.4911  0.8717
10507TIP3   OH253011   2.935   1.005  12.868 -0.4637 -0.9833  0.3099
10507TIP3    H153012   3.022   1.013  12.909 -1.2760 -0.2171  1.9987
10507TIP3    H253013   2.921   1.090  12.825 -1.1600 -0.3105  1.7737
10508TIP3   OH253014   4.149   0.994  11.337 -0.4082 -0.2805  0.3833
10508TIP3    H153015   4.216   0.938  11.376  0.7384 -1.3745 -2.8465
10508TIP3    H253016   4.066   0.952  11.362  0.2794 -1.3015  1.0361
10509TIP3   OH253017   5.034   6.823   1.416 -0.0966  0.7555  0.3565
10509TIP3    H153018   5.123   6.858   1.403 -0.5308  1.9061  0.3748
10509TIP3    H253019   4.977   6.887   1.373 -0.8042 -1.0633 -1.5408
10510TIP3   OH253020   3.033   4.411  16.564 -0.3883  0.1393  0.0311
10510TIP3    H153021   3.010   4.391  16.654 -0.7170  1.8621  0.3767
10510TIP3    H253022   3.129   4.418  16.564 -0.4271  0.7362  0.3989
10511TIP3   OH253023   3.776   1.889   6.145  1.0507  0.5036  0.3112
10511TIP3    H153024   3.770   1.935   6.229 -2.1212  1.4380 -0.3032
10511TIP3    H253025   3.761   1.797   6.167 -1.0757  0.8891  0.7579
10512TIP3   OH253026   3.760   5.161   1.996  0.8254 -0.1526 -0.9123
10512TIP3    H153027   3.745   5.134   1.905  1.8683  0.6925 -1.3582
10512TIP3    H253028   3.721   5.248   2.002  0.5603 -0.3003 -0.4802
10513TIP3   OH253029   1.206   1.338   1.060  0.5449 -0.1752 -0.0432
10513TIP3    H153030   1.168   1.269   1.005 -0.9217  0.1642  0.5034
10513TIP3    H253031   1.218   1.412   1.000 -1.3786  0.3133  0.1097
10514TIP3   OH253032   3.158   4.089  14.639 -0.2666 -0.2804 -0.0476
10514TIP3    H153033   3.108   4.013  14.669  1.5168 -0.9663  1.3486
10514TIP3    H253034   3.182   4.068  14.548 -0.6534 -0.9206 -0.0089
10515TIP3   OH253035   3.475   4.027  17.110  0.9343 -0.2372  0.0499
10515TIP3    H153036   3.549   3.969  17.093  0.3521 -1.3343  1.1089
10515TIP3    H253037   3.406   3.998  17.051  0.9700  0.0317 -0.1238
10516TIP3   OH253038   5.975   6.803   0.520 -0.2466  0.8028 -0.1312
10516TIP3    H153039   6.041   6.845   0.576  0.2610 -1.0945  0.7825
10516TIP3    H253040   5.903   6.783   0.580 -0.7285  0.9041 -0.6772
10517TIP3   OH253041   3.136   2.678  15.400  0.3544 -0.2556  0.3750
10517TIP3    H153042   3.081   2.660  15.323  1.1899 -0.6914 -0.1402
10517TIP3    H253043   3.111   2.611  15.464 -1.2673  0.8929  1.0029
10518TIP3   OH253044   0.984   3.957  12.616  0.4461 -0.0155  0.2082
10518TIP3    H153045   0.898   3.916  12.621 -0.1176  1.0743 -0.1272
10518TIP3    H253046   1.027   3.935  12.698 -0.2303 -0.4138  0.4551
10519TIP3   OH253047   3.878   2.352  16.583 -0.4931  0.1285 -0.3028
10519TIP3    H153048   3.829   2.274  16.610 -1.0600  0.5580 -0.0694
10519TIP3    H253049   3.943   2.319  16.522 -1.1703 -0.4432 -0.7306
10520TIP3   OH253050   0.121   3.545   4.954 -0.5666 -0.2640 -0.1827
10520TIP3    H153051   0.039   3.525   4.999 -0.1613 -0.3524  0.5279
10520TIP3    H253052   0.115   3.499   4.870 -2.8476  2.6240 -1.8033
10521TIP3   OH253053   1.219   1.243   6.423  0.0684 -0.2989  0.2325
10521TIP3    H153054   1.218   1.154   6.388  0.7231 -0.6204  0.9747
10521TIP3    H253055   1.235   1.231   6.517 -0.8631  0.5605  0.5111
10522TIP3   OH253056   5.517   5.968   6.459 -0.1091 -0.3325 -0.7177
10522TIP3    H153057   5.612   5.961   6.465 -0.0394  1.4072  0.9188
10522TIP3    H253058   5.500   6.060   6.442 -1.5506 -0.0640  1.7522
10523TIP3   OH253059   5.449   3.082  16.609 -0.7620 -0.1021 -0.6374
10523TIP3    H153060   5.498   3.034  16.542 -0.6631  0.0466 -0.6712
10523TIP3    H253061   5.432   3.016  16.677 -1.4906 -0.4345 -1.1304
10524TIP3   OH253062   0.207   4.206   2.948 -0.0325 -0.2447  0.0344
10524TIP3    H153063   0.199   4.111   2.941  0.0428 -0.3800  1.4443
10524TIP3    H253064   0.182   4.225   3.038 -1.8630  1.2801 -0.7214
10525TIP3   OH253065   1.276   4.815   1.880 -0.2607 -0.0350 -0.3938
10525TIP3    H153066   1.206   4.846   1.938  0.4198  0.2953  0.2624
10525TIP3    H253067   1.282   4.883   1.812 -0.2068  0.2122 -0.1424
10526TIP3   OH253068   5.748   0.792  11.311  0.2373 -0.6342  0.1087
10526TIP3    H153069   5.673   0.764  11.363 -0.6392  0.6541 -0.3957
10526TIP3    H253070   5.715   0.794  11.221  1.7088 -2.8038 -0.5659
10527TIP3   OH253071   3.141   6.719   4.047 -0.4148  0.3490 -0.0962
10527TIP3    H153072   3.172   6.772   4.120  0.7214  1.6799 -1.4750
10527TIP3    H253073   3.052   6.749   4.031 -0.7425 -0.0953  0.8466
10528TIP3   OH253074   0.277   3.611   4.360  0.7763  0.2595 -0.1359
10528TIP3    H153075   0.287   3.518   4.338  0.2654 -0.0704  0.9074
10528TIP3    H253076   0.363   3.648   4.347  1.2051 -0.5647  0.2371
10529TIP3   OH253077   0.467   3.360   1.446  0.1503 -0.3265  0.5496
10529TIP3    H153078   0.401   3.291   1.451  1.3511 -1.4270  2.4568
10529TIP3    H253079   0.535   3.325   1.388 -0.1261  0.1082 -0.0569
10530TIP3   OH253080   5.703   0.847   3.104 -0.2980 -0.0368  0.0792
10530TIP3    H153081   5.633   0.911   3.092 -0.0699  0.2176  0.0865
10530TIP3    H253082   5.693   0.785   3.031 -0.1722  0.3324 -0.2564
10531TIP3   OH253083   6.252   4.581  14.402 -0.2915 -0.7473 -0.2343
10531TIP3    H153084   6.295   4.527  14.468 -1.3948 -2.3690 -0.7971
10531TIP3    H253085   6.179   4.622  14.449 -0.5721 -1.2355 -0.2378
10532TIP3   OH253086   1.737   0.170   0.393  0.0657 -0.6230 -0.3463
10532TIP3    H153087   1.698   0.091   0.430  2.2981 -1.2681  0.7915
10532TIP3    H253088   1.771   0.218   0.469  1.3304 -0.0509 -1.2389
10533TIP3   OH253089   0.518   4.111   2.843 -0.2667  0.3555  0.2138
10533TIP3    H153090   0.457   4.044   2.813 -0.7027 -0.1296  2.0934
10533TIP3    H253091   0.599   4.064   2.861  0.0103  0.6515 -0.2295
10534TIP3   OH253092   2.008   0.114   2.221  0.4250  0.1226  0.1757
10534TIP3    H153093   2.008   0.044   2.155 -0.4955  1.5613 -1.4592
10534TIP3    H253094   2.084   0.168   2.198  1.4240 -0.5570  1.7308
10535TIP3   OH253095   0.010   4.910  16.383  0.0123  0.5190 -0.8045
10535TIP3    H153096   0.019   4.958  16.301 -0.1754 -2.2714 -2.5839
10535TIP3    H253097   0.045   4.823  16.364  0.9648  0.0548  2.4194
10536TIP3   OH253098   0.688   1.801  14.783  0.2787  0.1301  0.1876
10536TIP3    H153099   0.715   1.877  14.834 -2.2473 -0.6408  2.8990
10536TIP3    H253100   0.645   1.743  14.845 -1.4311 -1.7448 -2.4930
10537TIP3   OH253101   1.695   0.109  16.664  0.6231  0.2440  0.4501
10537TIP3    H153102   1.685   0.204  16.660  1.7687  0.5380  2.6281
10537TIP3    H253103   1.754   0.087  16.592  1.4526  1.4091  0.7446
10538TIP3   OH253104   1.639   5.937  11.438 -0.0595 -0.9040  0.5888
10538TIP3    H153105   1.594   6.021  11.425 -0.5908 -1.3150 -0.3419
10538TIP3    H253106   1.612   5.884  11.363  1.6614 -1.3115  0.2215
10539TIP3   OH253107   1.041   1.502   3.507 -0.6411 -0.1196 -0.5508
10539TIP3    H153108   0.969   1.532   3.564  0.2509  0.8718  0.0845
10539TIP3    H253109   1.075   1.424   3.552 -1.3971 -0.6733 -0.9257
10540TIP3   OH253110   0.012   2.366  15.791  0.1800  0.0421 -0.4203
10540TIP3    H153111  -0.003   2.451  15.750 -0.0892  0.6471  0.8863
10540TIP3    H253112   0.015   2.385  15.885  1.3261 -1.2176 -0.1751
10541TIP3   OH253113   1.436   3.120  11.517 -0.3791 -0.1982 -0.7835
10541TIP3    H153114   1.341   3.114  11.521 -0.9272  4.3384 -1.3467
10541TIP3    H253115   1.463   3.132  11.608 -0.4750 -0.6039 -0.7035
10542TIP3   OH253116   4.078   0.881  11.848 -0.0240  0.1565  0.1771
10542TIP3    H153117   4.060   0.916  11.761 -0.8628  0.6545  0.5342
10542TIP3    H253118   4.125   0.951  11.893  2.0170 -0.7640 -0.4226
10543TIP3   OH253119   3.111   3.031  16.197 -0.0400  0.0634  0.0657
10543TIP3    H153120   3.193   3.038  16.247  0.4731  1.8583 -0.9391
10543TIP3    H253121   3.053   3.094  16.239  0.1228  0.9836 -1.0303
10544TIP3   OH253122   3.466   6.708  15.065 -0.0029  0.3386  0.6773
10544TIP3    H153123   3.378   6.733  15.092 -0.4203 -1.0932  0.7539
10544TIP3    H253124   3.523   6.776  15.100 -1.0256  1.0051  1.0798
10545TIP3   OH253125   2.042   5.229  13.357 -0.4363  0.4981  0.0995
10545TIP3    H153126   1.962   5.179  13.373 -0.2433  0.2300  0.2349
10545TIP3    H253127   2.018   5.291  13.289 -0.7293  0.3400  0.0576
10546TIP3   OH253128   4.551   3.965  17.081 -0.6415  0.9535 -0.2502
10546TIP3    H153129   4.469   3.944  17.124 -0.3218  0.4264  0.1275
10546TIP3    H253130   4.526   4.006  16.998 -1.2564  3.5706  1.1410
10547TIP3   OH253131   0.306   4.660   6.194 -0.3920 -0.5368  0.0861
10547TIP3    H153132   0.313   4.676   6.100 -0.5538 -0.0750  0.1479
10547TIP3    H253133   0.394   4.677   6.229  0.0723 -2.2152 -0.1843
10548TIP3   OH253134   1.682   3.053  11.911 -1.0324  0.0374  0.9191
10548TIP3    H153135   1.604   3.039  11.965 -0.2124 -0.7237  1.9596
10548TIP3    H253136   1.690   2.973  11.859  0.0698 -0.6940  2.1706
10549TIP3   OH253137   5.884   6.215  13.722 -0.3421  0.2495 -0.5108
10549TIP3    H153138   5.939   6.193  13.647  0.2845 -0.3876  0.1233
10549TIP3    H253139   5.946   6.246  13.789 -1.0245  2.3221 -0.7679
10550TIP3   OH253140   5.657   5.507   4.952  0.3600 -0.0081 -0.1935
10550TIP3    H153141   5.673   5.556   4.872 -1.2963  1.9454  0.5582
10550TIP3    H253142   5.633   5.574   5.016  1.2168 -1.5327  1.8373
10551TIP3   OH253143   5.186   6.571   1.708 -0.8070  0.0282 -0.4948
10551TIP3    H153144   5.095   6.561   1.681 -0.6537  2.8110 -2.4278
10551TIP3    H253145   5.181   6.617   1.792 -1.1427 -1.9418  0.6302
10552TIP3   OH253146   1.077   6.102   1.288  0.4884 -0.5970  0.1385
10552TIP3    H153147   1.138   6.119   1.216 -0.5544 -0.8499 -0.8337
10552TIP3    H253148   1.026   6.026   1.260  1.2405 -1.8421  1.9360
10553TIP3   OH253149   1.737   2.016  12.572 -0.1862  0.2645 -0.0306
10553TIP3    H153150   1.683   2.016  12.493  0.6649  1.1534 -0.6235
10553TIP3    H253151   1.787   1.935  12.567 -0.2314  0.2548 -0.3268
10554TIP3   OH253152   4.610   2.368   3.936 -0.5557  0.7236 -0.3069
10554TIP3    H153153   4.552   2.415   3.876  0.0742  0.3630 -1.2205
10554TIP3    H253154   4.696   2.371   3.894 -0.2735 -0.2845  0.1569
10555TIP3   OH253155   3.686   5.715  12.967 -0.4569  0.4098 -0.6019
10555TIP3    H153156   3.616   5.678  13.020 -0.1003 -1.1677 -1.1673
10555TIP3    H253157   3.686   5.662  12.887  1.1986  0.5359 -0.7206
10556TIP3   OH253158   0.294   4.967  14.229 -0.1099 -0.1135  0.6455
10556TIP3    H153159   0.206   4.979  14.193  0.1905  0.1261 -0.0093
10556TIP3    H253160   0.315   4.875  14.210 -0.0827 -0.0778  0.5018
10557TIP3   OH253161   1.252   5.952   1.893 -0.0773 -0.0486 -0.0443
10557TIP3    H153162   1.219   5.902   1.968 -1.3187  0.7674 -0.0173
10557TIP3    H253163   1.265   6.041   1.926 -2.9647  0.9515 -1.2911
10558TIP3   OH253164   2.141   0.987   2.813 -0.0145  0.0368  0.0687
10558TIP3    H153165   2.199   0.951   2.745  2.1253  1.9784  0.7622
10558TIP3    H253166   2.083   0.914   2.835  0.7916 -1.3742 -2.1388
10559TIP3   OH253167   2.739   3.620   3.696  0.2795  0.7092 -0.0731
10559TIP3    H153168   2.744   3.707   3.656  0.3775  0.7302 -0.0126
10559TIP3    H253169   2.648   3.612   3.724 -0.7333 -0.5552 -3.2096
10560TIP3   OH253170   4.238   2.831   4.300 -0.0634 -0.2990  0.1613
10560TIP3    H153171   4.151   2.847   4.262  1.0171  0.6153 -2.1556
10560TIP3    H253172   4.227   2.846   4.393 -2.1534  0.9484 -0.2215
10561TIP3   OH253173   2.496   0.697  14.394  0.1041  0.7914  0.4205
10561TIP3    H153174   2.535   0.721  14.478  0.5878  0.9611  0.1503
10561TIP3    H253175   2.538   0.614  14.371 -0.1899  0.6327  0.4477
10562TIP3   OH253176   1.464   5.176   3.344  0.7950 -0.7854 -0.8415
10562TIP3    H153177   1.410   5.165   3.422 -0.9180 -0.8904 -1.9986
10562TIP3    H253178   1.553   5.162   3.376  0.0248 -2.5761  0.7722
10563TIP3   OH253179   6.603   0.642  17.057 -0.0863 -0.0020 -0.2095
10563TIP3    H153180   6.622   0.549  17.060  0.6587  0.1691  1.2740
10563TIP3    H253181   6.689   0.685  17.058 -0.4267  0.7079  0.7578
10564TIP3   OH253182   2.487   6.030   5.267  0.1215  0.4904  0.1350
10564TIP3    H153183   2.430   5.969   5.220  1.1190  0.5309 -1.1502
10564TIP3    H253184   2.458   6.023   5.358  1.0824 -2.9073  0.2965
10565TIP3   OH253185   2.167   5.420   6.375 -0.0207 -0.1360  0.1934
10565TIP3    H153186   2.100   5.351   6.374 -1.2404  0.9036 -2.8691
10565TIP3    H253187   2.230   5.393   6.308 -0.0459  1.2672 -0.4268
10566TIP3   OH253188   4.599   2.757  15.543 -0.0535 -0.0357  0.6991
10566TIP3    H153189   4.574   2.671  15.510 -2.0375  0.5338  0.6184
10566TIP3    H253190   4.605   2.744  15.638  4.4870 -1.3735  0.4844
10567TIP3   OH253191   2.961   6.541   6.060 -0.2364 -1.0546  0.4118
10567TIP3    H153192   3.024   6.483   6.103 -1.7568 -1.0541  2.8414
10567TIP3    H253193   2.926   6.595   6.131 -1.4917  0.3623 -1.1922
10568TIP3   OH253194   3.363   1.733   1.282 -0.0837  0.3849  0.2996
10568TIP3    H153195   3.287   1.675   1.289  0.9107 -1.1485 -0.9696
10568TIP3    H253196   3.394   1.742   1.372  0.1904 -1.7424  0.4751
10569TIP3   OH253197   4.187   6.306   4.033  0.6043  0.2629  0.5548
10569TIP3    H153198   4.132   6.374   4.072 -0.1541 -0.0600  0.0811
10569TIP3    H253199   4.266   6.305   4.087  0.5894  1.4437  0.6264
10570TIP3   OH253200   0.823   2.841   0.429 -0.3209  0.1790 -0.3361
10570TIP3    H153201   0.751   2.881   0.478 -0.0960 -2.0233  1.9681
10570TIP3    H253202   0.782   2.804   0.352 -1.2033  1.1962 -0.3767
10571TIP3   OH253203   2.769   6.278   0.484 -0.1355  0.1019 -0.3598
10571TIP3    H153204   2.713   6.343   0.442 -1.2393 -0.2418  0.5315
10571TIP3    H253205   2.764   6.299   0.577  1.8475  0.5310 -0.3004
10572TIP3   OH253206   4.095   5.963  17.010 -0.4020 -0.1682 -0.1344
10572TIP3    H153207   4.182   5.932  17.035 -0.2711 -1.4364 -2.0403
10572TIP3    H253208   4.035   5.897  17.045 -0.6670  0.7086  1.1853
10573TIP3   OH253209   1.499   3.111  13.233 -0.2643 -0.3633  0.3474
10573TIP3    H153210   1.496   3.161  13.151 -0.3852 -0.0224  0.5565
10573TIP3    H253211   1.444   3.034  13.216  0.1920 -0.6007 -0.0873
10574TIP3   OH253212   6.247   5.149  16.178  0.2440  0.1890  0.4880
10574TIP3    H153213   6.248   5.155  16.273 -1.3830 -0.2072  0.5596
10574TIP3    H253214   6.225   5.057  16.160  0.6449  0.2335 -0.2817
10575TIP3   OH253215   5.529   5.513   0.842 -0.3473 -0.1042  0.0264
10575TIP3    H153216   5.563   5.491   0.929 -0.3981  0.5194  0.2031
10575TIP3    H253217   5.510   5.606   0.846 -2.4542 -0.4961  0.0427
10576TIP3   OH253218   5.747   6.145  14.479 -0.5777  0.4389 -0.1092
10576TIP3    H153219   5.726   6.162  14.571 -0.1943 -1.4800  0.3586
10576TIP3    H253220   5.828   6.193  14.463 -0.6148  0.7246  0.5466
10577TIP3   OH253221   6.165   3.907   4.625 -0.0153  0.6489 -0.3347
10577TIP3    H153222   6.181   3.999   4.648  1.6644  0.5706 -1.0240
10577TIP3    H253223   6.078   3.888   4.660 -0.2105  2.3706  0.2109
10578TIP3   OH253224   5.058   0.286  15.835  0.0387 -0.0741 -0.7796
10578TIP3    H153225   5.138   0.245  15.870 -0.9317 -1.3992 -0.0086
10578TIP3    H253226   5.088   0.336  15.759  1.6544 -0.2211 -0.2846
10579TIP3   OH253227   1.541   3.956  12.038  0.9254  0.2359 -0.7914
10579TIP3    H153228   1.527   4.025  12.103  0.3679  0.0824 -0.7394
10579TIP3    H253229   1.478   3.976  11.969 -1.1346 -1.6588  0.3959
10580TIP3   OH253230   0.963   5.985  16.896  0.8730  0.4013 -0.0114
10580TIP3    H153231   0.881   6.012  16.855  1.2984  0.8999 -0.5535
10580TIP3    H253232   0.946   5.990  16.990  0.4174  0.9218 -0.1175
10581TIP3   OH253233   1.589   3.477   3.782 -0.0425 -0.0282 -0.0254
10581TIP3    H153234   1.635   3.425   3.847 -1.2654 -2.2148 -0.8033
10581TIP3    H253235   1.624   3.446   3.698 -0.2127  1.0282 -0.5058
10582TIP3   OH253236   3.680   0.459  13.392 -0.2128  0.2695 -0.9108
10582TIP3    H153237   3.708   0.449  13.301  0.4959  0.0745 -0.6791
10582TIP3    H253238   3.698   0.374  13.432 -0.1557  0.4743 -0.4941
10583TIP3   OH253239   1.313   0.428  12.460 -0.1256 -0.1861  0.4949
10583TIP3    H153240   1.344   0.359  12.519  1.8593  0.2957  0.0873
10583TIP3    H253241   1.379   0.497  12.467 -0.1330  0.1275 -1.8542
10584TIP3   OH253242   4.227   2.277   0.895  0.3645  0.3941  0.5753
10584TIP3    H153243   4.306   2.269   0.841  0.1807  2.5229 -0.0825
10584TIP3    H253244   4.154   2.267   0.833 -0.0057 -2.7552  1.3475
10585TIP3   OH253245   4.272   1.900  13.672 -0.1718 -0.3125  0.5807
10585TIP3    H153246   4.270   1.808  13.647  0.6936  0.1951 -1.5710
10585TIP3    H253247   4.204   1.942  13.619  1.3806  0.7210 -0.7263
10586TIP3   OH253248   0.687   0.706  16.370  0.1907  0.2871  0.4550
10586TIP3    H153249   0.634   0.751  16.437  1.1787 -0.5772  1.8769
10586TIP3    H253250   0.629   0.698  16.295 -0.5469  2.4445  0.7384
10587TIP3   OH253251   6.303   1.188  16.363  0.0314  0.3072  0.1355
10587TIP3    H153252   6.364   1.132  16.411 -2.2419  0.1364  3.1360
10587TIP3    H253253   6.275   1.135  16.289 -0.5324 -1.8299  1.7815
10588TIP3   OH253254   1.550   6.516  13.594 -0.2881 -0.0181  0.5156
10588TIP3    H153255   1.616   6.576  13.559  0.8845 -1.7974 -0.4734
10588TIP3    H253256   1.472   6.532  13.541  1.2203 -2.1378 -2.6502
10589TIP3   OH253257   2.455   1.244  14.679 -0.3869 -0.0483 -0.4914
10589TIP3    H153258   2.497   1.259  14.764 -2.4071  1.1983  0.3867
10589TIP3    H253259   2.412   1.159  14.688 -0.6366  0.1029 -0.2385
10590TIP3   OH253260   6.685   0.092  13.128  0.0861  0.0183 -0.5457
10590TIP3    H153261   6.770   0.063  13.094  0.2258 -0.1057 -0.0982
10590TIP3    H253262   6.703   0.178  13.167  0.0972 -0.1834 -0.0941
10591TIP3   OH253263   6.507   5.322  13.772 -0.1266 -0.4708  0.4788
10591TIP3    H153264   6.552   5.238  13.762 -0.7078 -0.7674  0.3144
10591TIP3    H253265   6.496   5.353  13.682 -0.2063 -0.3784  0.5211
10592TIP3   OH253266   0.390   2.408  14.152  0.3168  0.2630  0.1891
10592TIP3    H153267   0.426   2.454  14.076 -0.3913  1.0913  0.3246
10592TIP3    H253268   0.358   2.325  14.118  1.7824 -0.2320 -0.0365
10593TIP3   OH253269   3.783   1.191  15.755 -0.4962  0.0203  0.3907
10593TIP3    H153270   3.837   1.170  15.678 -0.3862  0.1671  0.4272
10593TIP3    H253271   3.693   1.183  15.724 -0.5870  3.9843 -0.9263
10594TIP3   OH253272   0.062   6.013   1.676 -0.0442  0.0850  0.3936
10594TIP3    H153273  -0.007   6.079   1.679  0.4379  0.6790 -0.8918
10594TIP3    H253274   0.098   6.020   1.587  0.9987 -0.9026  0.7168
10595TIP3   OH253275   5.003   3.701   0.182 -0.7534 -0.0132 -0.0712
10595TIP3    H153276   4.939   3.744   0.125  0.8094 -0.6652 -2.4773
10595TIP3    H253277   5.060   3.653   0.122  0.9183 -0.9130  2.1002
10596TIP3   OH253278   4.769   4.380  15.668  0.2228 -0.2232 -0.1675
10596TIP3    H153279   4.702   4.448  15.676  0.5131  0.0390  0.0772
10596TIP3    H253280   4.804   4.372  15.757  0.3100 -0.5702 -0.2349
10597TIP3   OH253281   4.285   1.632   0.268  0.0293 -0.0894 -0.2793
10597TIP3    H153282   4.262   1.649   0.359 -0.4200  3.2383 -0.8911
10597TIP3    H253283   4.232   1.556   0.243 -2.3285  0.9163  1.3253
10598TIP3   OH253284   0.862   1.196  12.622  0.1399  0.3614 -0.1603
10598TIP3    H153285   0.850   1.101  12.633 -0.3385  0.3692 -0.5768
10598TIP3    H253286   0.779   1.226  12.584  0.1694  0.9990  0.2676
10599TIP3   OH253287   6.584   3.048   2.456  0.0831 -0.2870  0.5224
10599TIP3    H153288   6.547   3.096   2.530 -0.5003 -0.2868  0.2366
10599TIP3    H253289   6.536   3.081   2.379  0.4134 -0.5627  0.1912
10600TIP3   OH253290   1.075   3.925   2.834 -0.2176  0.3260  0.0154
10600TIP3    H153291   1.000   3.972   2.872 -0.0585 -0.0398  0.7948
10600TIP3    H253292   1.109   3.871   2.905  0.1798 -0.2727 -0.6106
10601TIP3   OH253293   5.290   0.776  16.697 -0.3659  0.3304 -0.0456
10601TIP3    H153294   5.321   0.866  16.683 -2.8103  1.1701 -0.6227
10601TIP3    H253295   5.339   0.745  16.773  0.8598  1.9856 -0.0974
10602TIP3   OH253296   6.261   6.359   3.700 -0.1477 -0.1081  0.0886
10602TIP3    H153297   6.188   6.383   3.758  0.1963 -1.4702  1.1495
10602TIP3    H253298   6.229   6.281   3.654  0.1115  0.1391 -0.5092
10603TIP3   OH253299   6.567   2.603   4.390 -0.1942 -0.1370  0.2073
10603TIP3    H153300   6.615   2.532   4.349 -1.0055 -0.1933 -0.6650
10603TIP3    H253301   6.495   2.560   4.436 -2.1441  0.2023 -2.3027
10604TIP3   OH253302   2.419   4.188   0.815 -0.0968  0.0186 -0.4082
10604TIP3    H153303   2.473   4.240   0.756 -0.8072  1.0345 -0.1930
10604TIP3    H253304   2.471   4.183   0.895 -0.3793  1.1861 -0.1215
10605TIP3   OH253305   1.840   3.189   5.358  0.4947  0.4113  0.3577
10605TIP3    H153306   1.873   3.099   5.357 -0.4779  0.0379 -0.4857
10605TIP3    H253307   1.790   3.195   5.439 -1.4169 -0.6056 -0.6751
10606TIP3   OH253308   2.313   3.584  14.233  0.4648  0.4350  0.0342
10606TIP3    H153309   2.229   3.620  14.203 -0.0451 -0.7250  0.0340
10606TIP3    H253310   2.330   3.629  14.315 -0.1473  0.7109  0.0177
10607TIP3   OH253311   4.464   4.624  15.083 -0.3370  1.1394 -0.4364
10607TIP3    H153312   4.402   4.615  15.011 -0.5162  1.1211 -0.2787
10607TIP3    H253313   4.410   4.623  15.162  0.1300 -3.5931  0.0749
10608TIP3   OH253314   2.886   6.372  11.498  0.0327 -0.6524  0.5354
10608TIP3    H153315   2.835   6.442  11.537  0.4214  0.4858 -0.9179
10608TIP3    H253316   2.831   6.338  11.427  0.7527 -0.2481 -0.2436
10609TIP3   OH253317   2.107   6.319   0.801  0.5523 -0.2036 -0.6178
10609TIP3    H153318   2.069   6.254   0.741  0.1727 -0.8733  0.3272
10609TIP3    H253319   2.181   6.274   0.841 -0.3795 -0.4581  0.8702
10610TIP3   OH253320   6.514   4.405   6.139  0.4060  0.1189 -0.0533
10610TIP3    H153321   6.584   4.382   6.077 -0.2511 -0.9892 -0.4117
10610TIP3    H253322   6.560   4.441   6.215  1.3645 -0.4954 -0.3204
10611TIP3   OH253323   3.826   0.748   4.647 -0.2946  0.2033 -0.0299
10611TIP3    H153324   3.883   0.709   4.714  0.9168  3.6717  1.2097
10611TIP3    H253325   3.741   0.757   4.691 -0.8488 -1.7363 -0.6414
10612TIP3   OH253326   1.993   5.805   1.373 -0.0380 -0.0338 -0.1472
10612TIP3    H153327   2.037   5.882   1.410 -0.7959  0.1547  0.3824
10612TIP3    H253328   1.914   5.840   1.332  0.0116 -0.4411 -0.5963
10613TIP3   OH253329   5.488   4.125  12.484 -0.4265  0.6351  0.2011
10613TIP3    H153330   5.530   4.208  12.505 -1.3330  1.2679 -0.3984
10613TIP3    H253331   5.511   4.066  12.556  0.6288  1.2584  0.3836
10614TIP3   OH253332   4.749   0.392   1.193 -0.1481  0.1346 -0.2522
10614TIP3    H153333   4.824   0.363   1.244 -0.3367 -0.5747 -0.3690
10614TIP3    H253334   4.711   0.312   1.158 -0.5365  0.5432 -0.7885
10615TIP3   OH253335   6.772   2.095   5.619  0.0390  0.6652 -0.0863
10615TIP3    H153336   6.828   2.121   5.692  0.5706  1.4612 -0.7481
10615TIP3    H253337   6.733   2.012   5.646  2.9235 -0.8813 -0.2869
10616TIP3   OH253338   0.910   5.574   1.166  0.0792 -0.4501 -0.0472
10616TIP3    H153339   0.933   5.555   1.257  0.9312 -0.3945 -0.2517
10616TIP3    H253340   0.993   5.573   1.119  0.1530  3.1060 -0.2145
10617TIP3   OH253341   2.263   4.208  10.991  0.4340 -0.2717 -0.4541
10617TIP3    H153342   2.185   4.263  10.983  0.2378 -0.6279 -1.0269
10617TIP3    H253343   2.296   4.227  11.079 -0.1513  0.0745 -0.3010
10618TIP3   OH253344   0.510   0.983   2.629  0.0397  0.3946 -0.3195
10618TIP3    H153345   0.590   0.934   2.642  1.1191  2.5021  1.5913
10618TIP3    H253346   0.536   1.060   2.578 -0.8598  0.8774 -0.0844
10619TIP3   OH253347   0.777   3.772  12.983 -0.2963 -0.9656  0.2489
10619TIP3    H153348   0.789   3.841  13.049  1.0797 -0.3737 -0.5950
10619TIP3    H253349   0.855   3.718  12.990  0.8405  0.2540 -2.2070
10620TIP3   OH253350   0.688   0.195  13.211 -0.3456  0.1670 -0.1101
10620TIP3    H153351   0.709   0.101  13.212  0.3202  0.3007 -0.8272
10620TIP3    H253352   0.663   0.213  13.121 -0.5364  0.6734  0.0408
10621TIP3   OH253353   6.181   0.620  10.256  0.4176 -0.5557  0.4198
10621TIP3    H153354   6.246   0.660  10.314 -0.0756  0.9591 -0.0139
10621TIP3    H253355   6.176   0.679  10.181  1.4888 -2.7856 -1.5265
10622TIP3   OH253356   5.342   4.671   5.931  0.1861 -0.2062  0.3814
10622TIP3    H153357   5.424   4.715   5.954 -0.5717  0.5915  1.6705
10622TIP3    H253358   5.356   4.580   5.956  0.2662  0.1626  1.7711
10623TIP3   OH253359   1.788   2.323   1.978 -0.4235 -0.5036 -0.0687
10623TIP3    H153360   1.846   2.399   1.968 -0.3356 -0.2784  1.8024
10623TIP3    H253361   1.705   2.361   2.006 -0.7672 -1.0269 -0.3679
10624TIP3   OH253362   5.281   1.790  14.513 -0.3886  0.0846  0.4639
10624TIP3    H153363   5.187   1.784  14.497  0.0370  0.1769 -2.7032
10624TIP3    H253364   5.316   1.707  14.481  0.7687  0.8630 -0.3606
10625TIP3   OH253365   3.786   6.712   5.548 -0.1076 -0.0818  0.6608
10625TIP3    H153366   3.830   6.797   5.554 -1.5442  0.6611  1.0424
10625TIP3    H253367   3.745   6.700   5.633  0.1428 -1.2111  0.6348
10626TIP3   OH253368   5.060   0.946   0.221 -0.5244 -0.2017  0.9473
10626TIP3    H153369   5.096   0.892   0.291 -1.3941 -1.5887  0.3717
10626TIP3    H253370   5.136   0.986   0.179  0.2007 -1.5128  0.9731
10627TIP3   OH253371   4.756   2.482   0.595 -0.0955  0.4345  0.3157
10627TIP3    H153372   4.756   2.397   0.551 -0.4168  1.0626 -0.9535
10627TIP3    H253373   4.664   2.499   0.616  0.0099  0.3201  0.9006
10628TIP3   OH253374   3.519   5.420   5.161 -0.8144 -0.0965  0.1801
10628TIP3    H153375   3.598   5.428   5.108 -0.2661  0.8758  1.0944
10628TIP3    H253376   3.464   5.494   5.134 -0.6056  0.3036  0.8436
10629TIP3   OH253377   0.029   3.059   0.954  0.0773  0.6093 -0.3660
10629TIP3    H153378   0.027   2.986   1.016  1.0793  1.1347  0.3195
10629TIP3    H253379   0.031   3.137   1.009 -2.4353  1.2532 -1.0928
10630TIP3   OH253380   3.856   3.706  14.929  0.0435  0.0454  0.5904
10630TIP3    H153381   3.930   3.725  14.872  0.8148 -2.9575  0.4137
10630TIP3    H253382   3.780   3.707  14.870  0.5034 -0.6346 -0.0365
10631TIP3   OH253383   0.498   2.892   2.837  0.4775 -0.0483 -0.0798
10631TIP3    H153384   0.487   2.829   2.765  0.7012 -0.4076  0.1949
10631TIP3    H253385   0.553   2.961   2.800  1.7049 -0.8827  0.1197
10632TIP3   OH253386   0.819   0.631   0.206  0.2173 -0.2012 -0.2503
10632TIP3    H153387   0.890   0.666   0.261 -0.8090  1.4387  0.1106
10632TIP3    H253388   0.745   0.621   0.266 -1.4179  3.1167 -1.4704
10633TIP3   OH253389   6.807   4.520   0.290 -0.5045 -0.1294 -0.2105
10633TIP3    H153390   6.843   4.547   0.374 -1.6626 -0.7812  0.5266
10633TIP3    H253391   6.782   4.602   0.246  0.4768  0.2345 -0.1157
10634TIP3   OH253392   2.586   3.283  11.620 -0.1780  0.6921  0.6251
10634TIP3    H153393   2.659   3.281  11.681  0.1945  2.6082  0.3034
10634TIP3    H253394   2.508   3.276  11.675  0.1733  1.5203  1.2436
10635TIP3   OH253395   4.437   0.454   1.074 -0.6310  0.0148  0.6677
10635TIP3    H153396   4.383   0.528   1.102 -3.8624 -1.1225 -1.8264
10635TIP3    H253397   4.422   0.387   1.141 -1.0862  0.2292  0.7851
10636TIP3   OH253398   4.591   4.296   5.650 -0.5255 -0.4842  0.2040
10636TIP3    H153399   4.609   4.359   5.581  2.2439 -1.1075  0.2549
10636TIP3    H253400   4.566   4.216   5.604  0.3920 -0.6219 -0.0785
10637TIP3   OH253401   0.689   4.491   4.495  0.4192 -0.0436 -0.4013
10637TIP3    H153402   0.609   4.489   4.443 -0.7995  1.3904  1.2966
10637TIP3    H253403   0.674   4.428   4.565  0.4913  0.7178  0.3100
10638TIP3   OH253404   1.571   6.502  11.072  0.2309 -0.2717 -0.3130
10638TIP3    H153405   1.515   6.442  11.023  1.7329 -0.7600 -1.4806
10638TIP3    H253406   1.513   6.575  11.095 -0.6926 -0.3501 -2.2361
10639TIP3   OH253407   3.581   0.857   5.138 -0.2867 -0.1564 -0.5413
10639TIP3    H153408   3.501   0.832   5.185 -0.4079  1.4529  0.1694
10639TIP3    H253409   3.623   0.921   5.195  0.6635  0.2530 -1.6710
10640TIP3   OH253410   0.528   4.437  14.499 -0.4307  0.4876 -1.2850
10640TIP3    H153411   0.472   4.376  14.450 -0.2681 -0.3447 -0.4603
10640TIP3    H253412   0.470   4.510  14.520 -1.8162 -1.2014  1.1846
10641TIP3   OH253413   3.653   5.760  11.454  0.7402  0.4509 -0.0738
10641TIP3    H153414   3.605   5.740  11.374 -0.4586  1.6051  0.3241
10641TIP3    H253415   3.726   5.815  11.426 -0.3506  1.8502 -0.2693
10642TIP3   OH253416   1.031   3.581  13.048  0.0418  0.4788  0.0391
10642TIP3    H153417   1.088   3.657  13.045 -0.6180  1.0145  0.7955
10642TIP3    H253418   1.078   3.517  13.101 -0.4081  1.2197  1.3571
10643TIP3   OH253419   5.548   0.604   0.332  0.1361 -0.2611 -0.6305
10643TIP3    H153420   5.507   0.603   0.418 -0.3251 -1.9526 -0.8524
10643TIP3    H253421   5.623   0.545   0.341  1.7140  1.6390 -0.6515
10644TIP3   OH253422   5.754   2.421  12.401  0.1307 -0.4137 -0.1292
10644TIP3    H153423   5.682   2.467  12.445  1.7072  1.4124  0.6718
10644TIP3    H253424   5.740   2.329  12.422 -0.8820  0.1001  1.6500
10645TIP3   OH253425   0.240   0.055   4.677  0.2093 -0.2238  0.3271
10645TIP3    H153426   0.268   0.079   4.766  0.7594 -0.3659  0.1957
10645TIP3    H253427   0.285   0.118   4.620 -2.9947  2.3589  0.3335
10646TIP3   OH253428   0.350   3.639  11.797 -0.0191 -0.4498 -0.2511
10646TIP3    H153429   0.337   3.727  11.832  0.9249 -1.0075  1.6386
10646TIP3    H253430   0.321   3.644  11.706 -0.8200  1.5706  0.0813
10647TIP3   OH253431   0.241   5.711  10.757  0.0091  0.0826  0.7503
10647TIP3    H153432   0.247   5.807  10.756 -0.4059  0.2468  3.6894
10647TIP3    H253433   0.191   5.689  10.679  1.8785  2.0475 -1.1250
10648TIP3   OH253434   2.252   4.146   3.179 -0.0477  0.3850 -0.0848
10648TIP3    H153435   2.275   4.223   3.128  0.2653  0.1367 -0.3200
10648TIP3    H253436   2.241   4.179   3.268  1.6245  0.4550  0.1234
10649TIP3   OH253437   4.564   3.308   2.725  0.3661 -0.6379  0.2546
10649TIP3    H153438   4.591   3.219   2.701 -1.3484 -1.0682 -0.1873
10649TIP3    H253439   4.505   3.335   2.654  1.4742  1.1777 -0.0402
10650TIP3   OH253440   3.184   4.448  14.891  0.0094  0.4785  1.0362
10650TIP3    H153441   3.229   4.511  14.836 -0.2563 -0.5918 -0.4565
10650TIP3    H253442   3.232   4.366  14.881 -0.2369  0.1693  2.1488
10651TIP3   OH253443   0.168   2.949  10.699  1.1817  0.6027  0.0539
10651TIP3    H153444   0.151   3.042  10.715 -2.0973  0.3166 -1.0719
10651TIP3    H253445   0.263   2.943  10.690  1.6896  3.4674  2.1996
10652TIP3   OH253446   1.701   4.630   0.785 -0.4682 -0.6004 -0.0029
10652TIP3    H153447   1.752   4.598   0.860 -1.8881 -0.5834  1.0356
10652TIP3    H253448   1.643   4.557   0.763 -0.0193 -0.6256 -1.1525
10653TIP3   OH253449   4.937   6.263  12.006  0.4325 -0.1238  0.0290
10653TIP3    H153450   5.013   6.205  12.007  0.2701 -0.3408 -0.3882
10653TIP3    H253451   4.883   6.232  11.935 -1.2398 -1.4639  1.7879
10654TIP3   OH253452   5.335   0.186   4.800  0.3556 -0.2881 -0.1485
10654TIP3    H153453   5.399   0.232   4.745  1.0844 -0.1541  0.7758
10654TIP3    H253454   5.368   0.097   4.806  0.8113 -0.0695  0.8264
10655TIP3   OH253455   3.664   2.193   4.011 -0.2772 -0.1467  0.3153
10655TIP3    H153456   3.758   2.183   4.027  0.4117  1.8762 -1.7869
10655TIP3    H253457   3.639   2.111   3.968  0.5238 -0.6922  0.8466
10656TIP3   OH253458   4.445   3.289   3.004 -0.2411 -0.5769  0.3045
10656TIP3    H153459   4.502   3.312   2.930 -0.2274  0.5520  0.6480
10656TIP3    H253460   4.358   3.282   2.966 -0.1490 -0.5481  0.0845
10657TIP3   OH253461   5.896   5.272   4.846  0.5747  0.2750 -0.3188
10657TIP3    H153462   5.868   5.326   4.773 -0.2331  0.7412  0.3122
10657TIP3    H253463   5.991   5.266   4.837  0.4523 -0.0217 -1.6221
10658TIP3   OH253464   1.506   4.960   6.226 -0.1253 -0.3215 -0.1555
10658TIP3    H153465   1.454   4.994   6.299  0.5503 -0.3184  0.3360
10658TIP3    H253466   1.450   4.971   6.149 -0.2627  1.0765  0.1259
10659TIP3   OH253467   4.366   0.280   1.285 -0.1492 -0.1883  0.2732
10659TIP3    H153468   4.279   0.266   1.324 -0.8161  0.1389 -1.0344
10659TIP3    H253469   4.415   0.201   1.308 -0.8625 -0.4858  0.8421
10660TIP3   OH253470   6.604   6.332  11.754 -0.3424 -0.3621  0.0688
10660TIP3    H153471   6.624   6.260  11.814 -0.4705 -0.7288 -0.3237
10660TIP3    H253472   6.648   6.408  11.792  0.7914 -0.8961 -0.1380
10661TIP3   OH253473   3.406   2.815  13.134  0.3545  0.9105  0.4640
10661TIP3    H153474   3.469   2.828  13.063  0.4754  0.8597  0.5607
10661TIP3    H253475   3.450   2.755  13.194 -0.3126 -0.1869 -0.1122
10662TIP3   OH253476   0.195   1.252  13.057 -0.1218 -0.0403  0.5079
10662TIP3    H153477   0.120   1.302  13.024 -1.6259 -1.2194  1.9600
10662TIP3    H253478   0.173   1.161  13.038  1.7606 -0.3223 -0.5327
10663TIP3   OH253479   0.039   4.432   5.521  0.2212  0.6078  0.0984
10663TIP3    H153480   0.003   4.520   5.508  0.3648  0.6401 -0.0949
10663TIP3    H253481   0.132   4.447   5.540  0.9083  0.3951 -2.6611
10664TIP3   OH253482   3.988   1.764   6.420  1.0034 -0.9024  0.2825
10664TIP3    H153483   4.046   1.733   6.350  1.8643  1.0406  0.0706
10664TIP3    H253484   3.975   1.857   6.401 -5.8992 -1.7870 -2.3678
10665TIP3   OH253485   1.565   6.664  15.653  0.1347 -0.2873  0.2681
10665TIP3    H153486   1.540   6.755  15.639  0.9258  0.0086  0.7363
10665TIP3    H253487   1.521   6.638  15.734 -0.4666 -0.4757 -0.1108
10666TIP3   OH253488   0.667   0.966  12.127 -0.1959  0.3473  0.3667
10666TIP3    H153489   0.657   0.882  12.172 -0.2461  0.1871  0.0641
10666TIP3    H253490   0.743   0.954  12.070 -2.0487 -0.6165 -2.0997
10667TIP3   OH253491   6.701   3.753  10.812  0.5396  0.5848 -0.9387
10667TIP3    H153492   6.692   3.673  10.864 -0.6524  2.5041  2.1042
10667TIP3    H253493   6.634   3.745  10.744  0.8083 -1.1734 -1.0629
10668TIP3   OH253494   1.073   0.744  15.153  0.7582  0.4200 -0.3290
10668TIP3    H153495   1.115   0.716  15.072 -0.4484 -0.5473 -0.6579
10668TIP3    H253496   1.114   0.690  15.221  0.6376  0.0639 -0.5342
10669TIP3   OH253497   3.892   3.495  12.963 -0.3227 -0.2502  0.1324
10669TIP3    H153498   3.900   3.580  12.920 -0.8711 -0.9201 -1.3816
10669TIP3    H253499   3.809   3.460  12.930  0.2640 -1.6919  0.1256
10670TIP3   OH253500   6.745   4.729   4.332  0.5149 -0.2042  0.0470
10670TIP3    H153501   6.810   4.698   4.269 -1.0767 -0.1775 -1.6994
10670TIP3    H253502   6.753   4.824   4.329  0.4990 -0.2055 -0.0666
10671TIP3   OH253503   5.812   4.081   1.647  0.2599 -0.3124 -0.2509
10671TIP3    H153504   5.785   4.087   1.555  0.0612 -0.7452 -0.2241
10671TIP3    H253505   5.766   4.152   1.691 -0.7002 -0.9247 -0.2399
10672TIP3   OH253506   0.125   4.340  16.075  0.8023  0.1728 -0.2480
10672TIP3    H153507   0.030   4.329  16.084  1.0114 -0.9426  1.0049
10672TIP3    H253508   0.152   4.383  16.156  1.3542  0.5995 -0.6534
10673TIP3   OH253509   5.348   0.985  11.353 -0.0995 -0.2384 -0.1104
10673TIP3    H153510   5.355   0.902  11.402  2.1135 -0.1309 -0.1450
10673TIP3    H253511   5.271   1.027  11.390 -0.3855 -1.6291  1.0034
10674TIP3   OH253512   4.113   5.298   0.385 -0.0975 -0.4992 -0.0976
10674TIP3    H153513   4.102   5.393   0.392  0.1131 -0.5715  1.6691
10674TIP3    H253514   4.190   5.287   0.329  0.4461  0.4132  0.4389
10675TIP3   OH253515   4.868   3.352   2.711 -0.2009 -0.1489  0.4140
10675TIP3    H153516   4.785   3.303   2.708 -0.9403  0.9679  1.5433
10675TIP3    H253517   4.851   3.430   2.658 -0.1973  0.5214  1.3771
10676TIP3   OH253518   1.470   0.825  11.363 -0.4008  0.1130 -0.1179
10676TIP3    H153519   1.430   0.831  11.450  1.1270  0.8955  0.5724
10676TIP3    H253520   1.487   0.732  11.350  0.1998  0.0793  0.8365
10677TIP3   OH253521   6.038   2.541  14.380 -0.8274 -0.9445  0.1626
10677TIP3    H153522   5.949   2.521  14.353 -1.0215 -2.2603  1.6330
10677TIP3    H253523   6.057   2.478  14.450  0.4245  0.8175  1.4932
10678TIP3   OH253524   1.082   3.350   1.235 -0.1726 -0.1488 -0.4076
10678TIP3    H153525   1.101   3.413   1.165  0.1949 -0.4460 -0.5817
10678TIP3    H253526   1.085   3.401   1.315 -0.5188  0.1807 -0.6027
10679TIP3   OH253527   0.515   0.730  14.896  0.2512  0.0672  0.4647
10679TIP3    H153528   0.525   0.653  14.952  0.3186 -0.2259  0.0541
10679TIP3    H253529   0.476   0.696  14.816  0.3312  0.4533  0.2609
10680TIP3   OH253530   2.149   2.820   3.743 -0.4114 -0.0171  0.1480
10680TIP3    H153531   2.083   2.888   3.749 -0.9546 -0.5827  0.7709
10680TIP3    H253532   2.140   2.770   3.824  0.8197 -0.0774  0.2678
10681TIP3   OH253533   0.978   0.401   2.195 -0.3040  0.3013  0.3530
10681TIP3    H153534   0.973   0.473   2.258 -0.3844  0.5279  0.0906
10681TIP3    H253535   1.064   0.412   2.154 -0.9446  1.1852 -0.7930
10682TIP3   OH253536   2.165   5.159  16.524  0.7332  0.0325  0.0532
10682TIP3    H153537   2.098   5.092  16.510 -0.2352  0.6959  1.3272
10682TIP3    H253538   2.232   5.139  16.459  0.1160 -1.6998 -0.1215
10683TIP3   OH253539   4.410   6.100   3.700  0.0019  0.1372 -0.8441
10683TIP3    H153540   4.474   6.059   3.758  1.1039 -0.3064 -2.3262
10683TIP3    H253541   4.334   6.042   3.703 -0.0985  0.3033  0.3888
10684TIP3   OH253542   1.030   4.174   4.837  0.0571  0.0917 -0.3990
10684TIP3    H153543   1.073   4.176   4.922 -0.5678  1.8408 -0.0887
10684TIP3    H253544   1.008   4.265   4.818 -1.5161 -0.4759 -1.5689
10685TIP3   OH253545   5.088   3.103   3.943 -0.5468 -0.2047 -0.4430
10685TIP3    H153546   5.031   3.077   4.015  1.0760  0.4751  1.1742
10685TIP3    H253547   5.040   3.174   3.899 -1.0099  0.2828  0.8053
10686TIP3   OH253548   2.831   6.609  15.047  0.4493 -0.0172 -1.2215
10686TIP3    H153549   2.894   6.681  15.044  0.2130  0.2165 -0.6976
10686TIP3    H253550   2.754   6.643  15.000 -0.1801  0.6010  0.1946
10687TIP3   OH253551   4.885   6.384  13.011  0.4136  0.5276  0.0167
10687TIP3    H153552   4.923   6.328  13.080  0.0316 -0.4519 -0.5547
10687TIP3    H253553   4.933   6.467  13.019  2.4276 -0.5352 -0.4159
10688TIP3   OH253554   2.989   4.054   2.039  0.4522  0.3091  0.0347
10688TIP3    H153555   3.047   4.125   2.011  0.3223  0.6891  0.6949
10688TIP3    H253556   2.952   4.085   2.121  1.0901 -0.9193  0.8203
10689TIP3   OH253557   0.195   4.318   3.224  0.1169 -0.2321 -0.0531
10689TIP3    H153558   0.228   4.383   3.286 -2.0956 -0.0387  1.0461
10689TIP3    H253559   0.127   4.271   3.272  1.3753 -3.1659 -0.9441
10690TIP3   OH253560   1.401   6.277  16.446  0.6314  0.1252 -0.4832
10690TIP3    H153561   1.316   6.254  16.483  0.9384  1.3242  1.0738
10690TIP3    H253562   1.452   6.308  16.520  1.8358  1.1214 -1.6693
10691TIP3   OH253563   3.405   6.198   0.077 -0.0591  0.3199 -0.1448
10691TIP3    H153564   3.378   6.282   0.041 -0.2155 -0.0718 -0.9613
10691TIP3    H253565   3.381   6.134   0.010 -1.6073 -0.5908  1.2000
10692TIP3   OH253566   0.232   6.581   1.042  0.0161 -0.3134 -0.0934
10692TIP3    H153567   0.253   6.577   0.949  0.9513  0.8806  0.0378
10692TIP3    H253568   0.316   6.565   1.087 -0.2010  0.1922  0.5146
10693TIP3   OH253569   4.814   2.397  14.979  0.4682 -0.1795  0.2500
10693TIP3    H153570   4.891   2.388  14.923  1.1283  2.2560  0.6564
10693TIP3    H253571   4.740   2.397  14.918  1.1799  2.5806 -0.7485
10694TIP3   OH253572   3.161   2.888  11.081  0.0783 -0.0085 -0.3067
10694TIP3    H153573   3.083   2.836  11.103 -0.4971 -0.4250 -3.0168
10694TIP3    H253574   3.217   2.828  11.032  0.8614  1.0607 -0.7481
10695TIP3   OH253575   2.884   1.704  16.817 -0.0735  0.2799  0.3227
10695TIP3    H153576   2.900   1.738  16.905  3.0480 -0.1634  0.0435
10695TIP3    H253577   2.913   1.613  16.821  0.5217  0.3735 -1.2504
10696TIP3   OH253578   5.779   4.540  16.526  0.4450 -0.1171  0.4739
10696TIP3    H153579   5.736   4.475  16.581  1.0409 -2.3777 -1.5045
10696TIP3    H253580   5.708   4.593  16.490 -0.0106  0.7527  2.5675
10697TIP3   OH253581   3.757   0.397  16.395  0.7305 -0.0173 -0.1174
10697TIP3    H153582   3.665   0.370  16.387  0.8361 -0.1127 -1.2811
10697TIP3    H253583   3.805   0.326  16.352  1.3072  0.3005  0.0018
10698TIP3   OH253584   4.894   4.227  11.766  0.5366 -0.3948  0.2573
10698TIP3    H153585   4.828   4.296  11.757  1.0908  0.4062  1.8296
10698TIP3    H253586   4.845   4.145  11.759 -0.1082  0.1035 -1.8969
10699TIP3   OH253587   0.106   0.793   5.326  0.2918 -0.0533 -0.4114
10699TIP3    H153588   0.166   0.858   5.362 -0.7967  1.5178 -1.2440
10699TIP3    H253589   0.030   0.795   5.385  0.4730 -0.9998 -0.1322
10700TIP3   OH253590   2.986   6.765  11.449  0.1162 -0.7738 -0.2359
10700TIP3    H153591   2.940   6.713  11.383 -2.1011  0.5413  0.1702
10700TIP3    H253592   2.939   6.748  11.531  0.9303 -0.0825  0.4009
10701TIP3   OH253593   1.757   2.808   5.274  0.0411 -0.3702  0.2816
10701TIP3    H153594   1.736   2.886   5.221  1.5495  0.0412  0.2185
10701TIP3    H253595   1.738   2.835   5.364  1.6876  0.5456  0.3973
10702TIP3   OH253596   5.106   3.516  16.516 -0.4664 -0.2052 -0.3034
10702TIP3    H153597   5.060   3.471  16.445 -0.6494 -0.6031  0.0650
10702TIP3    H253598   5.185   3.464  16.530 -0.0360  0.3108 -0.7342
10703TIP3   OH253599   4.037   4.503   0.491  0.2108  0.3273 -0.4438
10703TIP3    H153600   4.107   4.569   0.487  0.3520  0.3738  1.8142
10703TIP3    H253601   4.068   4.439   0.555 -0.8677 -0.8553 -1.0566
10704TIP3   OH253602   5.263   1.142   3.382 -0.2942  0.1183  0.3559
10704TIP3    H153603   5.169   1.140   3.365 -0.2000 -1.4552 -0.1233
10704TIP3    H253604   5.291   1.230   3.355 -0.7952 -0.8690 -4.1838
10705TIP3   OH253605   4.961   2.034  13.682  0.1714  0.3722  0.2348
10705TIP3    H153606   4.966   1.940  13.671  2.3511  0.4825 -0.1895
10705TIP3    H253607   4.985   2.050  13.773  0.0939  0.5333  0.2285
10706TIP3   OH253608   2.827   0.040   0.990 -0.5596 -0.6330 -0.4956
10706TIP3    H153609   2.751  -0.017   1.004 -0.9739 -0.1680 -0.8208
10706TIP3    H253610   2.882  -0.009   0.928 -0.3249 -1.2114  0.1651
10707TIP3   OH253611   2.992   0.554   5.447  0.0155  0.3980  0.3178
10707TIP3    H153612   2.981   0.460   5.430  0.1494  0.2383  1.0759
10707TIP3    H253613   3.064   0.580   5.390 -0.0054  0.0310  0.1193
10708TIP3   OH253614   1.141   5.316   2.555 -0.0796 -0.0153  0.5219
10708TIP3    H153615   1.142   5.409   2.578 -2.3926 -0.2278  1.7775
10708TIP3    H253616   1.189   5.311   2.473  1.1103  2.0960  1.0126
10709TIP3   OH253617   3.529   5.768  14.902  0.6711  0.9438 -0.5385
10709TIP3    H153618   3.470   5.828  14.949  0.8723  0.8558 -0.1661
10709TIP3    H253619   3.497   5.681  14.926 -0.2060  0.8956 -1.8233
10710TIP3   OH253620   3.721   4.404   6.171  0.0197  0.0387 -0.0325
10710TIP3    H153621   3.669   4.378   6.247  0.8282  1.2064  0.9561
10710TIP3    H253622   3.757   4.489   6.194  0.1677  0.4932 -1.8046
10711TIP3   OH253623   4.952   2.507   1.063 -0.1956 -0.0677  0.0207
10711TIP3    H153624   4.962   2.522   0.969 -0.1293  0.4327  0.1075
10711TIP3    H253625   4.861   2.529   1.081 -0.2735 -0.3907  0.0341
10712TIP3   OH253626   1.970   0.848  16.962 -0.3513 -0.0451 -0.1709
10712TIP3    H153627   1.971   0.856  17.057 -0.6833  0.2303 -0.1920
10712TIP3    H253628   1.968   0.938  16.930  1.5870 -0.0696 -0.4657
10713TIP3   OH253629   3.512   2.628   3.874 -0.1434  0.6828  0.2585
10713TIP3    H153630   3.508   2.689   3.800  2.5379 -1.4842 -1.8674
10713TIP3    H253631   3.552   2.549   3.838  1.7766 -0.3576  4.1429
10714TIP3   OH253632   5.946   4.054   0.398 -0.2748  0.0552  0.5898
10714TIP3    H153633   5.888   4.019   0.467  0.8071 -0.0011  1.5023
10714TIP3    H253634   5.979   3.976   0.354 -0.0889  0.0383  0.7562
10715TIP3   OH253635   3.653   0.155   3.645  0.0420 -0.2803  0.8114
10715TIP3    H153636   3.630   0.079   3.697  2.2783 -0.2560  1.9512
10715TIP3    H253637   3.678   0.119   3.560 -0.6349 -0.6166  0.7475
10716TIP3   OH253638   4.392   4.275   2.744 -0.6216 -0.0175 -0.1102
10716TIP3    H153639   4.451   4.309   2.811  0.2719 -0.5466 -0.6132
10716TIP3    H253640   4.449   4.230   2.682 -1.5233 -0.2657 -0.7810
10717TIP3   OH253641   4.601   4.713   6.033 -0.1965  0.4428 -0.2983
10717TIP3    H153642   4.677   4.656   6.044 -0.1938  0.3878 -0.5970
10717TIP3    H253643   4.566   4.723   6.122 -0.5452 -0.5179 -0.3087
10718TIP3   OH253644   3.185   2.777   4.211 -0.1143 -0.7314 -0.2368
10718TIP3    H153645   3.102   2.756   4.254 -1.0897  0.7059 -1.3269
10718TIP3    H253646   3.163   2.784   4.118  0.9020  1.1501 -0.3838
10719TIP3   OH253647   1.754   5.352  13.454 -0.3267 -0.1596  0.3431
10719TIP3    H153648   1.830   5.355  13.397 -0.3182 -0.2041  0.3526
10719TIP3    H253649   1.679   5.355  13.394 -0.3354  1.0156  0.3778
10720TIP3   OH253650   4.218   1.344  17.070 -0.5360 -0.2817  0.3602
10720TIP3    H153651   4.231   1.251  17.054 -0.1089 -0.5287  1.9509
10720TIP3    H253652   4.126   1.360  17.049 -0.1002 -0.5641 -1.9908
10721TIP3   OH253653   1.204   3.956  12.414  0.3107 -0.5309 -0.2358
10721TIP3    H153654   1.155   3.938  12.494 -0.0828 -0.9769 -0.5788
10721TIP3    H253655   1.223   4.050  12.419  0.2862 -0.5496  0.3733
10722TIP3   OH253656   2.209   5.640  12.262 -1.0093  0.6849 -0.8345
10722TIP3    H153657   2.244   5.560  12.302 -2.5825  0.2806 -0.1861
10722TIP3    H253658   2.139   5.609  12.204 -0.2384  1.4468 -2.2153
10723TIP3   OH253659   3.771   3.892   2.597 -0.2019 -0.0947 -0.5686
10723TIP3    H153660   3.827   3.827   2.639 -0.1282  0.4437  0.1943
10723TIP3    H253661   3.761   3.861   2.507  1.4650 -0.0990 -0.7745
10724TIP3   OH253662   1.234   1.684  14.135  0.4846  0.2409 -0.4074
10724TIP3    H153663   1.194   1.692  14.048  0.5547 -0.4690 -0.5120
10724TIP3    H253664   1.237   1.773  14.168  2.5796  0.8932 -2.0938
10725TIP3   OH253665   1.444   5.499   5.050  0.6264 -0.0574 -0.0379
10725TIP3    H153666   1.491   5.583   5.050  0.3697  0.1300 -1.7575
10725TIP3    H253667   1.513   5.434   5.034  0.4949  0.1198 -1.4945
10726TIP3   OH253668   4.441   3.112   3.328  0.5720  0.1133  0.1571
10726TIP3    H153669   4.488   3.047   3.380 -0.6830  0.4324  1.7667
10726TIP3    H253670   4.428   3.071   3.243  3.6289 -0.0298 -0.3547
10727TIP3   OH253671   5.418   3.542   4.565 -0.2431  0.3817 -0.3149
10727TIP3    H153672   5.383   3.453   4.552 -0.4520  0.2998  0.7695
10727TIP3    H253673   5.350   3.599   4.529  0.3191  0.1012 -1.9425
10728TIP3   OH253674   1.401   4.362  13.191 -0.0802 -0.0080 -0.0996
10728TIP3    H153675   1.374   4.449  13.162 -0.8990 -0.3436 -0.3663
10728TIP3    H253676   1.412   4.370  13.286  1.7312  0.8668 -0.3311
10729TIP3   OH253677   5.296   5.537   1.877  0.1053  0.4957  0.7017
10729TIP3    H153678   5.219   5.494   1.915 -0.5176  1.1435  0.2114
10729TIP3    H253679   5.339   5.579   1.952  0.1016 -0.0493  1.0116
10730TIP3   OH253680   5.717   5.402   1.115  1.2506  0.2071  0.0297
10730TIP3    H153681   5.767   5.321   1.113 -0.3017 -0.7918 -1.4890
10730TIP3    H253682   5.625   5.374   1.110  0.5922  2.0108  1.0067
10731TIP3   OH253683   2.301   1.701  12.560 -0.3576 -0.2155  0.3735
10731TIP3    H153684   2.329   1.783  12.518 -1.8214  0.7987  1.2616
10731TIP3    H253685   2.381   1.649  12.566  0.0898 -0.1134 -2.8733
10732TIP3   OH253686   0.283   0.718  15.278 -0.1020 -0.2667  0.6149
10732TIP3    H153687   0.246   0.772  15.348 -1.0674  1.5062 -1.1664
10732TIP3    H253688   0.377   0.737  15.280 -0.1160 -0.2497  1.4208
10733TIP3   OH253689   0.951   6.674   3.832 -0.4194 -0.0535 -0.4008
10733TIP3    H153690   1.026   6.688   3.774 -0.6135  0.1927 -0.5954
10733TIP3    H253691   0.904   6.600   3.793 -0.3661 -0.1019 -0.3722
10734TIP3   OH253692   2.138   6.018   4.063 -0.4633  0.1560 -0.5054
10734TIP3    H153693   2.210   5.977   4.015 -2.0803 -0.6504 -2.4027
10734TIP3    H253694   2.151   5.991   4.154 -0.1513 -2.7805 -1.3107
10735TIP3   OH253695   6.143   6.522   0.311  0.2128  0.4135 -0.1434
10735TIP3    H153696   6.135   6.612   0.278 -1.2864  0.9651  1.5868
10735TIP3    H253697   6.227   6.521   0.357 -0.8212  1.7197  1.9138
10736TIP3   OH253698   3.237   5.993  15.585 -0.0909 -0.3046  0.1509
10736TIP3    H153699   3.184   5.944  15.649 -0.1769 -1.5029 -0.8012
10736TIP3    H253700   3.326   5.960  15.598  0.6379  2.1450  2.1657
10737TIP3   OH253701   0.911   5.831  15.496  0.5303  0.2797  0.3608
10737TIP3    H153702   0.918   5.904  15.558  1.1990  1.4642 -1.0383
10737TIP3    H253703   0.850   5.861  15.429 -1.9507 -1.8526  1.5109
10738TIP3   OH253704   5.990   3.157  12.772  0.1649  0.7206  0.2472
10738TIP3    H153705   5.912   3.198  12.735  0.6870  2.8537  1.3151
10738TIP3    H253706   6.061   3.182  12.713  0.2382 -0.2454 -0.0911
10739TIP3   OH253707   1.995   6.709  14.493 -0.1963  0.0703  0.0579
10739TIP3    H153708   2.053   6.691  14.567 -1.2302  0.2074  0.9291
10739TIP3    H253709   2.037   6.668  14.419  1.5996  1.1487  0.4257
10740TIP3   OH253710   4.226   6.089   4.547  0.7124 -0.2389  0.0024
10740TIP3    H153711   4.228   6.034   4.625 -0.9920 -0.1188  0.1666
10740TIP3    H253712   4.313   6.079   4.508  1.0740 -1.4998  1.0699
10741TIP3   OH253713   5.511   5.965   6.183  0.5743  0.3144 -0.0672
10741TIP3    H153714   5.480   5.970   6.273  1.8015  1.6690  0.3180
10741TIP3    H253715   5.607   5.963   6.191  0.6945 -1.9033 -1.2707
10742TIP3   OH253716   0.528   1.405   4.297 -0.1668 -0.1488  0.3594
10742TIP3    H153717   0.513   1.310   4.295  0.0399 -0.1688 -0.6190
10742TIP3    H253718   0.479   1.438   4.222 -0.5494  0.5732  0.9167
10743TIP3   OH253719   1.375   0.530  16.111 -0.0705  0.4120  0.3551
10743TIP3    H153720   1.333   0.450  16.143  0.9880 -0.5168 -0.4967
10743TIP3    H253721   1.393   0.580  16.191 -0.2542 -0.4457  0.9549
10744TIP3   OH253722   2.324   1.867   6.282  0.5667 -0.1397 -0.3514
10744TIP3    H153723   2.241   1.911   6.302  0.4690  0.9761 -2.8578
10744TIP3    H253724   2.309   1.775   6.304 -1.5130 -0.0437 -1.1694
10745TIP3   OH253725   2.166   4.013  13.323 -0.0478  0.0633  0.0981
10745TIP3    H153726   2.261   4.018  13.332  0.0678  0.5066 -1.1769
10745TIP3    H253727   2.150   3.929  13.281  0.0443  1.1506 -2.2863
10746TIP3   OH253728   4.101   0.289   3.608  0.3311  0.1099 -1.0173
10746TIP3    H153729   4.042   0.234   3.660 -1.1374 -0.3226 -3.0457
10746TIP3    H253730   4.174   0.231   3.586  0.2527 -0.1293 -0.6650
10747TIP3   OH253731   4.831   1.049  13.642 -0.3803 -0.3209  0.2440
10747TIP3    H153732   4.758   1.081  13.590 -0.6843 -1.2370  0.0946
10747TIP3    H253733   4.901   1.035  13.579 -0.4982 -0.6843  0.1911
10748TIP3   OH253734   5.973   4.562   1.449 -0.3571  0.1542 -0.2251
10748TIP3    H153735   6.032   4.631   1.479 -0.4477  0.1378 -0.0118
10748TIP3    H253736   5.889   4.583   1.490 -1.0023  1.2467 -1.9956
10749TIP3   OH253737   3.792   4.178   4.727  0.2133 -0.4923  0.2232
10749TIP3    H153738   3.867   4.220   4.684  0.2487 -0.2972  0.4743
10749TIP3    H253739   3.775   4.101   4.673  0.5172 -0.4726  0.0918
10750TIP3   OH253740   1.914   0.936  14.367  0.0505  0.2029  0.3190
10750TIP3    H153741   1.909   0.888  14.284  1.9730  0.2076  0.1565
10750TIP3    H253742   1.975   1.008  14.350  1.0612 -0.2202  1.8994
10751TIP3   OH253743   1.673   6.616   6.616  0.1188  0.1500  0.3855
10751TIP3    H153744   1.580   6.619   6.594  0.2404 -1.2271 -0.3863
10751TIP3    H253745   1.682   6.540   6.674  0.7997  0.1588  0.3005
10752TIP3   OH253746   2.672   6.759   2.177  0.2444  0.4971 -0.0541
10752TIP3    H153747   2.749   6.702   2.169  0.0529  0.4200 -1.6563
10752TIP3    H253748   2.624   6.746   2.095 -1.4171  0.6515  0.8493
10753TIP3   OH253749   3.718   5.728   4.397  0.6962 -0.0016  0.1054
10753TIP3    H153750   3.784   5.666   4.430 -0.1183 -0.6675  0.5227
10753TIP3    H253751   3.702   5.700   4.307 -1.4706 -2.0200  1.0240
10754TIP3   OH253752   3.765   5.064   4.478 -0.0220  0.7581 -0.1079
10754TIP3    H153753   3.777   5.142   4.423 -0.8964 -0.3018 -1.8970
10754TIP3    H253754   3.806   5.087   4.561  0.9687  2.6123 -1.0408
10755TIP3   OH253755   1.129   6.276  12.505 -0.3006 -0.4569 -0.1527
10755TIP3    H153756   1.105   6.346  12.444 -1.1463 -0.2991  0.3437
10755TIP3    H253757   1.152   6.202  12.449  0.7904  0.2598 -0.6886
10756TIP3   OH253758   1.876   3.816   1.597  0.0569 -0.3647 -0.2006
10756TIP3    H153759   1.806   3.866   1.556 -0.9840 -1.0300  0.7049
10756TIP3    H253760   1.850   3.808   1.688  1.1853 -0.8657  0.0975
10757TIP3   OH253761   2.824   4.499   5.288 -0.2066  0.4933 -0.1852
10757TIP3    H153762   2.730   4.513   5.299 -0.3372  0.5156 -1.1560
10757TIP3    H253763   2.831   4.449   5.206  0.5116 -1.3714  0.9515
10758TIP3   OH253764   4.250   3.093  15.088 -0.2341 -0.1954  0.9245
10758TIP3    H153765   4.291   3.180  15.087  1.2109 -0.8401 -0.3085
10758TIP3    H253766   4.179   3.101  15.152  0.3051  1.6786  1.3685
10759TIP3   OH253767   4.972   0.039  13.396 -0.1482  0.1079 -0.5526
10759TIP3    H153768   4.889   0.079  13.367 -0.0045 -0.1837 -1.3694
10759TIP3    H253769   4.949  -0.051  13.418 -0.1202  0.1302 -0.4330
10760TIP3   OH253770   4.515   4.057   4.837  0.0131 -0.8353  0.4779
10760TIP3    H153771   4.553   4.144   4.850  0.8996 -1.3122  1.1967
10760TIP3    H253772   4.589   4.002   4.812 -0.5296 -1.3943  0.0807
10761TIP3   OH253773   1.021   5.533   2.677 -1.3299  0.7516  0.0790
10761TIP3    H153774   0.942   5.481   2.662 -2.1055  1.5198  1.3344
10761TIP3    H253775   1.043   5.518   2.769 -0.6217  1.3603  0.0141
10762TIP3   OH253776   0.276   2.841  12.635  0.2170  0.0154 -0.0255
10762TIP3    H153777   0.284   2.870  12.726 -1.3775  0.0097  0.1453
10762TIP3    H253778   0.250   2.749  12.641 -1.3492  0.3925 -0.4168
10763TIP3   OH253779   4.349   2.305  11.851 -0.4980 -0.4967  0.3071
10763TIP3    H153780   4.262   2.274  11.879 -0.8255  0.0651 -0.0653
10763TIP3    H253781   4.349   2.295  11.756 -0.0111 -0.8423  0.3422
10764TIP3   OH253782   3.694   5.394  11.963  0.0822  0.6267 -0.3177
10764TIP3    H153783   3.731   5.475  11.929 -1.9924  1.4862 -0.6688
10764TIP3    H253784   3.618   5.422  12.014  0.7236 -0.9303  1.6327
10765TIP3   OH253785   0.101   2.086  12.232  0.1338  0.4874  0.3864
10765TIP3    H153786   0.055   2.008  12.262 -0.9141  0.9338  0.0080
10765TIP3    H253787   0.191   2.075  12.263 -0.0257 -0.8023  0.4359
10766TIP3   OH253788   1.597   4.436   4.426 -0.6108 -0.0098  0.0233
10766TIP3    H153789   1.612   4.375   4.498  0.7904  1.3318  0.9276
10766TIP3    H253790   1.502   4.447   4.423 -0.7588 -0.9086  0.9561
10767TIP3   OH253791   5.757   4.414   4.252 -0.2206  0.2315  0.1512
10767TIP3    H153792   5.667   4.433   4.280 -0.0252  3.1154 -0.8593
10767TIP3    H253793   5.765   4.320   4.263 -3.2441 -0.0975  0.6162
10768TIP3   OH253794   2.637   3.266   2.812 -0.1082 -0.1526  0.0300
10768TIP3    H153795   2.626   3.300   2.723 -1.1486  0.2743  0.3037
10768TIP3    H253796   2.605   3.176   2.808  2.2708 -1.0359 -0.6020
10769TIP3   OH253797   5.908   3.199  13.388 -0.8746 -0.0458  0.0580
10769TIP3    H153798   5.876   3.210  13.478 -2.0783 -2.5710  0.0091
10769TIP3    H253799   5.841   3.147  13.345  1.3063 -1.9124 -1.2869
10770TIP3   OH253800   6.018   5.409   2.443  0.4386  0.5165 -0.1765
10770TIP3    H153801   5.970   5.362   2.375 -0.3253  1.4198 -0.2796
10770TIP3    H253802   6.111   5.391   2.425  0.1688 -0.8950 -0.2324
10771TIP3   OH253803   2.574   2.411  16.951  0.3004  0.3557  0.7205
10771TIP3    H153804   2.499   2.464  16.925  0.6842  1.1162  1.1196
10771TIP3    H253805   2.540   2.322  16.956 -0.5261  0.6603  0.6848
10772TIP3   OH253806   5.507   0.681  16.028 -0.3026  0.1905  0.4011
10772TIP3    H153807   5.475   0.639  16.108 -0.8093 -0.2598 -0.0262
10772TIP3    H253808   5.428   0.708  15.982 -0.2107 -2.0537 -1.2785
10773TIP3   OH253809   1.880   1.706  16.341 -0.0676  0.0662 -0.2286
10773TIP3    H153810   1.811   1.772  16.345 -0.2919 -0.2242  1.3373
10773TIP3    H253811   1.850   1.644  16.274 -0.3485  0.9798 -0.9741
10774TIP3   OH253812   2.469   5.371  10.940 -0.1550  0.0363 -0.1224
10774TIP3    H153813   2.437   5.281  10.945  0.4708 -0.1253  2.5656
10774TIP3    H253814   2.564   5.362  10.929 -0.0325  0.3234  0.6365
10775TIP3   OH253815   3.779   1.857   2.760  0.1036  0.1138  0.3810
10775TIP3    H153816   3.828   1.776   2.748 -1.8049 -1.2246  1.0990
10775TIP3    H253817   3.793   1.880   2.852  0.8228  0.7545  0.1232
10776TIP3   OH253818   3.249   1.796  12.953 -0.2063  0.4431  0.2277
10776TIP3    H153819   3.296   1.875  12.980 -0.0941  1.1706 -1.9305
10776TIP3    H253820   3.182   1.785  13.020 -0.7480  2.8611  0.1787
10777TIP3   OH253821   2.967   5.798  11.699  0.6254  1.0149  0.1787
10777TIP3    H153822   2.889   5.837  11.737 -1.9660 -0.5811 -2.9351
10777TIP3    H253823   2.969   5.709  11.734  0.8635  0.9418 -0.0166
10778TIP3   OH253824   6.009   3.821  14.628  0.2698  0.1049  0.3952
10778TIP3    H153825   5.925   3.805  14.585  0.5540 -0.0137 -0.1242
10778TIP3    H253826   6.039   3.904  14.592  1.2220 -0.7177 -0.8021
10779TIP3   OH253827   2.786   5.984   4.523  0.0621  0.3664 -0.3629
10779TIP3    H153828   2.811   5.897   4.492 -0.6877  0.6918 -2.0158
10779TIP3    H253829   2.692   5.989   4.505 -0.0978  1.1713  0.6261
10780TIP3   OH253830   3.564   2.551   0.382  0.2065 -0.2277 -0.7578
10780TIP3    H153831   3.522   2.464   0.383  0.5347 -0.4012 -1.3921
10780TIP3    H253832   3.491   2.612   0.390 -0.0587 -0.5541 -0.6295
10781TIP3   OH253833   4.921   2.878   3.388  0.1488  0.7417  0.3366
10781TIP3    H153834   4.983   2.950   3.378 -1.6407  2.3532  0.2699
10781TIP3    H253835   4.928   2.828   3.307  2.1615  0.1691  0.8069
10782TIP3   OH253836   1.978   3.560   2.180 -0.0801  0.0675  0.3766
10782TIP3    H153837   2.020   3.485   2.221  1.1077  0.3902 -0.2016
10782TIP3    H253838   1.989   3.631   2.243 -0.4917 -0.0302  0.5687
10783TIP3   OH253839   2.452   5.177  13.334 -0.0168  0.1500  0.1753
10783TIP3    H153840   2.412   5.263  13.324 -1.2488 -0.5165 -1.0614
10783TIP3    H253841   2.391   5.117  13.290  1.4927 -1.1540 -0.2411
10784TIP3   OH253842   5.437   3.203  11.398  0.4804 -0.4972 -0.1143
10784TIP3    H153843   5.371   3.242  11.456 -0.7407 -1.0170 -1.1048
10784TIP3    H253844   5.397   3.122  11.368  1.9254 -1.2290 -0.1238
10785TIP3   OH253845   2.329   5.076  15.725  0.1285 -0.5219  0.0771
10785TIP3    H153846   2.314   5.150  15.666 -0.1247 -0.3554  0.3469
10785TIP3    H253847   2.276   5.005  15.688 -0.4599 -0.2575  0.4057
10786TIP3   OH253848   0.981   4.142   0.401 -0.1019  0.0102 -0.7496
10786TIP3    H153849   1.069   4.131   0.438 -0.0897  0.5648 -0.6070
10786TIP3    H253850   0.953   4.053   0.380  0.1080 -0.2687  0.0974
10787TIP3   OH253851   3.476   4.086   6.006 -0.0238 -0.7056 -0.2358
10787TIP3    H153852   3.396   4.058   6.051 -0.7001  1.3053 -0.0708
10787TIP3    H253853   3.446   4.109   5.918  0.7013 -1.5088 -0.7033
10788TIP3   OH253854   0.284   5.517   5.849  0.1604  0.7552  0.2813
10788TIP3    H153855   0.295   5.544   5.940  2.2231 -0.2515  0.3863
10788TIP3    H253856   0.189   5.516   5.836 -0.2166  0.3262  2.6015
10789TIP3   OH253857   5.243   1.465   1.743  0.3019  0.2184 -0.2113
10789TIP3    H153858   5.262   1.451   1.836  1.1556  1.1746 -0.2167
10789TIP3    H253859   5.184   1.394   1.719  1.6869 -1.2650  0.5591
10790TIP3   OH253860   3.763   3.276   4.505  0.2834  0.3386 -0.3705
10790TIP3    H153861   3.767   3.365   4.539 -0.5113 -0.0274  0.7251
10790TIP3    H253862   3.852   3.258   4.474  0.5329  1.3878 -0.2985
10791TIP3   OH253863   1.119   4.849  13.405  0.8480 -0.2867  0.3774
10791TIP3    H153864   1.025   4.860  13.418  0.7727  2.2712 -1.5143
10791TIP3    H253865   1.157   4.859  13.493 -0.5301  0.4866  0.9088
10792TIP3   OH253866   5.924   5.049  16.288 -0.5664 -0.2272 -0.3001
10792TIP3    H153867   5.936   5.143  16.278 -1.3324  0.0532  1.1241
10792TIP3    H253868   6.012   5.012  16.278 -0.4073  0.5023 -1.9074
10793TIP3   OH253869   2.300   4.601   0.253 -0.2126  0.7982 -0.0043
10793TIP3    H153870   2.394   4.615   0.244  0.0345 -0.1005  0.9717
10793TIP3    H253871   2.277   4.645   0.335  0.0995 -2.1054  1.7563
10794TIP3   OH253872   1.573   2.293  17.019 -0.8654 -0.2458 -0.7662
10794TIP3    H153873   1.530   2.264  17.100  0.2828  1.4076  0.5342
10794TIP3    H253874   1.522   2.369  16.991  0.1541  0.7105 -0.1382
10795TIP3   OH253875   0.403   6.086   0.438 -0.6314 -0.0982 -0.3617
10795TIP3    H153876   0.376   6.086   0.346  1.0657  0.0694 -0.8902
10795TIP3    H253877   0.488   6.041   0.439 -0.5821 -0.0413  1.1152
10796TIP3   OH253878   2.710   3.586  15.678  0.7747  0.4930 -0.6552
10796TIP3    H153879   2.684   3.626  15.595  0.3641 -0.7777 -1.1652
10796TIP3    H253880   2.630   3.544  15.711  1.3159 -0.4440 -0.4768
10797TIP3   OH253881   3.910   2.134   2.069 -0.8245  0.1022  0.2595
10797TIP3    H153882   3.893   2.145   1.976  0.9640 -1.5720 -0.3336
10797TIP3    H253883   3.984   2.192   2.087 -0.8543  0.0632  0.5223
10798TIP3   OH253884   6.109   1.245  16.771 -0.9407 -0.4369  0.9848
10798TIP3    H153885   6.074   1.208  16.852 -2.2049  0.9095  1.0911
10798TIP3    H253886   6.035   1.244  16.710 -0.4403  0.0249  0.3563
10799TIP3   OH253887   4.319   0.736   0.562  0.2110 -0.1373  0.3636
10799TIP3    H153888   4.323   0.820   0.517  2.8125  0.5631  1.7235
10799TIP3    H253889   4.301   0.758   0.653 -1.6183 -1.2949  0.3329
10800TIP3   OH253890   1.524   4.205  12.761  0.1711 -0.0452 -0.1457
10800TIP3    H153891   1.483   4.209  12.848  0.5867 -1.6988  0.1699
10800TIP3    H253892   1.578   4.283  12.756 -1.7327  1.3730  0.0748
10801TIP3   OH253893   1.561   5.098   1.357  0.0997 -0.1383 -0.0365
10801TIP3    H153894   1.648   5.079   1.389 -0.4122 -1.9574  0.3694
10801TIP3    H253895   1.514   5.133   1.433 -0.0689 -1.0093  0.2703
10802TIP3   OH253896   6.432   3.808  14.576  0.4058 -0.5073  0.1355
10802TIP3    H153897   6.390   3.723  14.565 -0.3916 -0.3228  1.6078
10802TIP3    H253898   6.409   3.856  14.496  0.6244 -1.5493 -0.5775
10803TIP3   OH253899   0.376   1.925   1.665  0.1868 -0.2415 -0.4696
10803TIP3    H153900   0.434   1.863   1.621 -1.6060 -2.4494  0.0883
10803TIP3    H253901   0.396   1.914   1.758 -0.6046 -0.5474 -0.3207
10804TIP3   OH253902   6.678   5.626   6.269 -0.4898  0.2450  0.1176
10804TIP3    H153903   6.698   5.720   6.271  0.3904  0.0855 -0.6679
10804TIP3    H253904   6.763   5.583   6.281 -1.0039 -0.4701  1.4012
10805TIP3   OH253905   3.050   3.443  12.691  0.5507 -0.4708 -0.5366
10805TIP3    H153906   3.046   3.490  12.608  1.5403 -2.0037 -1.5046
10805TIP3    H253907   3.101   3.500  12.749 -0.4172  0.7553 -0.8323
10806TIP3   OH253908   2.123   4.842   5.113  0.2750 -0.5621 -0.7719
10806TIP3    H153909   2.040   4.853   5.159 -1.2216  1.1018 -3.5305
10806TIP3    H253910   2.176   4.916   5.141 -0.1121 -0.2832 -0.7660
10807TIP3   OH253911   5.202   0.379   5.248 -0.0015  0.5304  0.0203
10807TIP3    H153912   5.273   0.436   5.276  2.1174 -1.6536 -0.5367
10807TIP3    H253913   5.218   0.366   5.154 -0.6186 -0.6339  0.0550
10808TIP3   OH253914   5.563   1.265  14.062 -0.4074  0.4763 -0.2417
10808TIP3    H153915   5.504   1.189  14.062 -1.3530  1.1985  0.0082
10808TIP3    H253916   5.564   1.295  14.152  1.0089 -0.0035 -0.0628
10809TIP3   OH253917   6.009   5.837  13.168  0.0615 -0.6139 -0.0013
10809TIP3    H153918   6.093   5.874  13.194  0.3201 -0.8813 -0.4497
10809TIP3    H253919   5.971   5.903  13.111  0.3557 -0.8669 -0.4970
10810TIP3   OH253920   3.662   5.237   3.457  0.5736 -0.2598  0.5861
10810TIP3    H153921   3.667   5.279   3.543  2.5190  0.5614  0.1297
10810TIP3    H253922   3.734   5.276   3.407 -1.4494  0.4732 -1.9717
10811TIP3   OH253923   2.965   5.738  12.633  0.0467 -0.7570 -0.3734
10811TIP3    H153924   3.046   5.782  12.610  0.2060 -0.6812  0.3123
10811TIP3    H253925   2.942   5.773  12.719 -2.3854  1.6359 -1.8217
10812TIP3   OH253926   3.631   0.429  11.365 -0.3554  0.1267  0.1998
10812TIP3    H153927   3.553   0.484  11.369 -1.2097 -1.0521  0.4534
10812TIP3    H253928   3.599   0.344  11.333  0.9837 -0.1088 -0.5806
10813TIP3   OH253929   0.638   2.121  16.404  0.2001  0.9959 -0.0499
10813TIP3    H153930   0.625   2.110  16.309 -1.6166 -0.9812  0.3487
10813TIP3    H253931   0.577   2.191  16.428 -0.2924  0.6247 -0.1831
10814TIP3   OH253932   4.766   2.345   1.473  0.5256 -0.1159 -0.4375
10814TIP3    H153933   4.753   2.435   1.502 -0.0725 -0.2844 -0.1470
10814TIP3    H253934   4.790   2.298   1.553  3.1933  0.1941 -0.9722
10815TIP3   OH253935   0.405   0.990   3.349  0.0663  0.2691  0.1586
10815TIP3    H153936   0.326   0.944   3.320 -0.0385  0.0172  0.8365
10815TIP3    H253937   0.402   1.074   3.303 -0.4209  0.1278 -0.0761
10816TIP3   OH253938   1.571   0.826  10.936 -0.5094  0.2273 -0.1522
10816TIP3    H153939   1.484   0.827  10.975 -0.5537 -0.5207 -0.2172
10816TIP3    H253940   1.570   0.751  10.877  0.5664 -0.5026  0.7255
10817TIP3   OH253941   4.349   5.048   6.004  0.0361 -0.0710 -0.5481
10817TIP3    H153942   4.350   5.006   6.090  3.0643  0.3478 -0.2925
10817TIP3    H253943   4.288   4.995   5.952  0.0428 -1.8285  1.1286
10818TIP3   OH253944   5.342   5.613   4.917 -0.1287  0.0031  0.5504
10818TIP3    H153945   5.408   5.544   4.910 -0.6064 -0.4221  0.1212
10818TIP3    H253946   5.283   5.597   4.843 -0.0574  1.0739  0.2515
10819TIP3   OH253947   3.179   5.373   5.649  0.1438  0.1522 -0.1886
10819TIP3    H153948   3.262   5.336   5.681  0.8414  0.5508 -1.4719
10819TIP3    H253949   3.176   5.461   5.685  0.2129  0.0980 -0.0480
10820TIP3   OH253950   3.859   1.257  12.348 -0.2469 -0.0063  0.0367
10820TIP3    H153951   3.804   1.241  12.426  0.0766  0.5629  0.3870
10820TIP3    H253952   3.946   1.273  12.384 -0.6113  3.1342 -0.2004
10821TIP3   OH253953   4.899   2.457  12.167 -0.1357  0.4376 -0.0488
10821TIP3    H153954   4.949   2.376  12.165  0.3784  0.7480  0.2187
10821TIP3    H253955   4.815   2.433  12.207  0.0056  0.0345  0.0021
10822TIP3   OH253956   3.012   0.586  14.382  0.3317  0.3293  0.0431
10822TIP3    H153957   2.970   0.619  14.303 -1.0578 -0.9740  0.1994
10822TIP3    H253958   3.015   0.491  14.370  2.0283  0.2594  0.6502
10823TIP3   OH253959   0.036   6.790   5.575 -0.3047 -0.3707 -0.0548
10823TIP3    H153960   0.115   6.843   5.583  0.0178 -1.0180  1.7199
10823TIP3    H253961   0.033   6.739   5.657 -3.1215  0.4159  0.4690
10824TIP3   OH253962   2.019   5.787  12.846 -0.1136 -0.1298  0.1963
10824TIP3    H153963   2.092   5.731  12.819  0.2455  0.1627  0.5518
10824TIP3    H253964   1.942   5.743  12.812  0.0337 -1.5920  1.6675
10825TIP3   OH253965   5.751   6.278  16.799 -0.1983  0.3132 -0.5697
10825TIP3    H153966   5.812   6.261  16.870 -0.5257  0.6519 -0.2045
10825TIP3    H253967   5.804   6.270  16.719  0.0930 -0.4074 -0.3127
10826TIP3   OH253968   2.934   3.490   3.842  0.3270  0.2323 -0.4045
10826TIP3    H153969   2.931   3.535   3.926  0.3698 -2.2940  1.0342
10826TIP3    H253970   2.868   3.535   3.788 -0.9958  0.7690  1.5626
10827TIP3   OH253971   1.730   3.513   0.508 -0.0185 -0.0829 -0.6974
10827TIP3    H153972   1.759   3.435   0.461  1.5225  0.4120 -0.6292
10827TIP3    H253973   1.792   3.581   0.481  0.7590  0.2904  1.7946
10828TIP3   OH253974   6.229   4.255  12.034 -0.3353  0.3206  0.8379
10828TIP3    H153975   6.183   4.204  12.100  0.1491  1.2129  1.8940
10828TIP3    H253976   6.161   4.308  11.993 -0.8587 -1.1656 -0.3234
10829TIP3   OH253977   2.476   6.788  15.885 -0.1424 -0.3825  0.3413
10829TIP3    H153978   2.539   6.831  15.942  0.9712 -0.0257 -1.1062
10829TIP3    H253979   2.451   6.855  15.821 -0.0956 -1.2093 -0.5817
10830TIP3   OH253980   0.105   6.419   3.184  0.0513  0.4643 -0.0982
10830TIP3    H153981   0.086   6.513   3.191 -0.9174  0.2513  0.3464
10830TIP3    H253982   0.018   6.377   3.185  0.3411 -0.3136 -2.3603
10831TIP3   OH253983   1.118   0.492   5.246  0.1638 -0.3458 -0.3329
10831TIP3    H153984   1.106   0.535   5.331 -0.8897 -0.4712 -0.4050
10831TIP3    H253985   1.201   0.446   5.254 -0.2477 -0.9364  0.9009
10832TIP3   OH253986   0.176   1.591   4.098  0.3706 -0.6423 -0.1535
10832TIP3    H153987   0.191   1.564   4.189  0.0587  0.8815  0.3849
10832TIP3    H253988   0.091   1.555   4.076  0.1768 -0.5321  0.3813
10833TIP3   OH253989   5.534   6.737   0.679  0.4956 -0.1123 -0.0103
10833TIP3    H153990   5.603   6.680   0.646  0.7533  1.0518 -1.6032
10833TIP3    H253991   5.514   6.795   0.606 -2.7461 -0.9154  0.0771
10834TIP3   OH253992   6.632   2.262  10.499 -0.5217 -0.4162  0.3436
10834TIP3    H153993   6.684   2.342  10.493 -1.6040  0.2665 -0.3198
10834TIP3    H253994   6.696   2.193  10.518  0.6705  0.3380 -0.7380
10835TIP3   OH253995   0.606   3.380   4.237 -0.2021  0.0462 -0.1917
10835TIP3    H153996   0.670   3.441   4.199 -0.8068  1.8347  1.4979
10835TIP3    H253997   0.651   3.343   4.314 -1.0193  1.0544  0.8068
10836TIP3   OH253998   1.947   6.654   5.167  0.3727  0.2608 -0.1423
10836TIP3    H153999   1.985   6.711   5.100  1.4853  1.7281  1.6689
10836TIP3    H254000   1.912   6.714   5.233  1.2271 -1.1344  1.6544
10837TIP3   OH254001   3.193   3.661  13.945  0.1861  0.1461  1.1517
10837TIP3    H154002   3.233   3.619  14.022 -0.9332 -2.4806  0.4064
10837TIP3    H254003   3.265   3.672  13.883  0.5427 -0.5004  1.4449
10838TIP3   OH254004   2.598   5.289  11.778 -0.1778  0.3639 -0.0064
10838TIP3    H154005   2.644   5.247  11.851 -1.3310 -0.5955  0.1980
10838TIP3    H254006   2.548   5.218  11.737 -0.5464  1.1443 -0.9445
10839TIP3   OH254007   1.697   2.577  13.892 -0.1253  0.5377  0.6949
10839TIP3    H154008   1.697   2.588  13.988  0.8597 -1.7582  1.0145
10839TIP3    H254009   1.609   2.546  13.872 -0.0329  0.0503  1.0119
10840TIP3   OH254010   4.244   5.080   4.728 -0.0048 -0.8173  0.2240
10840TIP3    H154011   4.171   5.039   4.775  0.0710 -1.1738  0.0337
10840TIP3    H254012   4.221   5.071   4.635 -0.9151  1.2464  0.1805
10841TIP3   OH254013   3.978   4.778   5.323 -0.1032  0.6662 -0.0026
10841TIP3    H154014   4.015   4.715   5.261  0.6625  3.1828 -2.3170
10841TIP3    H254015   4.031   4.769   5.402  0.7192 -0.7699 -0.6911
10842TIP3   OH254016   2.303   5.114   0.006 -0.2601  0.0288 -0.1978
10842TIP3    H154017   2.289   5.087   0.097  0.1975 -0.7498 -0.3456
10842TIP3    H254018   2.398   5.105  -0.007 -0.3992 -0.4397 -0.9282
10843TIP3   OH254019   0.170   6.492  15.504 -0.0135  0.9185  0.0597
10843TIP3    H154020   0.168   6.504  15.409  0.3807  1.1797  0.0848
10843TIP3    H254021   0.263   6.493  15.526  0.1848 -2.7114 -0.0052
10844TIP3   OH254022   5.093   1.332  15.383  0.2030 -0.2920 -0.3256
10844TIP3    H154023   5.039   1.329  15.462 -0.1778  1.2609 -0.4954
10844TIP3    H254024   5.180   1.304  15.412 -0.2228 -0.9013  0.3789
10845TIP3   OH254025   4.535   1.329   2.690  0.0174  0.8387  0.0346
10845TIP3    H154026   4.542   1.262   2.759 -1.0481 -1.0191 -1.5653
10845TIP3    H254027   4.622   1.330   2.650 -0.7108 -1.9895 -1.9317
10846TIP3   OH254028   6.304   0.433   4.443  0.7012  0.4644 -0.1373
10846TIP3    H154029   6.354   0.382   4.506  2.3035  0.8745 -0.9974
10846TIP3    H254030   6.294   0.519   4.484  0.9621  0.4622 -0.0636
10847TIP3   OH254031   4.357   4.065  11.505 -0.2624 -0.6193 -0.0488
10847TIP3    H154032   4.265   4.073  11.529  0.0104 -1.0464  1.2300
10847TIP3    H254033   4.390   3.996  11.562  1.3589  0.9796  1.0518
10848TIP3   OH254034   2.064   5.423  16.102 -0.1861  0.3798  0.3209
10848TIP3    H154035   2.040   5.331  16.117  2.3246 -0.8598 -2.1916
10848TIP3    H254036   1.982   5.467  16.083 -1.2201 -2.0335 -1.2467
10849TIP3   OH254037   3.372   4.842   5.642  1.0322 -0.1744  0.6048
10849TIP3    H154038   3.297   4.819   5.697  1.3760 -0.3119  1.0145
10849TIP3    H254039   3.333   4.858   5.555  0.7104 -1.9069  0.3865
10850TIP3   OH254040   2.323   6.231  15.182 -0.2973  0.5338 -0.0043
10850TIP3    H154041   2.376   6.176  15.124 -1.0283 -1.6977  1.3313
10850TIP3    H254042   2.340   6.196  15.269 -1.2205  2.1271  0.8451
10851TIP3   OH254043   4.919   0.770  12.394  0.1643  0.2341 -0.2403
10851TIP3    H154044   4.999   0.813  12.364  0.1127 -0.9295 -2.1875
10851TIP3    H254045   4.887   0.827  12.465  0.8778  2.6018 -1.6890
10852TIP3   OH254046   2.703   2.039   5.417 -0.0433  0.0378  0.2689
10852TIP3    H154047   2.641   1.967   5.429  0.1083  0.1229  1.8317
10852TIP3    H254048   2.787   2.002   5.445  0.2701  0.4540 -0.1126
10853TIP3   OH254049   4.822   1.017   1.021  0.4499 -0.5230 -0.0896
10853TIP3    H154050   4.767   1.068   0.962 -1.1577 -0.1827  1.5693
10853TIP3    H254051   4.838   0.935   0.975 -1.9089 -0.8290 -0.5085
10854TIP3   OH254052   1.059   2.322  12.492  0.1252  0.1010 -0.1384
10854TIP3    H154053   1.114   2.327  12.414 -0.1171  1.7602 -0.2476
10854TIP3    H254054   1.024   2.233  12.492 -0.6619  0.3491 -2.5095
10855TIP3   OH254055   2.248   2.319  14.158  0.2030  0.0677  0.8258
10855TIP3    H154056   2.231   2.398  14.209 -0.8820  1.8715 -2.1016
10855TIP3    H254057   2.170   2.308  14.104  0.1166 -3.3403  1.3963
10856TIP3   OH254058   1.559   4.669  16.387  0.3628 -0.3875  0.0706
10856TIP3    H154059   1.542   4.748  16.336  0.3219 -1.3334 -1.4734
10856TIP3    H254060   1.606   4.699  16.464  0.9530  1.0580 -0.8117
10857TIP3   OH254061   0.384   2.121   4.191 -0.0829  0.3278 -0.1824
10857TIP3    H154062   0.402   2.129   4.098 -0.5783 -1.3642 -0.4555
10857TIP3    H254063   0.299   2.163   4.203 -0.0286  0.5276 -0.4865
10858TIP3   OH254064   6.615   0.686   5.970  0.5128  0.2897  0.6349
10858TIP3    H154065   6.696   0.657   5.927  1.5441  1.1230  1.9596
10858TIP3    H254066   6.584   0.609   6.017  1.2755  0.3256  1.2070
10859TIP3   OH254067   1.435   0.598  15.054 -0.1281 -0.1031  0.7164
10859TIP3    H154068   1.527   0.626  15.055  0.1439 -0.6941 -1.5014
10859TIP3    H254069   1.439   0.503  15.062 -0.5085 -0.1591  0.2900
10860TIP3   OH254070   3.501   1.435  12.584 -0.1993 -0.0667 -0.8877
10860TIP3    H154071   3.493   1.491  12.507  1.3189  1.4862  0.0419
10860TIP3    H254072   3.479   1.492  12.658  0.2320 -1.0203 -0.0016
10861TIP3   OH254073   4.004   0.397  17.004 -0.1935  0.2632  0.1393
10861TIP3    H154074   3.973   0.360  17.087 -2.6430  0.0580 -0.8120
10861TIP3    H254075   3.945   0.361  16.938  0.9348  1.4043 -1.5568
10862TIP3   OH254076   5.280   1.047   0.059 -0.1489 -0.0731 -0.3047
10862TIP3    H154077   5.333   1.067   0.135 -0.0803 -1.3630  0.0140
10862TIP3    H254078   5.259   1.132   0.020  0.2324  0.5652  0.8602
10863TIP3   OH254079   6.444   6.274  13.204  0.6553  0.1383  0.2529
10863TIP3    H154080   6.466   6.210  13.136 -2.0448  0.1128 -0.6945
10863TIP3    H254081   6.363   6.314  13.174 -1.1184 -0.3809  3.8081
10864TIP3   OH254082   1.818   4.678   3.781  0.5146 -0.3167  0.4224
10864TIP3    H154083   1.833   4.600   3.835  1.0117  0.7808  1.9403
10864TIP3    H254084   1.737   4.715   3.815  0.1398 -0.3112 -0.4682
10865TIP3   OH254085   6.194   0.540  13.673 -0.6746 -0.7542 -0.0310
10865TIP3    H154086   6.107   0.502  13.687 -0.5311 -0.8487  0.6589
10865TIP3    H254087   6.231   0.548  13.761 -0.0846 -0.4748 -0.2964
10866TIP3   OH254088   4.420   1.396  11.669  0.1558  0.2415 -0.2164
10866TIP3    H154089   4.456   1.324  11.720 -0.3854  0.3376  0.3112
10866TIP3    H254090   4.496   1.435  11.626  0.2284 -2.1083 -2.4566
10867TIP3   OH254091   5.749   0.682   1.013 -0.1355 -0.2294 -0.3570
10867TIP3    H154092   5.842   0.680   1.037 -0.2264 -0.3354 -0.0065
10867TIP3    H254093   5.743   0.748   0.944  0.1512 -0.0023 -0.1661
10868TIP3   OH254094   6.443   3.900   2.429  0.0895 -0.1736  0.1338
10868TIP3    H154095   6.538   3.902   2.416 -0.0138 -0.2671 -0.7322
10868TIP3    H254096   6.431   3.923   2.521  0.7308  4.3641 -0.6805
10869TIP3   OH254097   1.753   0.460  11.197 -0.0428 -0.1385  0.2174
10869TIP3    H154098   1.760   0.556  11.204  2.6979 -0.2103 -0.2463
10869TIP3    H254099   1.682   0.446  11.133 -0.5371  1.5677  0.3407
10870TIP3   OH254100   2.213   5.537  11.893 -0.2372  0.2028 -0.1799
10870TIP3    H154101   2.277   5.552  11.824  0.5677  1.1158  0.7316
10870TIP3    H254102   2.221   5.613  11.951 -0.4892 -0.7932  1.2227
10871TIP3   OH254103   5.853   3.107  15.869 -0.0501  0.2725 -0.3659
10871TIP3    H154104   5.808   3.102  15.784 -2.0402  0.2971  0.6314
10871TIP3    H254105   5.848   3.018  15.904  0.7213  0.2707 -0.2564
10872TIP3   OH254106   5.790   0.618  14.386 -0.0877  0.4203  0.3395
10872TIP3    H154107   5.866   0.622  14.445 -0.0500 -2.3235  0.6227
10872TIP3    H254108   5.716   0.639  14.442  0.2374  0.8476  0.6217
10873TIP3   OH254109   6.715   4.666  13.473 -0.0695 -0.3322 -0.1358
10873TIP3    H154110   6.797   4.712  13.494 -0.3861 -0.1242  0.6797
10873TIP3    H254111   6.730   4.576  13.504 -0.0481 -0.3640 -0.2385
10874TIP3   OH254112   2.482   2.796  14.052 -0.3203  0.7148 -0.3552
10874TIP3    H154113   2.402   2.846  14.036 -0.2454  0.6536 -0.9136
10874TIP3    H254114   2.546   2.833  13.992 -0.0423  0.4786 -0.2058
10875TIP3   OH254115   2.254   5.628  15.952  0.0758  0.2477 -0.6992
10875TIP3    H154116   2.184   5.564  15.964  1.2995 -0.7522  1.6061
10875TIP3    H254117   2.270   5.664  16.039  3.2495 -0.5034 -0.8466
10876TIP3   OH254118   4.889   5.729   4.115 -0.4493  0.0211  0.0672
10876TIP3    H154119   4.957   5.782   4.072  0.3020 -1.3668 -0.5638
10876TIP3    H254120   4.913   5.638   4.093 -2.3468 -0.5302  0.0966
10877TIP3   OH254121   0.890   4.920   1.342 -0.2755  0.6341  0.3260
10877TIP3    H154122   0.901   5.012   1.322  0.3772  0.7270  1.0676
10877TIP3    H254123   0.878   4.878   1.256  0.5961  1.2517 -0.1207
10878TIP3   OH254124   3.118   5.570   5.892 -0.1796  0.0546 -0.2510
10878TIP3    H154125   3.059   5.624   5.945 -0.3374  0.2678 -0.6468
10878TIP3    H254126   3.130   5.490   5.944 -0.8611 -0.0164 -0.1929
10879TIP3   OH254127   0.140   6.695  15.755 -0.1634 -0.2618  0.4040
10879TIP3    H154128   0.066   6.669  15.701 -0.5797 -0.4380  1.0521
10879TIP3    H254129   0.216   6.654  15.714 -0.0848  1.5803 -1.4971
10880TIP3   OH254130   5.804   5.838  15.773  0.4741  0.5748  0.5245
10880TIP3    H154131   5.802   5.861  15.866  0.0533  3.2684 -0.0726
10880TIP3    H254132   5.713   5.841  15.745  0.7276  1.1633 -0.2668
10881TIP3   OH254133   6.550   6.184   0.671  0.8213  0.5192  0.4184
10881TIP3    H154134   6.500   6.144   0.742  1.1082 -2.3318 -0.8329
10881TIP3    H254135   6.485   6.225   0.615  0.0851 -0.9774  0.1258
10882TIP3   OH254136   6.781   0.200   1.699 -0.3269 -0.2243  0.1046
10882TIP3    H154137   6.809   0.121   1.653  1.3474 -0.6922  1.8178
10882TIP3    H254138   6.844   0.211   1.770 -0.3837  2.7622 -0.1686
10883TIP3   OH254139   6.576   3.146   5.335 -0.2575  0.4321 -0.2730
10883TIP3    H154140   6.513   3.192   5.391 -0.9344  1.0566 -1.4938
10883TIP3    H254141   6.661   3.173   5.369 -0.6413  0.4765  0.7049
10884TIP3   OH254142   5.424   4.448  16.166  0.2523 -0.1980  0.4718
10884TIP3    H154143   5.343   4.398  16.178 -1.1067  1.0082 -2.6126
10884TIP3    H254144   5.423   4.513  16.235 -1.2288 -0.4594  0.7326
10885TIP3   OH254145   4.664   6.401  11.361  0.4857  0.3920 -0.4412
10885TIP3    H154146   4.585   6.447  11.391 -0.8198 -1.5967 -0.6627
10885TIP3    H254147   4.646   6.380  11.270  0.0762 -2.3473  0.1847
10886TIP3   OH254148   5.770   3.260  13.937 -0.1238  0.0970  0.1161
10886TIP3    H154149   5.865   3.273  13.937 -0.1986  0.7110  0.7543
10886TIP3    H254150   5.733   3.349  13.933 -0.6600 -0.0351  1.4124
10887TIP3   OH254151   4.004   2.369  14.705  0.2066  0.2509 -0.2689
10887TIP3    H154152   4.021   2.280  14.673  2.1616  0.6666 -0.4919
10887TIP3    H254153   4.049   2.373  14.789 -0.8706  0.6876  0.3079
10888TIP3   OH254154   5.454   5.387  16.548  0.4033 -0.0563  0.1919
10888TIP3    H154155   5.468   5.335  16.469 -1.7626 -0.4843  0.0166
10888TIP3    H254156   5.542   5.405  16.581  1.3156 -1.0162 -1.5604
10889TIP3   OH254157   1.294   0.402   6.009  0.3071 -0.2046 -0.3304
10889TIP3    H154158   1.285   0.471   6.075 -0.9506 -0.4142 -0.2672
10889TIP3    H254159   1.217   0.411   5.954 -0.2102 -1.9572  0.0554
10890TIP3   OH254160   2.147   0.677   6.254  0.6555 -0.4056 -0.0857
10890TIP3    H154161   2.165   0.705   6.164  0.3476  0.7567  0.1983
10890TIP3    H254162   2.122   0.757   6.299  1.2377 -0.8972  1.1499
10891TIP3   OH254163   1.537   4.593  15.698  0.2370  0.1627 -0.1341
10891TIP3    H154164   1.610   4.636  15.744  0.9705 -1.5745  0.4107
10891TIP3    H254165   1.482   4.559  15.768 -1.0523  1.3378 -0.5487
10892TIP3   OH254166   2.986   4.012  15.433  0.1651 -0.4575 -0.1629
10892TIP3    H154167   3.025   4.097  15.411 -2.6138  1.0632  0.2877
10892TIP3    H254168   2.901   4.013  15.389 -2.2132 -0.6976  3.9158
10893TIP3   OH254169   6.805   4.522  16.427  0.1595  0.0455  0.0343
10893TIP3    H154170   6.798   4.606  16.382  2.5742 -0.4237 -1.4546
10893TIP3    H254171   6.798   4.456  16.357  1.2166 -0.8315  0.7015
10894TIP3   OH254172   6.435   5.914  13.763 -0.9797  0.2830  1.2514
10894TIP3    H154173   6.529   5.905  13.776 -0.5543 -0.7185 -1.6857
10894TIP3    H254174   6.421   6.008  13.754  0.4184  0.3293 -1.6158
10895TIP3   OH254175   6.081   4.175  11.488 -0.0724  0.6936 -0.1264
10895TIP3    H154176   6.146   4.207  11.426 -0.0332  0.0670 -0.4225
10895TIP3    H254177   6.127   4.169  11.571 -0.0081  1.1368 -0.1278
10896TIP3   OH254178   4.217   2.632  15.007  0.7176  0.3057 -0.1303
10896TIP3    H154179   4.172   2.548  15.020 -0.1624  0.9172  1.0125
10896TIP3    H254180   4.266   2.621  14.926  0.2080 -1.1361 -0.2737
10897TIP3   OH254181   5.943   4.067  16.474  0.2030 -0.4535  0.0019
10897TIP3    H154182   5.949   4.099  16.384 -0.0708  0.7004  0.3790
10897TIP3    H254183   5.887   3.989  16.468 -0.5855  0.1543 -0.7011
10898TIP3   OH254184   1.717   0.536   5.708  0.1468  0.0400 -0.2176
10898TIP3    H154185   1.705   0.461   5.650 -0.7207 -0.7013  0.8705
10898TIP3    H254186   1.763   0.501   5.784 -0.3483  0.5750  0.3496
10899TIP3   OH254187   6.618   3.884   5.365 -0.5178 -0.0816 -0.2059
10899TIP3    H154188   6.670   3.924   5.296  0.9271 -0.0552  0.8518
10899TIP3    H254189   6.620   3.948   5.437 -3.5707  0.7695 -0.7199
10900TIP3   OH254190   0.432   0.318   4.349 -0.0566  0.3413 -0.1850
10900TIP3    H154191   0.476   0.388   4.398  1.4875 -0.3752 -0.4864
10900TIP3    H254192   0.339   0.339   4.355  0.3986  2.8564 -0.9412
10901TIP3   OH254193   4.761   0.181   3.518  0.1403  0.1673 -0.1206
10901TIP3    H154194   4.815   0.259   3.532  1.4269 -0.1890 -2.5808
10901TIP3    H254195   4.680   0.215   3.479  0.7090  0.2983 -1.2098
10902TIP3   OH254196   5.230   3.404  13.118 -0.7792 -0.5275  0.0142
10902TIP3    H154197   5.200   3.456  13.044  0.6273  1.0499  0.4833
10902TIP3    H254198   5.260   3.469  13.182  0.9849 -1.8969  0.6587
10903TIP3   OH254199   1.817   5.307   5.324  0.5238  0.2781 -0.6835
10903TIP3    H154200   1.836   5.392   5.363 -1.4508  0.3184  0.3019
10903TIP3    H254201   1.898   5.257   5.336  0.7560  1.0484  1.3978
10904TIP3   OH254202   0.916   1.044  11.186 -0.1833 -0.2070 -0.3140
10904TIP3    H154203   0.917   1.138  11.202  0.8019 -0.1327 -0.7605
10904TIP3    H254204   0.975   1.031  11.112  0.4140 -1.2709  0.3208
10905TIP3   OH254205   5.526   3.752   5.232 -0.7416 -0.3986 -0.3549
10905TIP3    H154206   5.458   3.811   5.199 -0.5656  0.7507  1.1869
10905TIP3    H254207   5.558   3.796   5.311 -0.8570 -2.7584  1.0916
10906TIP3   OH254208   1.652   2.904   5.973 -0.0223 -0.2449 -0.2834
10906TIP3    H154209   1.739   2.882   6.005 -0.3854 -1.9063 -0.3654
10906TIP3    H254210   1.629   2.985   6.019  1.4373  0.0662 -0.0557
10907TIP3   OH254211   5.438   6.656  12.072 -0.5649  0.2643 -0.4890
10907TIP3    H154212   5.359   6.702  12.100  0.4925  1.9316 -0.1022
10907TIP3    H254213   5.448   6.584  12.134 -1.6919  0.1311 -0.4568
10908TIP3   OH254214   0.701   2.111   5.993  0.0347 -0.1159 -0.3539
10908TIP3    H154215   0.655   2.176   5.939  1.9093  1.5722 -0.0588
10908TIP3    H254216   0.633   2.070   6.046 -1.1900  1.9907 -0.1990
10909TIP3   OH254217   1.764   6.057  11.814  0.1784 -0.1256 -0.0923
10909TIP3    H154218   1.702   5.987  11.835  1.0783 -0.2489  2.5278
10909TIP3    H254219   1.711   6.137  11.812 -0.4147 -0.5235 -0.2717
10910TIP3   OH254220   5.627   3.623   1.610  0.2531 -0.4129 -0.3248
10910TIP3    H154221   5.577   3.550   1.575  0.9092 -0.4995 -1.1181
10910TIP3    H254222   5.562   3.679   1.653 -0.3523 -1.0854 -0.3481
10911TIP3   OH254223   5.862   3.637   1.119  0.4034  0.4992  0.7328
10911TIP3    H154224   5.850   3.639   1.213 -1.6036  1.2348  0.5049
10911TIP3    H254225   5.943   3.686   1.104  0.1186  1.4132  1.9964
10912TIP3   OH254226   0.971   3.364   4.192  0.0928  0.2091 -0.1985
10912TIP3    H154227   1.058   3.399   4.212 -0.3076  2.0379 -1.3898
10912TIP3    H254228   0.925   3.363   4.276  0.1828  2.5338 -0.0610
10913TIP3   OH254229   2.205   6.689  15.896 -0.4917 -0.2046  0.3265
10913TIP3    H154230   2.145   6.762  15.879 -1.4837 -1.3557 -1.4037
10913TIP3    H254231   2.291   6.730  15.905 -0.9044  1.1416 -1.3856
10914TIP3   OH254232   4.813   1.903   0.453 -0.1996  0.5039  0.3963
10914TIP3    H154233   4.758   1.939   0.384 -1.1932  1.2140  1.5293
10914TIP3    H254234   4.903   1.910   0.419 -0.7441 -0.3781 -1.3433
10915TIP3   OH254235   4.862   3.314  14.266 -0.1682  0.6409 -0.2548
10915TIP3    H154236   4.898   3.396  14.301 -0.4004  1.5779 -2.1000
10915TIP3    H254237   4.770   3.334  14.249  0.0188  0.3656 -1.7218
10916TIP3   OH254238   3.856   4.446  15.753  0.1114 -0.5390 -0.0578
10916TIP3    H154239   3.896   4.505  15.817 -1.2869  0.7488 -0.3110
10916TIP3    H254240   3.909   4.367  15.756  0.9734  0.0686  1.5937
10917TIP3   OH254241   5.959   5.346   0.902  0.4923 -0.0532  0.2220
10917TIP3    H154242   5.925   5.285   0.967 -0.2473  1.4338  1.3020
10917TIP3    H254243   5.906   5.332   0.824 -1.9556  1.4557  1.5197
10918TIP3   OH254244   5.198   5.876  12.154  0.1497  0.5716  0.2041
10918TIP3    H154245   5.129   5.813  12.130 -0.2998  0.6923  1.1260
10918TIP3    H254246   5.196   5.941  12.083  1.1424 -0.8240 -1.1779
10919TIP3   OH254247   5.578   2.091  15.094 -0.7900  0.5053 -0.2424
10919TIP3    H154248   5.655   2.090  15.036  1.1079 -1.9429  2.0558
10919TIP3    H254249   5.605   2.041  15.170 -5.0419 -1.3715  0.3223
10920TIP3   OH254250   5.935   6.400   3.128  0.5052  0.3392 -0.0332
10920TIP3    H154251   5.897   6.463   3.190 -0.2489  0.8974 -1.0448
10920TIP3    H254252   5.903   6.315   3.158  0.5387  0.5477  0.6194
10921TIP3   OH254253   0.984   1.423   1.291  0.3516  0.0665  0.6972
10921TIP3    H154254   1.028   1.493   1.338  2.6727 -0.0258 -1.1408
10921TIP3    H254255   1.042   1.403   1.218 -1.2486 -2.3597 -0.0401
10922TIP3   OH254256   4.013   3.886   3.680 -0.1470  0.4224  0.1672
10922TIP3    H154257   3.947   3.845   3.624  0.1710 -0.9662  0.7536
10922TIP3    H254258   3.987   3.864   3.769  0.7429  0.4103  0.4389
10923TIP3   OH254259   1.580   5.097  15.103 -0.2559  0.5184 -0.1462
10923TIP3    H154260   1.526   5.019  15.094 -0.4008  0.3200  1.9801
10923TIP3    H254261   1.558   5.151  15.027 -1.0097 -0.9772 -1.0263
10924TIP3   OH254262   3.241   2.170  14.074 -0.0692  0.1802  0.6439
10924TIP3    H154263   3.300   2.153  14.001  1.5275 -0.1422  1.9553
10924TIP3    H254264   3.204   2.256  14.055 -0.4439 -0.2978 -0.9950
10925TIP3   OH254265   2.748   6.825  15.421  0.2291  0.2358  0.1309
10925TIP3    H154266   2.753   6.734  15.450  0.3286  0.4435  0.7783
10925TIP3    H254267   2.817   6.870  15.470  0.5336  0.5575 -0.5843
10926TIP3   OH254268   1.335   2.888  16.089  0.2020 -0.1758  0.1239
10926TIP3    H154269   1.252   2.935  16.084  0.4052  0.1363 -0.3251
10926TIP3    H254270   1.348   2.873  16.183  0.1280  0.6472  0.2681
10927TIP3   OH254271   1.060   0.246  13.447  0.1263 -0.6811  0.6734
10927TIP3    H154272   1.063   0.186  13.522  1.4110 -2.3464 -0.6153
10927TIP3    H254273   1.118   0.318  13.471  2.2971 -2.2769  0.4833
10928TIP3   OH254274   6.126   1.483   1.012  0.3381  0.3200  0.6202
10928TIP3    H154275   6.111   1.467   0.919 -1.4217 -1.1818  1.1075
10928TIP3    H254276   6.176   1.565   1.014  0.0283  0.6394 -1.6065
10929TIP3   OH254277   6.236   1.369   4.302 -0.5074 -0.3804 -0.5313
10929TIP3    H154278   6.224   1.316   4.380 -0.4929 -1.2834 -1.1236
10929TIP3    H254279   6.238   1.306   4.230  2.6152  0.0817 -1.0067
10930TIP3   OH254280   5.271   1.774  12.735  0.0066 -0.4064  0.4513
10930TIP3    H154281   5.215   1.832  12.685  2.0272  1.2901  0.0538
10930TIP3    H254282   5.284   1.698  12.678 -1.5432 -0.6987  0.4242
10931TIP3   OH254283   5.394   4.947  16.860 -0.3517 -0.0067  0.5072
10931TIP3    H154284   5.342   4.945  16.940  0.2969 -1.1239  0.9231
10931TIP3    H254285   5.398   4.856  16.831  1.1821  0.0749  0.3698
10932TIP3   OH254286   4.342   1.374  11.990  0.3141  0.2536  0.2975
10932TIP3    H154287   4.259   1.377  11.944  1.2653  2.1616 -1.4312
10932TIP3    H254288   4.341   1.450  12.048  1.0659  0.6050 -0.1374
10933TIP3   OH254289   1.399   6.824  10.450 -0.5336 -0.5514 -0.3158
10933TIP3    H154290   1.466   6.789  10.392 -0.8125 -1.3153 -0.1924
10933TIP3    H254291   1.445   6.886  10.507  0.1762 -1.4690  0.1293
10934TIP3   OH254292   6.276   2.080   4.523  0.3378  0.5031 -0.3022
10934TIP3    H154293   6.243   2.007   4.471 -1.2027  0.9031  0.0626
10934TIP3    H254294   6.338   2.124   4.466 -1.7038  1.2589 -2.0526
10935TIP3   OH254295   0.063   4.173  13.799  0.3325 -0.5876  0.1145
10935TIP3    H154296   0.100   4.122  13.872  2.7400  0.1609 -0.4896
10935TIP3    H254297   0.004   4.112  13.755  0.8005 -1.8830  1.1908
10936TIP3   OH254298   6.463   6.143   6.393  0.4861 -0.1020  0.4351
10936TIP3    H154299   6.391   6.081   6.381  0.7848 -0.4373  0.3275
10936TIP3    H254300   6.510   6.109   6.469 -0.3260  0.9560  1.4477
10937TIP3   OH254301   1.828   4.212   5.471 -0.1185  0.2635  0.3728
10937TIP3    H154302   1.751   4.157   5.482  0.3566 -0.4486  0.2233
10937TIP3    H254303   1.811   4.260   5.390  0.0287 -0.6449 -0.2141
10938TIP3   OH254304   2.304   3.444   2.565 -0.3295  0.1577  0.5677
10938TIP3    H154305   2.258   3.483   2.490  0.6947 -0.6563 -0.5372
10938TIP3    H254306   2.314   3.352   2.540 -0.7915 -0.3401  2.1458
10939TIP3   OH254307   4.152   6.121  13.304 -0.2230 -0.7613  0.4306
10939TIP3    H154308   4.219   6.055  13.287 -0.5048 -0.5435 -1.8328
10939TIP3    H254309   4.158   6.181  13.231 -1.2918  0.6429  1.4288
10940TIP3   OH254310   6.371   4.988  13.430 -0.1073 -0.4707 -0.1392
10940TIP3    H154311   6.417   5.071  13.426  1.8962 -1.4100  1.4614
10940TIP3    H254312   6.435   4.923  13.401 -1.2092 -1.6058 -0.1439
10941TIP3   OH254313   0.473   5.332   3.690  0.7174 -0.3806  0.0563
10941TIP3    H154314   0.379   5.329   3.671  0.6903  1.5149 -0.2870
10941TIP3    H254315   0.479   5.311   3.784  0.2638 -3.3048 -0.4620
10942TIP3   OH254316   1.298   6.180   3.524 -0.1303 -0.3617  0.0372
10942TIP3    H154317   1.323   6.191   3.615  0.7329  0.2137 -0.2569
10942TIP3    H254318   1.202   6.185   3.524 -0.1064  0.1465  0.8440
10943TIP3   OH254319   0.794   1.279   0.792 -0.3873 -0.2009  0.4639
10943TIP3    H154320   0.832   1.206   0.841 -0.3533 -0.9219 -0.6255
10943TIP3    H254321   0.861   1.304   0.729 -0.6452  0.3610  0.4029
10944TIP3   OH254322   0.101   4.453  15.710 -0.3575  0.3583 -0.3720
10944TIP3    H154323   0.134   4.396  15.780  0.9220  1.4217 -0.0583
10944TIP3    H254324   0.017   4.486  15.744 -0.6091 -0.5177 -0.1161
10945TIP3   OH254325   2.905   1.806  11.509  0.3185  0.2241  0.2771
10945TIP3    H154326   2.870   1.885  11.550  0.0080  0.5547 -0.5932
10945TIP3    H254327   2.876   1.811  11.418  1.1073 -0.4094 -0.0313
10946TIP3   OH254328   5.769   6.451  13.217  0.0014  0.3298  0.0140
10946TIP3    H154329   5.782   6.535  13.260 -0.3359  1.0352 -1.2177
10946TIP3    H254330   5.676   6.431  13.229 -0.0977  0.5371 -0.3879
10947TIP3   OH254331   1.822   0.622   1.412 -0.1348  0.0959  0.6440
10947TIP3    H154332   1.761   0.626   1.338  0.1851 -1.4687  0.2435
10947TIP3    H254333   1.771   0.582   1.483  0.2683 -0.8298  0.4362
10948TIP3   OH254334   4.119   3.844   4.545  0.1039 -0.8202  0.7935
10948TIP3    H154335   4.084   3.933   4.554 -1.5804 -1.1790 -1.4402
10948TIP3    H254336   4.214   3.854   4.553  0.1547  1.5522 -1.5573
10949TIP3   OH254337   0.804   1.192   4.286 -0.1277 -0.2612  0.0430
10949TIP3    H154338   0.724   1.154   4.252  0.1303 -0.4640 -0.3429
10949TIP3    H254339   0.803   1.172   4.379 -1.1063  0.7647  0.2762
10950TIP3   OH254340   4.658   2.471  12.524 -0.5362 -0.3385  0.6078
10950TIP3    H154341   4.621   2.445  12.440  0.3729 -0.7964  0.3268
10950TIP3    H254342   4.610   2.549  12.549 -0.7647 -0.1480 -0.3788
10951TIP3   OH254343   5.346   1.166  13.818  0.2496 -0.8719  0.2917
10951TIP3    H154344   5.250   1.160  13.811  0.2491 -1.3547  0.6943
10951TIP3    H254345   5.379   1.090  13.770  0.4901  0.0492 -1.0600
10952TIP3   OH254346   3.237   2.235   5.358 -0.3268  0.7155 -0.7668
10952TIP3    H154347   3.302   2.195   5.416 -0.2758 -1.6334 -2.3034
10952TIP3    H254348   3.265   2.209   5.270 -3.0291  0.0602 -1.5150
10953TIP3   OH254349   0.213   4.409  15.097  0.4093  0.2664 -0.4764
10953TIP3    H154350   0.264   4.412  15.016  1.7467  1.5093  0.3797
10953TIP3    H254351   0.273   4.372  15.161 -0.2002  0.5319  0.2522
10954TIP3   OH254352   6.416   6.309  14.369  0.0413 -0.4011 -0.5205
10954TIP3    H154353   6.383   6.309  14.279 -1.3803  3.0252 -0.1648
10954TIP3    H254354   6.358   6.248  14.415  0.5803 -1.9467 -1.7824
10955TIP3   OH254355   4.541   6.243  11.677 -0.3160 -0.2945  0.2490
10955TIP3    H154356   4.534   6.208  11.588  0.0499  1.9979 -0.7594
10955TIP3    H254357   4.450   6.248  11.708 -0.9060  2.3551 -1.5279
10956TIP3   OH254358   0.502   5.233  11.823  0.5277  0.4915  0.3768
10956TIP3    H154359   0.481   5.291  11.750  0.4783  0.2866  0.2304
10956TIP3    H254360   0.483   5.145  11.791  0.6271  0.3910  0.5924
10957TIP3   OH254361   2.895   2.816  13.833 -0.6967  0.4362 -0.6384
10957TIP3    H154362   2.860   2.857  13.913  0.6644 -0.0318  0.2316
10957TIP3    H254363   2.876   2.879  13.764 -0.1911  1.7633  0.3885
10958TIP3   OH254364   0.797   1.702  15.197 -0.3003 -0.1864  0.4794
10958TIP3    H154365   0.781   1.673  15.287  1.2519 -3.8809 -0.2600
10958TIP3    H254366   0.874   1.759  15.203  1.0358 -2.0148  1.3441
10959TIP3   OH254367   5.767   6.233   0.211  0.1636  0.0312  0.0146
10959TIP3    H154368   5.781   6.325   0.188 -1.1621  0.2094 -0.1444
10959TIP3    H254369   5.712   6.236   0.289  1.2368 -0.6291  0.8303
10960TIP3   OH254370   4.409   4.930   5.593  0.6409 -0.2579  0.1153
10960TIP3    H154371   4.438   4.925   5.685 -0.3095  0.6586  0.4808
10960TIP3    H254372   4.444   4.850   5.553 -1.3261 -2.1587  1.9465
10961TIP3   OH254373   6.564   0.910   5.342  0.4546  0.2806 -0.7707
10961TIP3    H154374   6.633   0.975   5.354 -0.1859  0.8357  0.0472
10961TIP3    H254375   6.596   0.833   5.390  1.1609  0.0220 -1.6422
10962TIP3   OH254376   3.665   5.039  13.475 -0.3177 -0.1005 -0.0059
10962TIP3    H154377   3.640   5.092  13.399  0.6714 -0.1318 -0.3700
10962TIP3    H254378   3.594   5.052  13.538 -1.7013 -0.9150 -1.3293
10963TIP3   OH254379   0.879   3.073  11.773 -0.3872  0.5677  0.0454
10963TIP3    H154380   0.839   3.135  11.835 -0.5497  0.2754  0.2361
10963TIP3    H254381   0.909   3.127  11.700  3.2708  1.5235  2.0064
10964TIP3   OH254382   1.532   6.832  12.830 -0.5203 -0.2499  0.0472
10964TIP3    H154383   1.594   6.814  12.900  0.4745 -0.0883 -0.7627
10964TIP3    H254384   1.460   6.772  12.845  0.9385 -2.2222 -0.3574
10965TIP3   OH254385   1.995   4.863   1.280 -0.1019 -0.0614  0.0019
10965TIP3    H154386   2.005   4.769   1.266  0.5863 -0.1243  0.8045
10965TIP3    H254387   2.065   4.903   1.227 -1.6986  0.1682 -2.0344
10966TIP3   OH254388   2.190   2.697  12.272 -0.3549 -0.2371  0.3203
10966TIP3    H154389   2.187   2.636  12.345 -0.3801 -0.1049  0.4305
10966TIP3    H254390   2.107   2.745  12.277 -0.1419  0.1160  0.5040
10967TIP3   OH254391   6.017   3.700  12.295  0.1858  0.1383 -0.3049
10967TIP3    H154392   5.978   3.621  12.334 -1.1511  0.4776 -0.8933
10967TIP3    H254393   6.027   3.760  12.368 -2.3498  0.7857 -0.3991
10968TIP3   OH254394   4.718   5.561   4.540  0.9441 -0.2802 -0.0494
10968TIP3    H154395   4.770   5.488   4.506  1.3123  0.2703 -0.6914
10968TIP3    H254396   4.733   5.632   4.478  0.7449  0.4090  0.6766
10969TIP3   OH254397   1.197   5.279  15.930  0.0932  0.5269  0.5623
10969TIP3    H154398   1.141   5.356  15.938  0.6043  0.9592  0.0996
10969TIP3    H254399   1.152   5.211  15.980 -0.1756  1.2295  1.2994
10970TIP3   OH254400   0.591   6.783  16.844 -0.1852  0.1576  0.0728
10970TIP3    H154401   0.678   6.819  16.833  0.6932 -1.9190 -0.2981
10970TIP3    H254402   0.595   6.736  16.928 -1.4199  1.2589  0.7820
10971TIP3   OH254403   3.177   2.223  15.923  0.6617  0.3450  0.5608
10971TIP3    H154404   3.165   2.281  15.998 -0.0693 -0.0779  0.7790
10971TIP3    H254405   3.241   2.268  15.867 -0.1776  1.5399  0.5331
10972TIP3   OH254406   1.722   0.251   3.163 -0.1029  0.6633  0.8474
10972TIP3    H154407   1.766   0.291   3.088  0.9336  2.0095  2.1263
10972TIP3    H254408   1.761   0.164   3.171 -1.3735 -0.1565 -1.1015
10973TIP3   OH254409   5.006   5.971   2.544 -0.5042  0.4094 -0.2520
10973TIP3    H154410   5.007   5.885   2.586  1.1575 -0.2526 -1.5261
10973TIP3    H254411   5.090   6.010   2.567 -0.3532  0.8053 -1.3910
10974TIP3   OH254412   4.499   3.111  14.588  0.1774 -0.6102  0.1490
10974TIP3    H154413   4.589   3.128  14.615 -0.4840  1.0402  1.5465
10974TIP3    H254414   4.448   3.119  14.668 -1.2956 -0.8464 -0.7258
10975TIP3   OH254415   4.079   1.931   5.425  0.3651  0.2261  0.3670
10975TIP3    H154416   4.111   1.963   5.509  0.4386  1.1882 -0.0094
10975TIP3    H254417   4.069   1.836   5.437 -0.3254  0.4384  1.6731
10976TIP3   OH254418   2.016   5.122  13.864  0.3728  0.1199  0.4684
10976TIP3    H154419   2.041   5.030  13.877  1.3373  0.5982  2.3762
10976TIP3    H254420   1.984   5.126  13.774  1.0219 -1.9247  0.1025
10977TIP3   OH254421   5.375   5.600  12.166 -0.1488  0.4747  0.5131
10977TIP3    H154422   5.404   5.509  12.158 -1.1526  0.0363  1.5855
10977TIP3    H254423   5.323   5.616  12.088  0.6243  0.3639 -0.0309
10978TIP3   OH254424   3.340   0.777  15.138  0.0110  0.6393 -0.2656
10978TIP3    H154425   3.422   0.798  15.182  0.0906  3.2345 -1.5220
10978TIP3    H254426   3.360   0.699  15.087  1.3169  0.4969  0.4071
10979TIP3   OH254427   5.923   2.761  15.460  0.0841  0.2229 -0.2914
10979TIP3    H154428   6.005   2.720  15.489  1.0511  1.8356 -0.5849
10979TIP3    H254429   5.858   2.733  15.524  1.3111  0.5304  1.1596
10980TIP3   OH254430   4.693   1.749   4.013  0.0890 -0.0740  0.0860
10980TIP3    H154431   4.704   1.765   4.107 -1.3503 -0.6516  0.3704
10980TIP3    H254432   4.604   1.778   3.994  0.4945  0.4102 -1.1995
10981TIP3   OH254433   2.369   6.248   2.152  0.2025  0.0098  0.2294
10981TIP3    H154434   2.392   6.334   2.188  0.5380  0.2507 -0.5440
10981TIP3    H254435   2.348   6.195   2.229 -1.4818  1.1980  0.6514
10982TIP3   OH254436   4.333   4.706  14.798 -0.4709  0.2351  1.0895
10982TIP3    H154437   4.409   4.722  14.742 -0.0832 -2.9593  0.4815
10982TIP3    H254438   4.267   4.768  14.769  0.9643  1.1667 -0.3263
10983TIP3   OH254439   5.117   5.955  16.434  0.3300  0.1364 -0.3190
10983TIP3    H154440   5.207   5.965  16.402  0.9773 -2.2527  0.5892
10983TIP3    H254441   5.096   5.863  16.418 -1.5521  0.3837  0.5424
10984TIP3   OH254442   3.190   1.080  15.672 -0.2264  0.2037  0.5280
10984TIP3    H154443   3.205   1.130  15.752 -0.4323  1.4887 -0.1957
10984TIP3    H254444   3.256   1.112  15.611  0.9159 -1.8520  0.6188
10985TIP3   OH254445   1.600   0.800   5.747  0.1538 -0.4586  0.6256
10985TIP3    H154446   1.649   0.729   5.704  0.4513  0.8177 -1.2706
10985TIP3    H254447   1.610   0.783   5.841  1.2747 -2.2068  0.2346
10986TIP3   OH254448   0.497   4.818   4.322  0.0055 -0.0619  0.2657
10986TIP3    H154449   0.544   4.900   4.338  1.0840 -0.5285 -0.4198
10986TIP3    H254450   0.564   4.758   4.290 -0.7615 -1.2318  0.7919
10987TIP3   OH254451   3.564   0.609  13.870 -0.2424  0.2804  0.2164
10987TIP3    H154452   3.604   0.694  13.854  0.6976 -0.2944 -0.5781
10987TIP3    H254453   3.633   0.556  13.910 -0.3224 -0.5883 -0.7593
10988TIP3   OH254454   1.376   0.430   2.854 -0.0434  0.1319 -0.2390
10988TIP3    H154455   1.446   0.454   2.914 -0.6283 -0.6462  0.7736
10988TIP3    H254456   1.296   0.456   2.899 -0.5100 -0.7960 -0.5231
10989TIP3   OH254457   3.872   3.514  11.666  0.2806 -0.1298  0.1134
10989TIP3    H154458   3.831   3.594  11.699 -1.7729 -0.6755 -0.9537
10989TIP3    H254459   3.904   3.537  11.580  1.2362 -0.0172  0.4899
10990TIP3   OH254460   4.102   4.441  13.438 -0.6664  0.0581 -0.7752
10990TIP3    H154461   4.058   4.393  13.509  1.2556  2.3928  2.2301
10990TIP3    H254462   4.040   4.510  13.414 -0.7137  0.2219 -0.2069
10991TIP3   OH254463   0.173   5.172   2.968 -0.0597 -0.6408 -0.8108
10991TIP3    H154464   0.126   5.105   2.919 -1.3835 -0.0007 -0.4606
10991TIP3    H254465   0.151   5.154   3.060 -0.2243  0.1314 -0.6990
10992TIP3   OH254466   1.079   2.212   0.689 -0.1580 -0.2098  0.0043
10992TIP3    H154467   1.121   2.181   0.769  0.9161  1.0123 -0.0591
10992TIP3    H254468   1.120   2.162   0.619  0.7470  0.5131  0.0025
10993TIP3   OH254469   5.289   6.512   2.238 -0.0350 -0.4637  0.2803
10993TIP3    H154470   5.223   6.515   2.306  0.5246 -0.2414  0.8236
10993TIP3    H254471   5.359   6.569   2.270  0.7117 -1.2140  0.0242
10994TIP3   OH254472   1.744   0.874  15.651  0.1425  0.4278  0.0454
10994TIP3    H154473   1.718   0.848  15.740 -0.6826 -0.5152 -0.4587
10994TIP3    H254474   1.832   0.911  15.663  0.1520  0.0877  1.2215
10995TIP3   OH254475   3.193   2.591  11.159  0.9560 -0.3671  0.1880
10995TIP3    H154476   3.274   2.540  11.158  1.2581  0.0987  0.6147
10995TIP3    H254477   3.132   2.540  11.106  1.7626 -0.3283 -0.8153
10996TIP3   OH254478   1.654   0.241  13.527 -0.3217 -0.9511  0.1128
10996TIP3    H154479   1.688   0.200  13.606  0.9384  0.7721  0.5322
10996TIP3    H254480   1.726   0.296  13.496 -2.5995  2.8704  0.9854
10997TIP3   OH254481   1.911   2.159   1.429  0.4714 -0.5912 -0.0081
10997TIP3    H154482   1.820   2.176   1.406 -0.5254 -1.8570  2.5051
10997TIP3    H254483   1.918   2.188   1.520  1.7271 -3.1099  0.7893
10998TIP3   OH254484   6.280   4.327   4.708 -0.0415  0.2129 -0.3819
10998TIP3    H154485   6.294   4.261   4.775 -2.7180 -2.5804 -2.3137
10998TIP3    H254486   6.188   4.319   4.685  0.6001  1.3446 -3.9882
10999TIP3   OH254487   4.158   6.695  11.788  0.4342 -0.3297 -0.3153
10999TIP3    H154488   4.069   6.708  11.757  0.7666 -1.3152 -1.7643
10999TIP3    H254489   4.202   6.778  11.771 -0.6953  0.9491  2.4117
11000TIP3   OH254490   2.098   4.677   5.935 -0.4581 -0.1525  0.1244
11000TIP3    H154491   2.028   4.621   5.901 -1.2905  0.0836  1.3978
11000TIP3    H254492   2.109   4.650   6.026 -0.8834  1.7042  0.7900
11001TIP3   OH254493   2.753   3.111   3.930  0.1656 -0.6480  0.2779
11001TIP3    H154494   2.739   3.155   4.014 -2.2664  1.7262 -1.2026
11001TIP3    H254495   2.768   3.181   3.867  0.3381 -2.2329 -1.5589
11002TIP3   OH254496   0.909   0.567  12.982  0.0735  0.2298  0.2556
11002TIP3    H154497   0.929   0.591  13.073 -3.2251  0.2247  1.0910
11002TIP3    H254498   0.941   0.477  12.974 -0.2268 -0.0242  1.6585
11003TIP3   OH254499   5.185   3.314  11.902 -0.5898  0.6195  0.0706
11003TIP3    H154500   5.130   3.297  11.979 -0.9107 -1.2852 -0.5377
11003TIP3    H254501   5.234   3.393  11.926 -1.5680  0.7913  1.7278
11004TIP3   OH254502   0.059   5.827   5.328  0.1871 -0.1515 -0.4704
11004TIP3    H154503   0.047   5.815   5.233 -0.6794 -0.9829 -0.2720
11004TIP3    H254504   0.145   5.868   5.336  0.9701 -1.4886 -1.5398
11005TIP3   OH254505   6.541   0.574   6.401 -0.0966 -0.2402 -0.2386
11005TIP3    H154506   6.466   0.594   6.457 -1.8147 -0.2038 -2.3744
11005TIP3    H254507   6.518   0.492   6.358  0.8311  0.0308 -1.3323
11006TIP3   OH254508   2.646   3.174  13.719 -0.6950 -0.4123  0.0503
11006TIP3    H154509   2.593   3.182  13.798  0.0815  0.0091  0.5484
11006TIP3    H254510   2.654   3.263  13.686  2.3497  0.1359  1.8182
11007TIP3   OH254511   0.702   4.243   4.639  0.0297 -0.4887 -0.4037
11007TIP3    H154512   0.662   4.162   4.667 -1.9083  0.1836 -1.0461
11007TIP3    H254513   0.710   4.234   4.544 -0.2292  0.0684 -0.4833
11008TIP3   OH254514   1.048   6.383  11.438 -0.7926 -0.3308 -0.2385
11008TIP3    H154515   0.999   6.416  11.363  0.3578 -0.2342 -0.9688
11008TIP3    H254516   1.008   6.427  11.514 -3.3645 -2.0020 -0.4905
11009TIP3   OH254517   6.715   5.827  15.469 -0.1432 -0.4366 -0.4535
11009TIP3    H154518   6.693   5.760  15.533  0.6645  0.3905  0.7448
11009TIP3    H254519   6.734   5.905  15.522  1.1047  0.1191 -1.6451
11010TIP3   OH254520   0.156   3.556  12.117 -0.1142  0.0432 -0.4100
11010TIP3    H154521   0.107   3.638  12.108 -0.4167  0.2341  2.2800
11010TIP3    H254522   0.234   3.580  12.167 -1.5219 -1.6309  2.9150
11011TIP3   OH254523   2.213   4.725   4.326 -0.4433 -0.0273  0.1386
11011TIP3    H154524   2.156   4.653   4.298  1.6684 -2.3523  1.4325
11011TIP3    H254525   2.252   4.758   4.245 -0.0065 -1.6577 -0.3494
11012TIP3   OH254526   2.132   0.834  14.548 -0.3369  0.1369  0.5396
11012TIP3    H154527   2.046   0.875  14.537 -0.9954 -0.9866  1.2824
11012TIP3    H254528   2.182   0.864  14.473 -1.0027  1.7260  0.6841
11013TIP3   OH254529   2.189   0.317   2.207  0.4888 -0.0841  0.7804
11013TIP3    H154530   2.235   0.401   2.211  2.4600 -1.0398 -0.3866
11013TIP3    H254531   2.250   0.255   2.246 -0.9597 -1.0050  1.6598
11014TIP3   OH254532   2.291   4.549   6.113  0.0854 -0.0826  0.0139
11014TIP3    H154533   2.372   4.588   6.146  0.3260 -0.4752 -0.1145
11014TIP3    H254534   2.310   4.530   6.021 -0.0895 -0.3523  0.0347
11015TIP3   OH254535   1.114   0.600  12.727  0.7137 -0.3081 -0.0529
11015TIP3    H154536   1.195   0.551  12.710  0.5881 -0.2801 -0.7767
11015TIP3    H254537   1.053   0.533  12.758  0.8392 -0.4335 -0.0707
11016TIP3   OH254538   0.117   4.847  16.839  0.0701 -0.0316 -0.5132
11016TIP3    H154539   0.114   4.916  16.773 -0.3965 -0.3295 -0.8164
11016TIP3    H254540   0.113   4.766  16.788 -1.1619 -0.2583 -0.0975
11017TIP3   OH254541   3.410   0.830  11.685 -0.2818 -0.1267  0.0183
11017TIP3    H154542   3.330   0.779  11.696 -0.2022 -0.3821 -0.5150
11017TIP3    H254543   3.409   0.893  11.757 -0.9655 -0.1167  0.0054
11018TIP3   OH254544   0.253   6.061   2.088  0.4270  0.0762 -0.2660
11018TIP3    H154545   0.266   6.116   2.011 -0.2174  1.7618  0.7741
11018TIP3    H254546   0.212   5.981   2.054  0.9693  0.3959 -1.7568
11019TIP3   OH254547   3.010   2.325  14.463  0.0596  0.0567  0.3403
11019TIP3    H154548   2.973   2.258  14.522  0.6555 -0.7606 -0.1911
11019TIP3    H254549   3.007   2.283  14.377 -0.1436  0.9730 -0.1015
11020TIP3   OH254550   3.081   0.498  12.887 -0.2166  0.0170 -0.3208
11020TIP3    H154551   3.118   0.527  12.970  1.6067  1.2987 -1.4886
11020TIP3    H254552   3.038   0.576  12.852 -1.3038 -0.6146 -0.4284
11021TIP3   OH254553   6.684   4.396  13.510 -0.0661  0.0777  0.4845
11021TIP3    H154554   6.622   4.360  13.573  1.5108 -2.0433  0.9044
11021TIP3    H254555   6.729   4.320  13.474  2.1874  1.5200  0.0837
11022TIP3   OH254556   1.759   4.934   2.316 -0.4221 -0.1905  0.1642
11022TIP3    H154557   1.830   4.883   2.355 -1.0582  0.3361  2.1633
11022TIP3    H254558   1.711   4.872   2.261  0.6830 -0.9215  0.0021
11023TIP3   OH254559   2.876   0.773   4.198  0.0987 -0.3655  0.2100
11023TIP3    H154560   2.877   0.782   4.103 -1.3148  0.7369  0.2419
11023TIP3    H254561   2.945   0.710   4.218  2.2223  1.3112 -1.3294
11024TIP3   OH254562   5.537   6.773   5.077 -0.2328 -0.5968 -0.3624
11024TIP3    H154563   5.599   6.773   5.150 -0.7700 -2.0493  0.1435
11024TIP3    H254564   5.591   6.787   5.000  0.2339  2.0181  0.3538
11025TIP3   OH254565   1.686   3.914  12.886  0.4956 -0.4367 -0.6618
11025TIP3    H154566   1.643   3.999  12.891  0.9716 -0.0776 -2.1726
11025TIP3    H254567   1.760   3.920  12.946  0.2808  0.0398 -0.4388
11026TIP3   OH254568   6.179   1.296  12.418 -0.2562  0.8664 -1.0531
11026TIP3    H154569   6.128   1.322  12.341  1.1249  0.7112 -2.0506
11026TIP3    H254570   6.270   1.314  12.394  0.3634 -0.8150 -0.1145
11027TIP3   OH254571   6.815   5.766   3.055 -0.3228  0.2503  0.1860
11027TIP3    H154572   6.897   5.797   3.016 -0.4243  1.3139  0.7706
11027TIP3    H254573   6.840   5.741   3.145 -0.0381 -2.3985 -0.5474
11028TIP3   OH254574   2.337   4.337   4.696 -0.0243  0.0708 -0.5801
11028TIP3    H154575   2.358   4.258   4.746 -0.6705 -0.5095 -1.2061
11028TIP3    H254576   2.315   4.402   4.763 -1.9220 -0.9860 -0.0876
11029TIP3   OH254577   4.466   0.936   0.933  0.1810 -0.3597  0.2194
11029TIP3    H154578   4.374   0.935   0.906  0.0415  0.2340  0.6371
11029TIP3    H254579   4.462   0.951   1.027  0.7406  1.7871 -0.0568
11030TIP3   OH254580   3.319   4.714  12.857 -0.3003 -0.7366  0.6225
11030TIP3    H154581   3.265   4.747  12.928 -0.8774 -0.9138  0.2729
11030TIP3    H254582   3.264   4.723  12.779  0.1974 -0.8619  0.2531
11031TIP3   OH254583   1.844   4.487   2.011  0.0891 -0.5013 -0.1989
11031TIP3    H154584   1.845   4.407   2.064  0.1613 -0.6412 -0.4131
11031TIP3    H254585   1.936   4.509   1.998  0.1127  0.9018  1.7902
11032TIP3   OH254586   1.731   2.066  10.982 -0.0424  0.1477  0.5243
11032TIP3    H154587   1.734   2.138  11.045 -0.0400  2.0214 -1.4859
11032TIP3    H254588   1.654   2.015  11.007 -1.3593  2.1338  0.7181
11033TIP3   OH254589   3.149   1.539  13.743 -0.5864 -0.4704  0.0683
11033TIP3    H154590   3.183   1.488  13.818 -0.3089 -0.4208 -0.0256
11033TIP3    H254591   3.098   1.609  13.784  0.7929  0.4633  0.2671
11034TIP3   OH254592   5.797   0.795  13.615  0.2637  0.6866  0.0552
11034TIP3    H154593   5.801   0.705  13.583  1.5896  0.7366  0.0297
11034TIP3    H254594   5.725   0.795  13.678 -1.6420  0.3276 -2.0265
11035TIP3   OH254595   4.311   2.611  16.799  0.1678  0.0965  0.6208
11035TIP3    H154596   4.237   2.564  16.838 -0.0768  0.2081  0.2929
11035TIP3    H254597   4.275   2.696  16.774  0.3468  0.0645  0.2432
11036TIP3   OH254598   5.392   3.688   3.996  0.0386  0.0901  0.0080
11036TIP3    H154599   5.401   3.784   3.992 -1.3200  0.1939 -1.0118
11036TIP3    H254600   5.299   3.672   3.981  0.5020 -1.4847 -1.4254
11037TIP3   OH254601   5.142   4.111  15.824 -0.3650 -0.4196 -0.2177
11037TIP3    H154602   5.156   4.206  15.826  0.3621 -0.5164 -0.4588
11037TIP3    H254603   5.061   4.098  15.873 -1.2950  0.4781 -1.4173
11038TIP3   OH254604   1.332   0.895  11.873 -0.0514 -0.3925 -0.0771
11038TIP3    H154605   1.388   0.949  11.817 -0.4168 -1.0095 -1.0491
11038TIP3    H254606   1.260   0.952  11.897  0.2217 -0.0566 -0.0413
11039TIP3   OH254607   6.577   1.284  16.306 -0.1495  0.6953 -0.4667
11039TIP3    H154608   6.503   1.337  16.276 -0.2409  1.6544  1.3274
11039TIP3    H254609   6.542   1.234  16.380  0.4240 -0.5715 -1.0034
11040TIP3   OH254610   5.769   3.214   5.046  0.6304 -0.0277 -0.5312
11040TIP3    H154611   5.776   3.126   5.083  1.2757 -0.3189 -1.3166
11040TIP3    H254612   5.744   3.200   4.954  4.2981  0.3487 -1.7611
11041TIP3   OH254613   6.570   1.673   1.968 -0.1363  0.2234  0.1034
11041TIP3    H154614   6.491   1.676   1.914  0.2752 -0.0390 -0.5198
11041TIP3    H254615   6.628   1.611   1.923  0.3819  0.3316  0.6124
11042TIP3   OH254616   5.665   1.018  10.853 -0.2432 -0.4149  0.9157
11042TIP3    H154617   5.614   0.983  10.926 -1.3456  2.1689  1.5148
11042TIP3    H254618   5.752   1.035  10.890  0.0377 -1.6329  0.8445
11043TIP3   OH254619   5.643   6.474   4.989 -0.0198  0.0161  0.3395
11043TIP3    H154620   5.628   6.553   4.936  2.1500  1.5221  1.7821
11043TIP3    H254621   5.721   6.434   4.951  0.3943  0.0155  1.1767
11044TIP3   OH254622   0.202   4.664   0.924 -0.1031  0.9892 -0.8340
11044TIP3    H154623   0.257   4.743   0.926 -0.1071  0.9852  0.1528
11044TIP3    H254624   0.120   4.691   0.965  0.9546 -0.2364  2.4610
11045TIP3   OH254625   0.772   2.772   3.595 -0.6166  0.1506 -0.0838
11045TIP3    H154626   0.800   2.711   3.663  0.1804  0.1281 -0.4119
11045TIP3    H254627   0.782   2.723   3.514  0.3948  0.8242 -0.3863
11046TIP3   OH254628   2.456   0.068  11.818  0.2618 -0.1639  0.2191
11046TIP3    H154629   2.523   0.132  11.794  0.2500  0.1623  1.0458
11046TIP3    H254630   2.407   0.109  11.888 -0.4528 -0.6357  0.0026
11047TIP3   OH254631   4.363   1.984  11.975 -0.3098 -0.2948 -0.3923
11047TIP3    H154632   4.376   1.898  11.936  1.0498  0.5863 -2.0382
11047TIP3    H254633   4.271   2.005  11.956 -0.3361 -0.9081 -1.0092
11048TIP3   OH254634   5.255   2.255  13.232 -0.1899  0.5377  0.2678
11048TIP3    H154635   5.172   2.207  13.225  0.4727 -0.4824 -0.9701
11048TIP3    H254636   5.263   2.301  13.149  2.3573 -2.6200 -1.4847
11049TIP3   OH254637   3.347   1.324   5.288  0.1327 -0.5927  0.4602
11049TIP3    H154638   3.407   1.250   5.290 -1.2587 -1.7853  3.1414
11049TIP3    H254639   3.404   1.401   5.295  1.4626 -1.5016  0.1036
11050TIP3   OH254640   6.463   4.158  14.915  0.3490 -0.0552 -0.4595
11050TIP3    H154641   6.423   4.232  14.961  0.8400 -0.5637  0.8153
11050TIP3    H254642   6.407   4.145  14.838 -0.2064  1.1223 -0.2782
11051TIP3   OH254643   1.233   0.727  12.992  0.1894 -0.4227 -0.0618
11051TIP3    H154644   1.290   0.799  12.963 -1.3323  0.8412 -0.1017
11051TIP3    H254645   1.207   0.683  12.911 -1.0018  0.7128 -0.3438
11052TIP3   OH254646   5.387   3.039  15.360 -0.2628 -0.3949  0.2843
11052TIP3    H154647   5.310   3.089  15.388  0.0303  1.4380 -1.8497
11052TIP3    H254648   5.359   2.948  15.363 -2.3015  0.1704  0.2359
11053TIP3   OH254649   0.447   1.754  11.987 -0.9812 -0.2580 -0.5553
11053TIP3    H154650   0.427   1.845  11.963  0.4774 -0.4458 -2.8103
11053TIP3    H254651   0.366   1.721  12.025 -1.1720  2.3415  1.6989
11054TIP3   OH254652   3.047   0.066  15.864  0.7001 -0.1381  0.3852
11054TIP3    H154653   3.025   0.150  15.822 -2.7599 -1.6296 -1.1600
11054TIP3    H254654   3.128   0.038  15.821  0.9951  1.6117 -0.2692
11055TIP3   OH254655   3.490   5.875  15.598 -0.1423 -0.2846 -0.0441
11055TIP3    H154656   3.570   5.914  15.564  0.3030  0.0625  1.3564
11055TIP3    H254657   3.519   5.818  15.669 -0.9872 -1.5008 -0.6387
11056TIP3   OH254658   6.788   6.487  11.109 -0.4413  0.2601  0.2665
11056TIP3    H154659   6.737   6.546  11.165  0.7689 -0.3416  2.1127
11056TIP3    H254660   6.817   6.417  11.168  0.0554 -0.9765 -1.3649
11057TIP3   OH254661   5.509   5.919  12.032 -0.3209 -0.3212 -0.1565
11057TIP3    H154662   5.495   6.002  11.987  3.0070  1.1954  1.2493
11057TIP3    H254663   5.582   5.879  11.986  0.1009 -0.9597  1.0151
11058TIP3   OH254664   6.014   4.212   3.369 -0.4698 -0.1403 -0.0271
11058TIP3    H154665   6.042   4.132   3.413 -2.4555 -0.3917  0.8794
11058TIP3    H254666   6.085   4.232   3.308  0.9273 -1.5340  1.0586
11059TIP3   OH254667   0.462   2.001   6.050  0.1746  0.1308 -0.0638
11059TIP3    H154668   0.425   2.081   6.013 -0.9181  0.6817  2.0537
11059TIP3    H254669   0.388   1.939   6.053 -0.4000  0.7865  2.9264
11060TIP3   OH254670   6.786   2.804   0.176 -0.2801  0.3599 -0.2754
11060TIP3    H154671   6.819   2.857   0.248  0.6632 -0.4973 -0.0507
11060TIP3    H254672   6.755   2.868   0.112  0.8219  1.1876 -0.0174
11061TIP3   OH254673   0.061   5.849   2.302  0.2338 -0.4031 -0.0696
11061TIP3    H154674   0.129   5.826   2.365 -0.2524 -0.3452  0.4807
11061TIP3    H254675   0.012   5.919   2.344 -0.9921 -1.3430  0.1038
11062TIP3   OH254676   2.413   2.309   4.392 -0.1892  0.5528  0.0802
11062TIP3    H154677   2.501   2.345   4.384  0.0310  0.2211  0.8966
11062TIP3    H254678   2.422   2.239   4.457 -0.4401 -1.4678 -1.9123
11063TIP3   OH254679   5.110   2.550  11.358 -0.0716 -0.4551  1.0116
11063TIP3    H154680   5.022   2.513  11.357 -0.4899  0.4671  1.7836
11063TIP3    H254681   5.122   2.580  11.448  1.3304 -1.2402  1.1071
11064TIP3   OH254682   3.672   4.454   2.114  0.4802  0.0247  0.2680
11064TIP3    H154683   3.615   4.438   2.189 -0.0822 -1.4070 -0.4246
11064TIP3    H254684   3.750   4.400   2.131  0.3379 -0.3287 -0.1666
11065TIP3   OH254685   2.353   2.055   0.051  0.0344  0.4219 -0.0747
11065TIP3    H154686   2.304   1.981   0.086  0.3375  0.9602  1.5620
11065TIP3    H254687   2.316   2.131   0.095 -0.5471  1.3498 -2.0149
11066TIP3   OH254688   6.476   2.186  14.593 -0.1119 -0.2631  0.3203
11066TIP3    H154689   6.427   2.108  14.616  2.4674 -1.6497  1.6574
11066TIP3    H254690   6.537   2.157  14.524 -1.1784  1.4206 -1.4287
11067TIP3   OH254691   1.644   5.462   0.373  0.1027 -0.4997  0.5552
11067TIP3    H154692   1.637   5.546   0.417 -1.1740  0.6664 -1.7139
11067TIP3    H254693   1.738   5.453   0.355  0.3292  0.1080  1.3584
11068TIP3   OH254694   5.974   4.546  12.536  0.7871  0.3821  0.0129
11068TIP3    H154695   5.920   4.472  12.565  0.8610  0.2412 -0.2071
11068TIP3    H254696   6.023   4.573  12.614  1.7184 -0.6241 -0.1995
11069TIP3   OH254697   6.489   6.230  15.391  0.1307 -0.1230 -0.4842
11069TIP3    H154698   6.577   6.248  15.423  0.3298 -1.0315 -0.4900
11069TIP3    H254699   6.470   6.141  15.420 -1.3548  0.5486  0.7445
11070TIP3   OH254700   5.471   6.723   0.381  0.0215 -1.1163  0.0389
11070TIP3    H154701   5.521   6.803   0.364 -1.8430  0.3066  0.8992
11070TIP3    H254702   5.456   6.686   0.294 -1.7188  1.1844 -0.7522
11071TIP3   OH254703   4.984   4.009   0.618 -0.2389 -0.2829  0.2104
11071TIP3    H154704   4.919   3.984   0.683 -1.4964  0.6750 -0.6424
11071TIP3    H254705   4.970   4.103   0.604  0.5499 -0.2993 -0.8349
11072TIP3   OH254706   1.726   2.830  13.492 -0.2702  0.3048  0.1675
11072TIP3    H154707   1.637   2.865  13.488 -0.6266 -0.4828  1.0136
11072TIP3    H254708   1.720   2.746  13.446  0.2064  0.5653 -0.3887
11073TIP3   OH254709   6.473   4.314  16.451 -0.0626  0.2187 -0.0983
11073TIP3    H154710   6.509   4.371  16.384 -0.0451  0.6383  0.2558
11073TIP3    H254711   6.422   4.373  16.507  0.9840  0.1048  1.0079
11074TIP3   OH254712   5.577   1.819   2.103 -0.4500  0.0920  0.2932
11074TIP3    H154713   5.668   1.848   2.101 -0.4353  0.0100 -0.6797
11074TIP3    H254714   5.531   1.886   2.153  0.2338 -0.1413  1.2604
11075TIP3   OH254715   6.070   6.153  13.950 -0.4940  0.1434  0.3305
11075TIP3    H154716   6.005   6.190  14.010 -0.4738  1.9436 -0.7036
11075TIP3    H254717   6.149   6.206  13.963  0.2281 -0.8660  0.2703
11076TIP3   OH254718   4.190   2.414   1.801  0.6721 -0.7325 -0.1612
11076TIP3    H154719   4.097   2.417   1.778  0.3956  0.2501  0.9977
11076TIP3    H254720   4.225   2.343   1.748 -0.2284  0.4302 -2.4648
11077TIP3   OH254721   3.335   4.929  12.292  0.2305  0.0611  0.0397
11077TIP3    H154722   3.395   4.957  12.361 -1.0847 -0.8249  1.5831
11077TIP3    H254723   3.258   4.985  12.302  0.2083  0.2679 -1.0590
11078TIP3   OH254724   3.153   6.269  14.226 -0.0180 -0.1906  0.6555
11078TIP3    H154725   3.059   6.262  14.215  0.0347  1.0544 -1.1991
11078TIP3    H254726   3.165   6.333  14.297 -0.6681  2.0733 -1.1544
11079TIP3   OH254727   6.840   4.526  12.570  0.3169  0.4943  0.4147
11079TIP3    H154728   6.859   4.443  12.525  0.1990  1.4455 -1.4728
11079TIP3    H254729   6.813   4.499  12.658 -0.6762 -1.5463 -0.4436
11080TIP3   OH254730   2.040   3.651  14.513 -1.0017 -0.2619 -0.2523
11080TIP3    H154731   1.947   3.635  14.527 -0.9093 -1.0240 -0.4556
11080TIP3    H254732   2.082   3.567  14.532  0.1376  0.9799  3.8410
11081TIP3   OH254733   2.065   4.091  15.121 -0.9838 -0.2841  0.2761
11081TIP3    H154734   2.056   3.998  15.142 -1.3297  0.2457  2.8871
11081TIP3    H254735   1.981   4.129  15.146 -0.9699  0.6967 -1.0856
11082TIP3   OH254736   2.738   6.337   1.782  0.1650 -0.1183  0.5043
11082TIP3    H154737   2.651   6.299   1.792 -0.2279  0.8293  0.7967
11082TIP3    H254738   2.728   6.400   1.710  0.4529  0.4134  0.9223
11083TIP3   OH254739   6.605   3.219  16.807 -0.3782  0.7351 -0.1229
11083TIP3    H154740   6.654   3.170  16.872 -0.6771 -1.4092 -1.4187
11083TIP3    H254741   6.672   3.269  16.760  0.5895 -1.5866 -1.3916
11084TIP3   OH254742   0.167   4.293   0.339 -0.4371  0.0800 -0.2457
11084TIP3    H154743   0.151   4.368   0.396  0.0890  0.3717 -0.4657
11084TIP3    H254744   0.090   4.289   0.282 -0.7707  0.0412  0.2084
11085TIP3   OH254745   4.017   5.205   3.934  0.1528 -0.6082 -0.1693
11085TIP3    H154746   4.021   5.136   4.001  1.1586  0.6757  1.1631
11085TIP3    H254747   3.937   5.254   3.955 -1.2777 -2.0468 -1.8981
11086TIP3   OH254748   0.400   1.270  17.137 -0.3475 -0.2458 -0.1930
11086TIP3    H154749   0.459   1.337  17.103  0.9749 -1.3485 -0.1471
11086TIP3    H254750   0.416   1.268  17.231 -1.1308  0.0698 -0.0448
11087TIP3   OH254751   6.546   5.257   4.686 -0.0346  0.4134  0.2820
11087TIP3    H154752   6.583   5.318   4.622  1.0703 -0.0003  0.5079
11087TIP3    H254753   6.614   5.247   4.752  1.0177 -3.1567 -1.1140
11088TIP3   OH254754   2.980   5.378  16.533 -0.0476 -0.3955  0.1933
11088TIP3    H154755   2.886   5.369  16.548  0.2566 -1.7610  1.5587
11088TIP3    H254756   3.007   5.293  16.501  0.4641  0.5314 -1.9941
11089TIP3   OH254757   6.648   6.666   2.180 -0.0006 -0.0388  0.3424
11089TIP3    H154758   6.569   6.613   2.184  0.3927 -0.6092  0.7282
11089TIP3    H254759   6.690   6.653   2.265  0.3387  0.5215  0.2653
11090TIP3   OH254760   5.316   4.968  13.035  0.3390  0.3864  0.0585
11090TIP3    H154761   5.225   4.982  13.063 -0.0802 -1.2273 -0.4059
11090TIP3    H254762   5.356   4.921  13.107  0.0399 -1.2580 -0.7993
11091TIP3   OH254763   5.725   5.692   0.501  0.1373  0.0582 -0.2597
11091TIP3    H154764   5.711   5.787   0.508  0.4213  0.0045  1.2859
11091TIP3    H254765   5.657   5.654   0.557 -0.3115 -0.6973 -1.2821
11092TIP3   OH254766   6.034   2.852   5.819 -0.4304 -0.1386 -0.9384
11092TIP3    H154767   5.953   2.861   5.770 -1.2005  0.6813  0.4311
11092TIP3    H254768   6.018   2.898   5.902  1.8990  1.2621 -1.1738
11093TIP3   OH254769   2.571   2.532   4.673  0.3870 -0.5547 -0.1527
11093TIP3    H154770   2.647   2.572   4.631  0.1730  0.3446  0.3057
11093TIP3    H254771   2.608   2.465   4.730  0.8526 -0.0455  0.1535
11094TIP3   OH254772   4.989   4.592   5.393  0.2608 -0.4120  0.3235
11094TIP3    H154773   5.058   4.618   5.333  0.6906 -1.9495  0.1010
11094TIP3    H254774   4.912   4.643   5.366  1.3929  1.7306  0.9173
11095TIP3   OH254775   5.927   2.793   0.506  0.0199 -0.6048 -0.5888
11095TIP3    H154776   5.849   2.789   0.561 -0.1400  0.0217 -0.7633
11095TIP3    H254777   5.968   2.707   0.516  0.5934 -0.1510  1.4045
11096TIP3   OH254778   0.547   3.546   3.400  0.0766 -0.2616 -0.2836
11096TIP3    H154779   0.541   3.458   3.439  0.5132 -0.4272 -0.5869
11096TIP3    H254780   0.590   3.599   3.466 -0.4109 -0.2161 -0.0004
11097TIP3   OH254781   6.455   2.598  16.959  0.4742  0.4903 -0.1649
11097TIP3    H154782   6.386   2.557  17.011  1.0276  0.5183  0.6116
11097TIP3    H254783   6.532   2.544  16.975  0.3450 -0.3335 -2.0775
11098TIP3   OH254784   1.748   4.787   0.586 -0.1572 -0.0324  0.0849
11098TIP3    H154785   1.813   4.848   0.621  1.1027 -1.7502  0.8231
11098TIP3    H254786   1.738   4.721   0.654 -0.9537 -1.0634 -1.0027
11099TIP3   OH254787   3.854   1.882  16.561  0.0607  0.5822 -0.4492
11099TIP3    H154788   3.790   1.939  16.604 -2.3341 -0.5879 -2.2124
11099TIP3    H254789   3.913   1.855  16.631 -2.0293  0.8807  1.5267
11100TIP3   OH254790   3.930   6.550  13.278  0.1883  0.3250  0.2260
11100TIP3    H154791   3.994   6.618  13.255 -0.7512  1.0355 -0.3594
11100TIP3    H254792   3.917   6.501  13.197 -0.0167  0.1924  0.3393
11101TIP3   OH254793   0.097   2.020  11.726  0.5402 -0.4707 -0.7545
11101TIP3    H154794   0.015   1.992  11.685 -0.4328  1.9856 -0.6383
11101TIP3    H254795   0.086   2.000  11.819 -0.1794  0.3121 -0.6586
11102TIP3   OH254796   2.219   3.025   3.127  0.1310  0.5600 -0.3441
11102TIP3    H154797   2.191   3.064   3.044  2.5618  3.2345 -0.0378
11102TIP3    H254798   2.172   3.074   3.194  0.1522  0.1803 -0.0459
11103TIP3   OH254799   4.210   1.593   0.516  0.1133 -0.5257 -0.3755
11103TIP3    H154800   4.284   1.534   0.535  1.8124  1.3766 -0.7851
11103TIP3    H254801   4.135   1.550   0.557  1.4057 -2.6062 -0.0374
11104TIP3   OH254802   3.790   0.781   0.899 -0.4240 -0.4142 -0.1912
11104TIP3    H154803   3.755   0.823   0.978 -0.0309 -1.1298  0.3809
11104TIP3    H254804   3.884   0.802   0.901 -0.7012  1.1096 -1.4684
11105TIP3   OH254805   6.439   4.674  12.997 -0.2519 -0.0308  0.8803
11105TIP3    H154806   6.423   4.762  12.964  0.1414 -0.6083 -0.9851
11105TIP3    H254807   6.531   4.675  13.026 -1.1645  1.0696  4.1375
11106TIP3   OH254808   3.240   0.676  16.969  0.6617 -0.0526 -0.0160
11106TIP3    H154809   3.314   0.736  16.970 -1.1097  2.2997  0.7943
11106TIP3    H254810   3.221   0.660  16.877 -1.2374  4.0403 -0.5502
11107TIP3   OH254811   1.910   0.186   0.853 -0.1816  0.0240 -0.0843
11107TIP3    H154812   1.927   0.176   0.947  1.2172 -1.2157 -0.4272
11107TIP3    H254813   1.959   0.114   0.812 -2.9159 -1.1436 -1.5808
11108TIP3   OH254814   5.360   2.047  11.862 -0.3057  0.0554  0.5400
11108TIP3    H154815   5.456   2.043  11.855 -0.3536 -4.2340 -0.9826
11108TIP3    H254816   5.332   2.090  11.782  0.4369 -2.9532 -1.5270
11109TIP3   OH254817   6.115   4.284   0.447 -0.1947  0.1115  0.5578
11109TIP3    H154818   6.045   4.348   0.461 -1.8087 -1.2907 -0.5514
11109TIP3    H254819   6.068   4.203   0.427  1.7482 -1.6467  2.6725
11110TIP3   OH254820   6.117   3.514   2.504  0.3622  0.0301 -0.1854
11110TIP3    H154821   6.120   3.515   2.409  0.4249 -1.9405 -0.2591
11110TIP3    H254822   6.201   3.551   2.531 -0.9497  3.8390 -0.7239
11111TIP3   OH254823   2.152   1.637  10.480  0.1283 -0.0476  0.4066
11111TIP3    H154824   2.231   1.584  10.466  0.0039  0.0528 -0.7488
11111TIP3    H254825   2.096   1.582  10.535  1.1790  0.0705  1.6679
11112TIP3   OH254826   1.513   2.770  14.937  0.6133 -0.3565  0.2766
11112TIP3    H154827   1.521   2.846  14.879  1.4192 -0.2871  0.4663
11112TIP3    H254828   1.420   2.750  14.938  0.5794 -0.3403 -1.0331
11113TIP3   OH254829   0.707   1.249  13.485 -0.4799  0.5294 -0.0699
11113TIP3    H154830   0.666   1.267  13.570 -1.7763  0.8359 -0.7358
11113TIP3    H254831   0.661   1.306  13.424 -1.1668 -1.3304 -1.3669
11114TIP3   OH254832   5.232   6.207   5.892 -0.5277 -0.8174  0.2062
11114TIP3    H154833   5.136   6.206   5.891 -0.5515 -0.7441  1.3823
11114TIP3    H254834   5.255   6.177   5.980  0.5613 -2.2964 -0.5331
11115TIP3   OH254835   2.331   0.135   2.458  0.4430  0.3964  0.1378
11115TIP3    H154836   2.251   0.090   2.483  0.1454 -0.1781 -1.7602
11115TIP3    H254837   2.387   0.127   2.535 -0.5010 -1.1111  0.7139
11116TIP3   OH254838   1.380   4.261   4.318  0.1096 -0.3046  0.2027
11116TIP3    H154839   1.348   4.309   4.242  0.0506 -0.7218 -0.0389
11116TIP3    H254840   1.470   4.238   4.295  0.6267  0.9354  0.9105
11117TIP3   OH254841   4.275   0.055  16.687 -0.1975 -0.2893 -0.6491
11117TIP3    H154842   4.222   0.067  16.608 -1.3298 -0.8353  0.0091
11117TIP3    H254843   4.224  -0.004  16.742  0.9784 -0.6252  0.1309
11118TIP3   OH254844   4.839   0.357   0.926 -0.0497  0.3010 -0.6758
11118TIP3    H154845   4.823   0.407   1.006  0.1062 -1.5326  0.5508
11118TIP3    H254846   4.935   0.350   0.921 -0.0842 -0.2372 -0.5983
11119TIP3   OH254847   5.585   4.061   2.002 -0.3042 -0.4896 -0.3116
11119TIP3    H154848   5.514   4.061   2.067 -0.1288  0.1628 -0.1149
11119TIP3    H254849   5.541   4.076   1.918 -0.3921  0.0655 -0.1722
11120TIP3   OH254850   2.626   2.018   1.056 -0.4116 -0.4736 -0.0512
11120TIP3    H154851   2.556   1.961   1.024  0.2175 -1.1412 -0.2686
11120TIP3    H254852   2.634   2.086   0.990 -2.2011  0.7788  0.9421
11121TIP3   OH254853   1.713   3.211   5.673  0.7403  0.0900 -0.7555
11121TIP3    H154854   1.624   3.198   5.641  0.2318 -0.2465  0.7343
11121TIP3    H254855   1.702   3.232   5.765  2.0034  3.3123 -1.2139
11122TIP3   OH254856   2.952   3.131  11.410 -0.0799  0.2091  0.4716
11122TIP3    H154857   3.021   3.068  11.430 -0.5381 -0.6230 -0.4959
11122TIP3    H254858   2.874   3.078  11.394  0.1084  0.7654 -2.9590
11123TIP3   OH254859   0.816   5.488  16.740  0.3495  0.1198  0.2468
11123TIP3    H154860   0.905   5.505  16.707 -0.0544  0.0750 -0.9064
11123TIP3    H254861   0.763   5.479  16.661 -0.5035 -0.8711  0.9162
11124TIP3   OH254862   3.012   1.926   4.612 -0.0709 -0.2755  0.5306
11124TIP3    H154863   2.988   1.837   4.639  0.7778 -0.5801  0.2990
11124TIP3    H254864   2.997   1.927   4.517  0.6376 -0.4073  0.4155
11125TIP3   OH254865   5.486   6.693  14.979 -0.0379  0.2095  0.6538
11125TIP3    H154866   5.473   6.771  15.032 -1.4829 -0.5000  1.4031
11125TIP3    H254867   5.422   6.700  14.909 -0.2858 -0.3820  0.8184
11126TIP3   OH254868   1.205   6.238   5.603  0.3912 -0.5174  0.3241
11126TIP3    H154869   1.126   6.191   5.628  0.1593 -0.4648 -0.2906
11126TIP3    H254870   1.214   6.307   5.668 -0.8044  0.3036 -0.3594
11127TIP3   OH254871   4.438   3.998   1.928  0.1644 -0.2556 -0.3230
11127TIP3    H154872   4.438   4.093   1.919 -0.7505 -0.1637  0.4814
11127TIP3    H254873   4.487   3.966   1.852 -0.1725  0.8156 -0.9984
11128TIP3   OH254874   3.845   6.455   5.958  0.1972  0.4266 -0.1714
11128TIP3    H154875   3.868   6.362   5.954 -0.7400  0.0713  1.7195
11128TIP3    H254876   3.775   6.465   5.893 -0.2094 -0.3642  0.1326
11129TIP3   OH254877   2.888   2.256  15.292 -0.4389  0.1748 -0.0821
11129TIP3    H154878   2.858   2.242  15.381 -0.5723  0.3197 -0.1039
11129TIP3    H254879   2.981   2.232  15.293 -0.2667  0.8353  0.2571
11130TIP3   OH254880   3.176   5.384  12.404 -0.1944 -0.1957  0.0534
11130TIP3    H154881   3.184   5.321  12.475  0.2759  0.6697  0.7768
11130TIP3    H254882   3.222   5.462  12.434 -0.9545  0.5862 -0.7310
11131TIP3   OH254883   6.326   3.035   1.298  0.1575  0.0745  0.5311
11131TIP3    H154884   6.383   2.958   1.299 -0.1550 -0.3488 -2.8547
11131TIP3    H254885   6.242   3.004   1.330 -0.2282 -1.3324 -1.6397
11132TIP3   OH254886   5.809   3.961   5.137 -0.5703 -0.3710 -0.4892
11132TIP3    H154887   5.889   4.013   5.148 -2.1177  2.0033  0.0838
11132TIP3    H254888   5.811   3.899   5.210  1.7158 -1.8232 -1.6462
11133TIP3   OH254889   6.522   1.978  14.358  0.2650 -0.2072  0.3313
11133TIP3    H154890   6.514   1.980  14.263 -1.2047  2.7655  0.4220
11133TIP3    H254891   6.441   1.937  14.389 -0.7481  1.6779  0.3213
11134TIP3   OH254892   3.371   2.224   5.631  0.3192  0.0349  0.5056
11134TIP3    H154893   3.395   2.311   5.665  0.4199  0.0671  0.3505
11134TIP3    H254894   3.390   2.165   5.704  0.6244  0.0934  0.4744
11135TIP3   OH254895   0.591   1.192   1.616  0.2661 -0.1544  0.1498
11135TIP3    H154896   0.580   1.173   1.523  0.5727  0.6751 -0.0679
11135TIP3    H254897   0.650   1.124   1.647 -0.5844 -0.9990 -0.0390
11136TIP3   OH254898   4.356   3.485   0.680 -0.1944  0.2887 -0.1927
11136TIP3    H154899   4.280   3.496   0.624  0.1120  0.7436 -0.5277
11136TIP3    H254900   4.391   3.573   0.691  0.6899  0.0077 -0.6275
11137TIP3   OH254901   5.645   3.089  11.611 -0.4079 -0.4329 -0.0569
11137TIP3    H154902   5.576   3.033  11.575 -0.8132 -0.5117  0.7982
11137TIP3    H254903   5.621   3.178  11.584 -1.7557 -0.2502  1.5155
11138TIP3   OH254904   4.509   1.541  13.227  0.1622 -0.2527  0.1011
11138TIP3    H154905   4.585   1.503  13.271  0.2140  0.6905  0.8617
11138TIP3    H254906   4.545   1.608  13.169 -0.0199 -0.4495 -0.2394
11139TIP3   OH254907   5.190   2.635  11.627 -0.2126 -0.1988  0.2187
11139TIP3    H154908   5.222   2.545  11.624 -1.0434 -0.4794 -1.2191
11139TIP3    H254909   5.231   2.673  11.705  1.3049 -1.3693  0.0257
11140TIP3   OH254910   1.456   5.584   3.328 -0.1497  0.4706 -0.3581
11140TIP3    H154911   1.436   5.538   3.246 -0.7397  0.3025 -0.1256
11140TIP3    H254912   1.542   5.550   3.354 -0.0599  0.3598 -0.7876
11141TIP3   OH254913   3.788   5.222   1.709  0.1914 -0.3300  0.5746
11141TIP3    H154914   3.861   5.284   1.706  1.3152 -1.4478  2.6156
11141TIP3    H254915   3.814   5.152   1.649 -0.1354  0.1644 -0.1671
11142TIP3   OH254916   0.868   5.884  15.814  0.5184  0.1918  0.2447
11142TIP3    H154917   0.924   5.937  15.757 -0.0226  1.3277  0.7364
11142TIP3    H254918   0.919   5.873  15.894  1.0101 -0.8517 -0.1873
11143TIP3   OH254919   1.709   6.445  12.957 -0.0815  1.0004  0.6064
11143TIP3    H154920   1.794   6.421  12.921 -0.0603  2.4241 -0.3853
11143TIP3    H254921   1.658   6.473  12.881 -0.8882  1.7170  1.3862
11144TIP3   OH254922   5.764   1.783  16.933 -0.5926  0.2636 -0.2965
11144TIP3    H154923   5.685   1.740  16.964 -0.5840  1.5772  1.7636
11144TIP3    H254924   5.734   1.868  16.899 -0.3257 -0.2640 -1.9610
11145TIP3   OH254925   3.305   3.646  16.478  0.4596 -0.2647  0.1041
11145TIP3    H154926   3.332   3.666  16.568  0.1414 -0.1890  0.1857
11145TIP3    H254927   3.349   3.564  16.457 -1.1120 -1.4390  1.0940
11146TIP3   OH254928   0.930   1.281   6.350 -0.0897 -0.2347 -0.0559
11146TIP3    H154929   0.922   1.369   6.312 -1.1834 -0.5630 -0.6467
11146TIP3    H254930   1.022   1.273   6.373  0.4735  0.3036 -1.9179
11147TIP3   OH254931   0.109   0.298   4.818 -0.1794 -0.3514  0.3116
11147TIP3    H154932   0.052   0.279   4.744 -1.8030 -1.9258  1.8776
11147TIP3    H254933   0.091   0.228   4.881  2.1444  0.1505  1.6543
11148TIP3   OH254934   4.966   2.681   4.845  0.6620 -0.6855  0.5189
11148TIP3    H154935   4.907   2.689   4.920  0.7888  0.3481  0.5109
11148TIP3    H254936   4.923   2.616   4.789 -0.6937  0.3569  0.3089
11149TIP3   OH254937   3.930   2.934   6.092  0.8085 -0.0569 -0.1339
11149TIP3    H154938   3.960   2.907   6.179  1.1603  1.9060  0.3999
11149TIP3    H254939   3.835   2.926   6.096  0.8978 -1.3158 -0.0663
11150TIP3   OH254940   3.831   3.401   4.835 -0.5681  0.5048  0.1049
11150TIP3    H154941   3.833   3.307   4.819 -0.1677  0.5844 -0.3338
11150TIP3    H254942   3.920   3.422   4.863 -0.2468  0.9871 -1.2001
11151TIP3   OH254943   0.145   4.022   2.239  1.0281  0.6481 -0.0053
11151TIP3    H154944   0.119   4.114   2.232  0.9032  0.5860 -0.3629
11151TIP3    H254945   0.182   4.015   2.327 -0.3049  0.7056  0.6008
11152TIP3   OH254946   5.509   2.869  12.843 -0.1461  0.5990 -0.2420
11152TIP3    H154947   5.600   2.889  12.863 -0.3286  0.2262  1.0292
11152TIP3    H254948   5.505   2.871  12.747  1.0234  1.3310 -0.2992
11153TIP3   OH254949   1.765   3.919   0.671  0.2016  0.2206  0.5026
11153TIP3    H154950   1.846   3.888   0.631 -0.5680 -1.1970 -0.0202
11153TIP3    H254951   1.788   4.004   0.709  1.8637 -0.0525  0.1779
11154TIP3   OH254952   5.510   2.887   3.874 -1.0379  0.0856  0.5405
11154TIP3    H154953   5.486   2.853   3.959 -1.1380  1.8809  1.2842
11154TIP3    H254954   5.591   2.937   3.890  0.9219 -2.3462 -1.0971
11155TIP3   OH254955   1.824   4.592   3.023 -0.2609  0.3558  0.2067
11155TIP3    H154956   1.903   4.645   3.024  0.1122 -0.1765  1.9033
11155TIP3    H254957   1.855   4.503   3.009 -0.6917  0.2977 -0.4348
11156TIP3   OH254958   6.829   1.828   4.688  0.5509 -0.2441 -0.2869
11156TIP3    H154959   6.828   1.736   4.715  0.4939 -1.0612 -2.8670
11156TIP3    H254960   6.745   1.842   4.645  0.7734  0.8796 -0.3977
11157TIP3   OH254961   2.509   6.080  12.965  0.0051 -0.1900 -0.2177
11157TIP3    H154962   2.567   6.013  13.002 -0.1836  0.1920  0.8001
11157TIP3    H254963   2.551   6.163  12.986 -1.3488  0.1456  1.3976
11158TIP3   OH254964   2.589   4.966   3.673  0.2977 -0.1478 -0.2387
11158TIP3    H154965   2.611   4.973   3.580  0.6007 -0.5184 -0.1945
11158TIP3    H254966   2.664   4.922   3.712  0.3010  0.2797  0.2362
11159TIP3   OH254967   6.437   4.914  15.597  0.1999 -0.1847  0.0360
11159TIP3    H154968   6.468   4.836  15.644 -0.3067 -0.1436  0.4462
11159TIP3    H254969   6.472   4.904  15.509  1.4794 -0.0760  0.5159
11160TIP3   OH254970   4.607   0.636  12.990 -0.1063 -0.1821 -0.6390
11160TIP3    H154971   4.688   0.623  13.039  0.1281  1.9228 -0.3853
11160TIP3    H254972   4.569   0.548  12.984  2.3898 -1.3406 -1.1866
11161TIP3   OH254973   0.559   3.294   1.754  0.2065 -0.7169  0.5983
11161TIP3    H154974   0.649   3.283   1.784 -0.2628 -0.8050  2.0706
11161TIP3    H254975   0.561   3.266   1.662  1.8253  0.0594  0.3616
11162TIP3   OH254976   3.519   4.287  16.173 -0.1512  0.2311 -0.9926
11162TIP3    H154977   3.474   4.204  16.187 -1.0934  1.0689  1.7428
11162TIP3    H254978   3.568   4.301  16.254 -1.8016  3.3182 -0.3858
11163TIP3   OH254979   0.469   6.238   3.535  0.0389 -0.4554  0.2669
11163TIP3    H154980   0.409   6.249   3.462  1.6480  1.2340 -0.8982
11163TIP3    H254981   0.463   6.145   3.558 -1.3978 -0.7611 -1.2159
11164TIP3   OH254982   0.985   6.642   5.756 -0.6966  0.2324 -0.2720
11164TIP3    H154983   0.986   6.633   5.851  0.8590  0.7540 -0.2191
11164TIP3    H254984   1.075   6.664   5.732 -1.4257  1.9248 -1.6964
11165TIP3   OH254985   5.816   6.223  16.271  0.1188 -0.0635 -0.3078
11165TIP3    H154986   5.893   6.168  16.254 -0.8801 -1.4051 -0.6156
11165TIP3    H254987   5.802   6.271  16.190 -0.5963 -1.3934 -0.9984
11166TIP3   OH254988   2.097   4.131   2.531 -0.1754 -0.7565  0.2443
11166TIP3    H154989   2.142   4.161   2.610 -1.7933  0.6501  0.6972
11166TIP3    H254990   2.105   4.205   2.470 -1.2391 -0.7635  0.0891
11167TIP3   OH254991   2.063   0.875   0.431  0.1058  0.2934  0.1749
11167TIP3    H154992   2.110   0.944   0.478  0.4150 -1.5404  2.8039
11167TIP3    H254993   2.118   0.857   0.354  0.0336  2.8530 -0.5440
11168TIP3   OH254994   3.503   5.749  12.168 -0.4049  0.1903  0.2144
11168TIP3    H154995   3.578   5.728  12.113  0.8805 -0.1879  2.0223
11168TIP3    H254996   3.483   5.840  12.146  0.2945  0.1666 -0.6033
11169TIP3   OH254997   3.962   4.566   2.287 -0.2959 -0.1229  0.0328
11169TIP3    H154998   3.928   4.634   2.345 -0.8501 -1.8549  1.8680
11169TIP3    H254999   3.918   4.486   2.316  1.6828 -1.6071 -0.8169
11170TIP3   OH255000   3.500   4.047   3.706 -0.0018  0.5548 -0.2731
11170TIP3    H155001   3.432   3.982   3.685  1.1945 -0.6119 -0.6496
11170TIP3    H255002   3.571   3.996   3.745  1.7324  1.3215 -2.2241
11171TIP3   OH255003   4.701   0.958  10.782  0.1445 -0.0792 -0.0817
11171TIP3    H155004   4.651   1.039  10.798  1.0896  1.0236 -2.3705
11171TIP3    H255005   4.656   0.917  10.709  0.8159 -0.6443 -0.1774
11172TIP3   OH255006   3.196   4.728  14.101  0.3228 -0.2300 -0.1708
11172TIP3    H155007   3.133   4.711  14.171 -0.4976 -2.6668 -1.3798
11172TIP3    H255008   3.281   4.716  14.143 -0.0836  0.4832  0.8917
11173TIP3   OH255009   4.475   4.835   1.177  0.4773  0.3051  0.2740
11173TIP3    H155010   4.437   4.882   1.103 -0.8709  2.5389  2.2403
11173TIP3    H255011   4.568   4.831   1.158 -0.0668 -1.4838 -2.6713
11174TIP3   OH255012   2.224   2.117  16.194 -0.2324  0.3424 -0.0256
11174TIP3    H155013   2.300   2.167  16.164 -1.0258  1.7790  0.2583
11174TIP3    H255014   2.216   2.045  16.132  0.9692  0.5503 -0.4407
11175TIP3   OH255015   3.417   2.349   1.582 -0.5887 -0.8971  0.6804
11175TIP3    H155016   3.336   2.328   1.627 -0.5846 -0.0453  1.1048
11175TIP3    H255017   3.391   2.365   1.491 -1.4826  2.5900  1.4017
11176TIP3   OH255018   5.795   3.524   6.285 -0.0989  0.3418  0.0130
11176TIP3    H155019   5.724   3.588   6.293 -0.3650  0.1482 -0.7883
11176TIP3    H255020   5.754   3.441   6.307  0.2305  0.4211  0.9802
11177TIP3   OH255021   3.935   1.126  16.131  0.7351  0.7865  0.0605
11177TIP3    H155022   3.869   1.195  16.117 -0.7157 -0.5276  0.2048
11177TIP3    H255023   3.909   1.083  16.212  0.3205 -1.3168 -1.1173
11178TIP3   OH255024   4.506   2.576   0.266  0.6133 -0.3549  0.0423
11178TIP3    H155025   4.566   2.651   0.263 -0.9330  0.9112 -0.4795
11178TIP3    H255026   4.466   2.574   0.180 -1.6974  0.2245  1.0316
11179TIP3   OH255027   6.541   4.711  16.763 -0.3482  0.4921  0.5089
11179TIP3    H155028   6.612   4.681  16.819  0.8189  0.0608 -1.1008
11179TIP3    H255029   6.464   4.713  16.819  0.6429 -0.4516  1.9548
11180TIP3   OH255030   5.804   5.308  11.029  0.3021 -0.5600  0.6657
11180TIP3    H155031   5.860   5.301  10.952 -0.8861  0.8440 -0.3784
11180TIP3    H255032   5.751   5.228  11.027  0.2680 -0.5216  0.0283
11181TIP3   OH255033   3.425   4.921   4.851  0.4061 -0.1711 -0.8904
11181TIP3    H155034   3.418   4.830   4.880  2.0203 -0.0468  0.0203
11181TIP3    H255035   3.388   4.921   4.763 -1.8282 -1.2009 -0.0395
11182TIP3   OH255036   5.693   1.273  15.242 -0.1761  0.0906 -0.6867
11182TIP3    H155037   5.709   1.259  15.148  2.6998 -0.0880 -0.2515
11182TIP3    H255038   5.775   1.250  15.284 -1.7304 -0.9229  2.0519
11183TIP3   OH255039   1.819   2.628   5.785 -0.0063 -0.2936 -0.2493
11183TIP3    H155040   1.782   2.617   5.697  2.6024 -1.1211 -1.3355
11183TIP3    H255041   1.745   2.616   5.843 -1.7956  0.0550 -2.3098
11184TIP3   OH255042   4.648   1.293  12.178 -0.1474  0.3778  0.6065
11184TIP3    H155043   4.599   1.273  12.257  0.9084 -0.6182  1.0479
11184TIP3    H255044   4.673   1.207  12.143  2.4678  0.7836  1.2123
11185TIP3   OH255045   2.073   0.821  11.101  0.1476 -0.0782  0.6330
11185TIP3    H155046   2.003   0.764  11.070 -0.0738  0.9260 -0.7909
11185TIP3    H255047   2.077   0.805  11.195 -2.0517 -0.0791  0.7616
11186TIP3   OH255048   5.622   4.980   3.913 -0.4545  0.3422  0.1122
11186TIP3    H155049   5.668   5.005   3.993 -0.8030 -2.4846  1.3297
11186TIP3    H255050   5.674   5.017   3.842  0.8545  1.4361  1.5826
11187TIP3   OH255051   0.001   0.937   1.023 -0.0443 -0.4264 -0.2425
11187TIP3    H155052   0.054   1.001   1.071 -0.6296 -0.7536  0.8922
11187TIP3    H255053  -0.057   0.989   0.968  1.0923 -0.0568 -1.1208
11188TIP3   OH255054   0.275   5.845  14.728 -0.6319  0.8061  0.2459
11188TIP3    H155055   0.360   5.880  14.701  0.0021 -1.4967 -0.9982
11188TIP3    H255056   0.287   5.825  14.821  1.0416 -1.5111 -0.3632
11189TIP3   OH255057   0.067   5.916   1.174  0.1506 -0.3258 -0.2593
11189TIP3    H155058   0.021   5.876   1.100 -1.5135  0.1483  0.4874
11189TIP3    H255059   0.155   5.933   1.140 -0.1312 -1.4569 -1.6624
11190TIP3   OH255060   6.694   1.982  12.900 -0.6516  0.8716  0.2397
11190TIP3    H155061   6.624   1.919  12.918  1.0762 -1.0442  0.5910
11190TIP3    H255062   6.649   2.055  12.857 -2.6723 -0.8598 -0.8133
11191TIP3   OH255063   0.979   6.101   5.696  0.2185  0.4835 -0.3045
11191TIP3    H155064   0.909   6.149   5.739 -1.1100 -0.4363 -1.3525
11191TIP3    H255065   0.936   6.025   5.656  1.7551  0.0393 -1.2311
11192TIP3   OH255066   2.908   3.877   1.643  0.2958 -0.0459  0.2221
11192TIP3    H155067   2.868   3.962   1.661  1.4321  0.4507  0.4698
11192TIP3    H255068   2.941   3.848   1.728 -0.3488 -0.8801  0.1941
11193TIP3   OH255069   1.685   0.347  16.068  0.0458 -0.0526  0.2719
11193TIP3    H155070   1.701   0.357  16.161 -1.3222  0.9362  0.4415
11193TIP3    H255071   1.719   0.427  16.029 -0.9389  0.3321  0.1670
11194TIP3   OH255072   2.243   5.662  12.750 -0.5155 -0.2161 -0.7888
11194TIP3    H155073   2.274   5.704  12.670 -1.2969 -0.1895 -1.0913
11194TIP3    H255074   2.321   5.650  12.804 -0.0855  0.3779 -1.2759
11195TIP3   OH255075   0.989   0.946   1.256 -0.5586 -0.3339  0.4874
11195TIP3    H155076   0.938   0.869   1.231 -0.3871  0.4170 -2.5468
11195TIP3    H255077   0.924   1.010   1.285 -0.9895 -0.6301  0.1725
11196TIP3   OH255078   5.800   3.549  14.143 -0.0007  0.3142 -0.2926
11196TIP3    H155079   5.710   3.540  14.175  0.0599 -0.2575 -0.2729
11196TIP3    H255080   5.793   3.611  14.071  0.0064  2.4074  1.4225
11197TIP3   OH255081   1.496   5.296   2.165 -0.2077  0.2801  0.3194
11197TIP3    H155082   1.488   5.384   2.203 -0.6982  0.3825 -0.0086
11197TIP3    H255083   1.581   5.297   2.121 -1.3556  1.5675 -2.0928
11198TIP3   OH255084   3.763   0.677   3.340  0.2901  0.4403 -0.1345
11198TIP3    H155085   3.825   0.735   3.295 -0.0561  0.2496 -0.8857
11198TIP3    H255086   3.684   0.682   3.286 -0.6503  1.3639  1.2944
11199TIP3   OH255087   0.992   0.478  16.872  0.4350  0.0125  1.1268
11199TIP3    H155088   1.058   0.431  16.924  0.7568 -1.4483 -0.5153
11199TIP3    H255089   0.983   0.562  16.917  3.3525  0.2506  1.4992
11200TIP3   OH255090   4.201   3.400  16.226 -0.0368 -0.3349 -0.6258
11200TIP3    H155091   4.165   3.456  16.156 -0.4543 -0.2219 -0.3266
11200TIP3    H255092   4.125   3.350  16.257 -0.4137  1.3506  1.4000
11201TIP3   OH255093   0.456   6.660  13.938  0.0709 -0.9276 -0.0587
11201TIP3    H155094   0.470   6.568  13.916  1.9252 -1.2353  2.0461
11201TIP3    H255095   0.416   6.658  14.025  0.6546  0.2452  0.2495
11202TIP3   OH255096   2.163   0.276  11.398  0.5219 -0.0543 -0.3437
11202TIP3    H155097   2.248   0.280  11.354  0.4680 -0.3830 -0.4857
11202TIP3    H255098   2.111   0.345  11.357  0.3263 -0.6487 -1.1296
11203TIP3   OH255099   1.365   5.198   1.856 -0.1468 -0.2877  0.2257
11203TIP3    H155100   1.355   5.293   1.860  0.7927 -0.1702  0.1811
11203TIP3    H255101   1.277   5.163   1.869 -0.3173  0.5599  1.4632
11204TIP3   OH255102   4.518   5.483   1.337  0.1249  0.0310 -0.0447
11204TIP3    H155103   4.478   5.566   1.362  1.2086  0.5138  0.1397
11204TIP3    H255104   4.449   5.418   1.349 -0.0687  0.5687  2.0048
11205TIP3   OH255105   6.584   0.134   4.925 -0.4231 -0.0328 -0.7806
11205TIP3    H155106   6.669   0.126   4.969 -1.1812  0.4091  0.8288
11205TIP3    H255107   6.525   0.079   4.976 -2.0973  3.0077  0.9003
11206TIP3   OH255108   5.758   0.363  16.652  0.2197  0.0118 -0.2991
11206TIP3    H155109   5.760   0.447  16.698  1.2813  0.9872 -2.0174
11206TIP3    H255110   5.848   0.332  16.655 -0.0390 -0.7554 -0.2586
11207TIP3   OH255111   3.344   6.187  12.639  0.6387 -0.1025 -0.2046
11207TIP3    H155112   3.308   6.102  12.612  0.7071  0.1881 -1.2452
11207TIP3    H255113   3.273   6.249  12.622  0.6078  0.0648  0.5035
11208TIP3   OH255114   1.928   2.026  14.361 -0.3009  0.0223 -0.0867
11208TIP3    H155115   1.964   2.079  14.433 -1.0786  0.5316 -0.0581
11208TIP3    H255116   1.935   1.936  14.393  1.9796 -0.0139 -0.5557
11209TIP3   OH255117   3.684   5.388  16.846 -0.6138 -0.5288  0.1825
11209TIP3    H155118   3.730   5.377  16.763  0.9553 -1.0263  1.0834
11209TIP3    H255119   3.598   5.349  16.831 -1.0275  0.9791 -1.7430
11210TIP3   OH255120   3.978   2.369   6.011 -0.1667 -0.0288 -0.2644
11210TIP3    H155121   3.938   2.289   6.046 -0.8735  0.6579  0.5216
11210TIP3    H255122   4.068   2.366   6.043  0.4069 -1.4612 -1.8457
11211TIP3   OH255123   0.257   6.793  11.521 -0.3413  0.1070  0.2227
11211TIP3    H155124   0.169   6.774  11.489 -0.0314 -1.1236  0.0836
11211TIP3    H255125   0.308   6.715  11.501  0.5072  0.3405  1.3743
11212TIP3   OH255126   2.757   2.024  16.811 -0.2160 -0.1130  0.3794
11212TIP3    H155127   2.684   1.965  16.832  0.3562 -0.8719  0.2907
11212TIP3    H255128   2.796   1.987  16.733  0.5603  0.0074  0.7020
11213TIP3   OH255129   4.937   5.732  13.763 -0.2598 -0.0191  0.5223
11213TIP3    H155130   4.967   5.642  13.773 -0.5021 -0.2003 -0.2874
11213TIP3    H255131   4.842   5.727  13.772 -0.2334  0.2197  0.9228
11214TIP3   OH255132   1.479   1.110   0.080  0.2916 -0.3017  0.2564
11214TIP3    H155133   1.414   1.117   0.149  0.8595 -1.3055  0.9245
11214TIP3    H255134   1.516   1.198   0.071 -2.1826  0.6897 -1.2151
11215TIP3   OH255135   6.089   0.372   5.918  0.3234 -0.1549  0.1624
11215TIP3    H155136   6.145   0.340   5.989  0.3460  2.8072  1.5874
11215TIP3    H255137   6.003   0.384   5.958  0.0920  0.6411 -0.5550
11216TIP3   OH255138   5.273   3.610  11.651 -0.9844  0.3332 -0.3816
11216TIP3    H155139   5.201   3.659  11.690  0.5920  2.6191 -0.1138
11216TIP3    H255140   5.332   3.592  11.724  1.4580  3.6620 -1.3125
11217TIP3   OH255141   0.884   0.071   6.033  0.0105 -0.0070  0.1167
11217TIP3    H155142   0.916  -0.019   6.024  0.7422  0.2498  0.0468
11217TIP3    H255143   0.833   0.071   6.114  0.7292 -0.2836  0.5772
11218TIP3   OH255144   5.934   0.349  10.835 -0.4193  0.0943 -0.0012
11218TIP3    H155145   5.898   0.408  10.768 -2.7855 -0.3740  0.7492
11218TIP3    H255146   5.945   0.266  10.789  1.0532  0.5784 -0.5723
11219TIP3   OH255147   2.865   2.326  10.694 -0.6930  0.6599 -0.4059
11219TIP3    H155148   2.813   2.378  10.755 -0.3260  0.7504 -0.1701
11219TIP3    H255149   2.817   2.332  10.611 -0.3280  1.9101 -0.5459
11220TIP3   OH255150   2.220   6.641   1.200 -0.3813  1.0373 -0.0760
11220TIP3    H155151   2.171   6.585   1.139  0.2836  2.0317 -1.5838
11220TIP3    H255152   2.281   6.688   1.144  1.1393  1.0718  1.5602
11221TIP3   OH255153   0.169   1.630   1.865  0.5065  0.5241  0.1274
11221TIP3    H155154   0.111   1.681   1.921 -0.4197 -0.1122 -0.2150
11221TIP3    H255155   0.112   1.601   1.793  1.7725  1.8074 -1.4677
11222TIP3   OH255156   6.313   0.995  13.298  0.6574 -0.2444 -0.2602
11222TIP3    H155157   6.258   0.920  13.276  1.7025 -0.9514 -0.5201
11222TIP3    H255158   6.351   1.023  13.215 -0.4171  1.1685 -0.3147
11223TIP3   OH255159   0.508   3.217   1.215 -0.4780 -0.0473  0.3050
11223TIP3    H155160   0.463   3.134   1.202 -0.8564  0.5353 -2.8333
11223TIP3    H255161   0.600   3.197   1.195 -0.3909  0.0777  0.5782
11224TIP3   OH255162   1.704   0.436  11.489  0.3811 -0.8824 -0.4358
11224TIP3    H155163   1.761   0.429  11.566 -1.0408  0.6786  0.8315
11224TIP3    H255164   1.676   0.346  11.472 -1.0414 -1.0712  2.3207
11225TIP3   OH255165   5.976   1.443   3.845 -0.8235 -0.1731 -0.1400
11225TIP3    H155166   6.031   1.465   3.921 -0.9843 -0.3521  0.0301
11225TIP3    H255167   5.898   1.404   3.883 -0.3528 -1.4667 -0.4537
11226TIP3   OH255168   4.234   3.685   3.245  0.3220  1.0184 -0.1479
11226TIP3    H155169   4.249   3.703   3.337  0.3195  1.5650 -0.2472
11226TIP3    H255170   4.252   3.592   3.234 -2.1342  0.3364  0.9163
11227TIP3   OH255171   4.688   2.257  15.996 -0.3065  0.4772 -0.3483
11227TIP3    H155172   4.604   2.216  16.013 -0.0214 -0.1124 -0.3209
11227TIP3    H255173   4.720   2.217  15.915  0.2461  0.1927 -0.0023
11228TIP3   OH255174   6.703   5.515  16.574  0.5791 -0.1522 -0.7301
11228TIP3    H155175   6.716   5.590  16.632  1.2539 -1.4561  0.8876
11228TIP3    H255176   6.615   5.483  16.595  0.4920 -0.1155 -1.0416
11229TIP3   OH255177   1.467   2.606   3.305 -0.6500 -0.2859  0.3064
11229TIP3    H155178   1.427   2.527   3.340 -0.0868 -1.7315 -2.0736
11229TIP3    H255179   1.561   2.596   3.323 -0.4956 -0.5132 -0.5787
11230TIP3   OH255180   5.684   1.959  15.316  0.1678  0.4954  0.4974
11230TIP3    H155181   5.779   1.971  15.320  0.6391 -2.4501  0.5232
11230TIP3    H255182   5.655   1.961  15.408  0.5586 -0.5025  0.6628
11231TIP3   OH255183   4.670   3.313   2.421 -0.3714 -0.0830  0.1636
11231TIP3    H155184   4.693   3.240   2.478  0.2518 -0.3637 -0.4330
11231TIP3    H255185   4.701   3.287   2.334  0.7739  1.2988  0.1183
11232TIP3   OH255186   6.641   3.732  14.014  0.1758 -0.5186 -0.1355
11232TIP3    H155187   6.590   3.654  13.990  1.5528 -1.6199  0.3617
11232TIP3    H255188   6.720   3.726  13.960  0.2075  0.6731 -0.2505
11233TIP3   OH255189   6.762   6.020  13.405 -0.8717 -0.2730 -0.2336
11233TIP3    H155190   6.771   5.989  13.315 -0.1341  1.7017 -0.9044
11233TIP3    H255191   6.733   6.111  13.396 -0.1099  0.1828  1.4874
11234TIP3   OH255192   2.445   4.391  11.148  0.4197  0.1439 -0.2021
11234TIP3    H155193   2.531   4.350  11.154  0.6322  0.7041  0.9725
11234TIP3    H255194   2.454   4.472  11.199 -1.3033 -0.6832  1.5619
11235TIP3   OH255195   0.993   0.167  11.770  0.7017  0.0012 -0.4998
11235TIP3    H155196   0.972   0.259  11.784 -0.3297 -0.2168 -0.5516
11235TIP3    H255197   1.088   0.166  11.757  0.8673  0.9263  0.4890
11236TIP3   OH255198   4.387   6.188   5.139  0.1647 -0.4583 -0.5294
11236TIP3    H155199   4.432   6.226   5.214 -0.7307  0.3975 -0.4018
11236TIP3    H255200   4.412   6.243   5.065  0.5772 -0.9392 -0.7483
11237TIP3   OH255201   1.301   3.701   2.699  0.5468 -0.0162  0.2593
11237TIP3    H155202   1.383   3.702   2.749  1.2289 -1.8204 -0.7180
11237TIP3    H255203   1.245   3.765   2.744  2.7871  2.0040  0.3984
11238TIP3   OH255204   4.637   2.312  15.496  0.1751 -0.3379  0.6084
11238TIP3    H155205   4.681   2.328  15.413 -1.1946  0.2300 -0.0325
11238TIP3    H255206   4.550   2.280  15.472 -0.1839 -0.3488  1.8289
11239TIP3   OH255207   2.075   2.916   3.474  0.2398  0.0720 -0.0006
11239TIP3    H155208   2.080   2.962   3.558  0.9595 -0.7806  0.4430
11239TIP3    H255209   2.165   2.913   3.442  0.3015 -1.4037  0.2223
11240TIP3   OH255210   1.692   1.479  14.141 -0.7004 -0.0444 -0.1574
11240TIP3    H155211   1.636   1.534  14.087  0.8549 -0.2049 -2.0471
11240TIP3    H255212   1.666   1.389  14.121  0.1198 -0.1171 -0.9724
11241TIP3   OH255213   4.000   2.562   5.121 -0.0158 -0.0287 -0.1416
11241TIP3    H155214   3.927   2.605   5.078 -1.4593 -1.9414  0.2493
11241TIP3    H255215   3.966   2.477   5.148  1.8288 -0.2946  1.6779
11242TIP3   OH255216   0.033   5.448  12.478  0.2035  0.8880  0.7023
11242TIP3    H155217   0.114   5.437  12.429 -0.4751 -0.1661 -0.2582
11242TIP3    H255218   0.020   5.364  12.523 -2.4771 -0.7431 -2.6170
11243TIP3   OH255219   1.374   6.504   1.487  0.1256 -0.0014  0.2583
11243TIP3    H155220   1.387   6.414   1.518 -1.0343 -0.0666  0.6113
11243TIP3    H255221   1.324   6.494   1.406 -2.0455  0.3562  1.4592
11244TIP3   OH255222   1.515   2.133  15.673  0.4283 -0.6727 -0.0285
11244TIP3    H155223   1.467   2.185  15.609  2.3059 -1.5373 -2.2922
11244TIP3    H255224   1.503   2.179  15.756 -0.4846  1.6148 -1.3463
11245TIP3   OH255225   0.939   4.167   1.978 -0.2110 -0.4292 -0.0058
11245TIP3    H155226   0.967   4.230   1.911  0.0153  0.4943  0.9225
11245TIP3    H255227   0.996   4.091   1.965  1.0218  0.4170  0.2099
11246TIP3   OH255228   6.041   3.013  12.368  0.3900  0.2409  0.3465
11246TIP3    H155229   6.019   2.943  12.430  0.5371  0.0049  0.1316
11246TIP3    H255230   5.958   3.054  12.347  0.0378 -1.1165 -1.0354
11247TIP3   OH255231   4.635   1.316   3.276  0.3294  0.2451 -0.0138
11247TIP3    H155232   4.626   1.244   3.339  1.2300 -0.9876 -1.2370
11247TIP3    H255233   4.703   1.372   3.314  0.6528 -0.3190  0.2581
11248TIP3   OH255234   3.726   3.920   0.540  0.3575  0.2940  0.1450
11248TIP3    H155235   3.731   3.856   0.611  1.0260 -0.3591 -0.4690
11248TIP3    H255236   3.670   3.879   0.474  1.7352 -0.1969 -0.7593
11249TIP3   OH255237   4.382   2.467  16.161  0.0941 -0.2463  0.2274
11249TIP3    H155238   4.395   2.552  16.202  1.2613 -0.7737  1.0081
11249TIP3    H255239   4.345   2.487  16.074  2.8457  1.2405 -0.7109
11250TIP3   OH255240   1.470   2.403  13.332 -0.4228 -0.5050 -0.2316
11250TIP3    H155241   1.487   2.317  13.293  2.4591 -0.9867  1.7980
11250TIP3    H255242   1.526   2.406  13.409 -2.0034  2.4290  0.9579
11251TIP3   OH255243   6.748   3.612  12.596 -0.4940  0.2133  0.2592
11251TIP3    H155244   6.799   3.630  12.674  0.1124 -0.2156 -0.0362
11251TIP3    H255245   6.760   3.519  12.579 -0.3266  0.3741 -0.5513
11252TIP3   OH255246   2.077   6.348  14.431  1.0087 -0.5463  0.7899
11252TIP3    H155247   2.169   6.354  14.405  0.4114 -0.4507 -1.4444
11252TIP3    H255248   2.036   6.295  14.363 -0.7453  0.0500  1.3297
11253TIP3   OH255249   2.528   6.072  15.049  0.0718  0.4924  0.0917
11253TIP3    H155250   2.537   5.988  15.006  2.8246 -0.4695  2.2337
11253TIP3    H255251   2.572   6.134  14.991 -0.3625  0.1349 -0.6344
11254TIP3   OH255252   3.051   4.660  14.986  0.6173  0.2877 -0.5138
11254TIP3    H155253   3.098   4.580  14.963  0.8275  0.4526 -0.6577
11254TIP3    H255254   3.119   4.718  15.022  0.4955  0.4643 -0.5661
11255TIP3   OH255255   0.520   1.546   1.499  0.2410  0.4630 -0.2599
11255TIP3    H155256   0.533   1.606   1.572 -0.4917 -0.2206  0.4524
11255TIP3    H255257   0.602   1.549   1.449  0.6642  1.0983  0.4689
11256TIP3   OH255258   3.174   1.163   2.901 -0.4111  0.3202  0.0010
11256TIP3    H155259   3.102   1.225   2.888 -0.8486 -0.2462 -0.2995
11256TIP3    H255260   3.209   1.147   2.813 -0.0884  0.3821  0.1142
11257TIP3   OH255261   3.570   5.844  13.850 -0.6390  0.1057  0.1637
11257TIP3    H155262   3.555   5.815  13.940  0.7372 -0.6742  0.1777
11257TIP3    H255263   3.485   5.837  13.807 -1.1171 -0.3881  1.1765
11258TIP3   OH255264   0.705   5.402   4.357  0.0720  0.1876  1.0987
11258TIP3    H155265   0.763   5.342   4.310 -0.9651  0.3612 -0.4906
11258TIP3    H255266   0.723   5.488   4.319 -0.1218  0.5005  1.6995
11259TIP3   OH255267   3.346   0.970   2.441  0.0410  0.2179 -0.2700
11259TIP3    H155268   3.258   0.940   2.416 -0.9806  1.0311  2.0390
11259TIP3    H255269   3.362   1.045   2.384 -0.8625  0.1764 -0.6052
11260TIP3   OH255270   0.690   2.870   2.086 -0.4712  0.0216 -0.5692
11260TIP3    H155271   0.732   2.789   2.057  0.3534  0.9217 -1.9520
11260TIP3    H255272   0.630   2.893   2.015 -2.0884 -0.3136  0.6181
11261TIP3   OH255273   2.396   0.845  16.522  0.5579  0.1753 -1.1133
11261TIP3    H155274   2.309   0.885  16.519 -0.5259 -1.8423  0.6528
11261TIP3    H255275   2.382   0.759  16.561  3.0341 -1.2247 -3.0029
11262TIP3   OH255276   2.542   2.997  15.769  0.2520  0.4290 -0.2232
11262TIP3    H155277   2.461   2.980  15.818  1.0880  0.4249  1.2021
11262TIP3    H255278   2.612   2.972  15.829  1.3537  1.6723 -0.9446
11263TIP3   OH255279   2.583   4.203   4.854 -0.1768 -0.6323 -0.5393
11263TIP3    H155280   2.640   4.257   4.800 -1.9235  0.1672 -1.6775
11263TIP3    H255281   2.554   4.260   4.924 -0.8002 -0.5389 -0.8636
11264TIP3   OH255282   0.489   1.006  15.185  0.4924  0.1533 -0.2681
11264TIP3    H155283   0.478   1.017  15.091  0.4335 -3.8212 -0.8983
11264TIP3    H255284   0.400   1.012  15.221  0.4297  0.9567 -0.5405
11265TIP3   OH255285   1.016   4.458   4.542  0.1344  0.1333 -0.2080
11265TIP3    H155286   0.999   4.364   4.531  1.8477 -0.1901 -0.2950
11265TIP3    H255287   0.935   4.492   4.580 -0.0333 -1.6355  1.1567
11266TIP3   OH255288   4.559   4.501  12.094  0.3992  0.2216  0.0084
11266TIP3    H155289   4.487   4.502  12.031  0.6649  0.0385 -0.3048
11266TIP3    H255290   4.611   4.578  12.072  0.0512  0.6137  0.5331
11267TIP3   OH255291   4.271   0.011  15.189 -0.6321  0.4670 -0.0400
11267TIP3    H155292   4.315  -0.021  15.267  0.0006  1.5361  0.0612
11267TIP3    H255293   4.335   0.001  15.118 -0.2849  1.7763  0.0580
11268TIP3   OH255294   4.531   3.943   2.733  0.4543  0.8017  0.3039
11268TIP3    H155295   4.529   3.990   2.649  0.1164 -0.7094 -0.5704
11268TIP3    H255296   4.516   3.852   2.710  1.5924  0.1656  1.9125
11269TIP3   OH255297   2.959   6.577  12.998 -0.4102 -0.0687 -0.4230
11269TIP3    H155298   2.943   6.553  12.907 -1.9919  0.3139 -0.2712
11269TIP3    H255299   3.036   6.635  12.994  0.8532 -1.7021 -1.2401
11270TIP3   OH255300   2.008   5.837  13.523 -0.1282 -0.2168  0.1867
11270TIP3    H155301   2.063   5.916  13.522 -1.2529  0.6287  1.4278
11270TIP3    H255302   1.919   5.870  13.512 -0.5009 -1.4777 -0.8236
11271TIP3   OH255303   5.359   2.990  17.135 -0.2968 -0.5219  0.1918
11271TIP3    H155304   5.314   3.033  17.208  2.5864  1.6605  0.9007
11271TIP3    H255305   5.410   3.060  17.095 -0.1157 -2.1334 -2.6221
11272TIP3   OH255306   4.654   4.657  10.604 -0.0498  0.5395 -0.3831
11272TIP3    H155307   4.661   4.751  10.589  1.7947  0.1621 -2.2710
11272TIP3    H255308   4.657   4.618  10.517 -1.8356 -1.2762  0.2855
11273TIP3   OH255309   0.561   0.767  15.347  0.1867  0.0422 -0.0732
11273TIP3    H155310   0.644   0.762  15.300  0.9046  0.8352  1.0490
11273TIP3    H255311   0.550   0.860  15.366 -1.4292  0.0735 -0.9768
11274TIP3   OH255312   1.906   6.644  15.692  0.0144  0.2152  0.3401
11274TIP3    H155313   1.949   6.574  15.742  0.4253  0.4744  0.3504
11274TIP3    H255314   1.840   6.679  15.752 -1.2916 -1.2083 -0.2057
11275TIP3   OH255315   4.154   6.436  14.087 -0.7177  0.4222  0.1695
11275TIP3    H155316   4.216   6.366  14.062 -2.0423 -0.0689 -1.9858
11275TIP3    H255317   4.090   6.392  14.143 -1.4996 -0.1057 -1.1133
11276TIP3   OH255318   2.154   0.144   1.079 -0.3919  0.7007 -0.2989
11276TIP3    H155319   2.211   0.127   1.004  1.1083 -0.5126  1.0505
11276TIP3    H255320   2.173   0.235   1.103  0.0007  0.7181 -0.6699
11277TIP3   OH255321   5.388   2.756  15.874  0.1781  0.1833  0.1012
11277TIP3    H155322   5.310   2.769  15.928 -0.0292 -0.0270 -0.1426
11277TIP3    H255323   5.391   2.661  15.860  2.1019 -0.2269  2.5364
11278TIP3   OH255324   6.598   0.222  13.529 -0.1779 -0.7778  0.5679
11278TIP3    H155325   6.551   0.139  13.520 -0.9241 -0.3543  0.5507
11278TIP3    H255326   6.544   0.286  13.484  1.5590 -0.6767 -1.5107
11279TIP3   OH255327   2.528   3.565  13.323 -0.6560 -0.1731 -0.3686
11279TIP3    H155328   2.477   3.612  13.389  0.0405 -0.3135  0.2847
11279TIP3    H255329   2.562   3.633  13.266 -1.9988 -0.1147 -1.1402
11280TIP3   OH255330   4.937   2.584  12.803 -0.1493 -0.1144 -0.3839
11280TIP3    H155331   4.916   2.623  12.889  0.2067 -0.9544  0.0924
11280TIP3    H255332   4.892   2.640  12.740 -1.3891 -0.1571  0.4299
11281TIP3   OH255333   3.073   2.979   5.532  0.4081 -0.1080 -0.1877
11281TIP3    H155334   3.091   2.895   5.573  0.4470 -0.7734 -1.5043
11281TIP3    H255335   2.984   3.001   5.561 -0.1162 -1.2616 -0.8665
11282TIP3   OH255336   4.110   3.620  13.193 -0.2127  0.5352  0.2869
11282TIP3    H155337   4.171   3.556  13.156  0.0493  1.0276 -0.1445
11282TIP3    H255338   4.040   3.567  13.232  0.8748 -0.0769  1.5127
11283TIP3   OH255339   2.783   6.506  14.679 -0.4819 -0.8030  0.3347
11283TIP3    H155340   2.781   6.585  14.733  0.2225 -1.7215  1.7700
11283TIP3    H255341   2.858   6.518  14.621 -0.2419 -0.4950  0.7011
11284TIP3   OH255342   4.718   0.038   6.057  0.2868  0.0023  0.1618
11284TIP3    H155343   4.639   0.015   6.105  0.6468  0.0537  0.7949
11284TIP3    H255344   4.738  -0.039   6.004 -1.5010  0.8240 -1.8309
11285TIP3   OH255345   1.606   6.820   0.572  0.1164 -0.0858 -0.2941
11285TIP3    H155346   1.644   6.844   0.657  1.5677  2.6180 -1.5502
11285TIP3    H255347   1.516   6.852   0.576 -0.2962 -1.2957  0.6891
11286TIP3   OH255348   0.163   0.298   5.644 -0.0699  0.0238  0.1650
11286TIP3    H155349   0.102   0.226   5.631  0.5757 -0.3753 -0.7416
11286TIP3    H255350   0.133   0.366   5.584  0.0049  0.0798  0.1907
11287TIP3   OH255351   5.738   4.558   1.617  0.6559 -0.0581  0.3112
11287TIP3    H155352   5.672   4.489   1.622  2.1607 -1.7011 -1.0094
11287TIP3    H255353   5.803   4.533   1.682  1.2758  0.0249 -0.2726
11288TIP3   OH255354   4.571   2.612   3.757  0.1742  0.2081 -0.1694
11288TIP3    H155355   4.579   2.701   3.723  2.7095  0.9427  2.0021
11288TIP3    H255356   4.631   2.560   3.704 -1.3107 -0.3150 -1.4411
11289TIP3   OH255357   6.641   6.322   5.723  0.0149 -0.3962  0.1897
11289TIP3    H155358   6.650   6.344   5.816 -0.8259  2.1104 -0.2678
11289TIP3    H255359   6.669   6.230   5.718  0.6335 -0.4300  2.8043
11290TIP3   OH255360   0.399   1.938   4.896 -0.0707  0.2939  0.2205
11290TIP3    H155361   0.349   1.861   4.870 -0.2543  0.7477 -0.8301
11290TIP3    H255362   0.448   1.962   4.817  0.2882  1.0115  0.6560
11291TIP3   OH255363   2.412   4.169  13.987  0.3511 -0.3553 -0.2377
11291TIP3    H155364   2.438   4.188  13.897  3.4477  0.8845  0.7571
11291TIP3    H255365   2.470   4.097  14.013 -0.8906 -1.0694  0.6302
11292TIP3   OH255366   0.558   3.492  12.062 -0.1333 -0.0192 -0.4307
11292TIP3    H155367   0.471   3.513  12.029  0.3078  1.2063 -0.8683
11292TIP3    H255368   0.542   3.446  12.145 -1.1955  0.0588 -0.5806
11293TIP3   OH255369   5.491   5.738  11.762 -0.8291 -0.2012 -0.4870
11293TIP3    H155370   5.571   5.724  11.811 -1.3011 -0.1344  0.3151
11293TIP3    H255371   5.518   5.791  11.687 -0.3480  0.9684  0.4834
11294TIP3   OH255372   2.145   3.371   2.312 -0.0318 -0.2078 -0.0845
11294TIP3    H155373   2.201   3.312   2.261  0.1720 -1.0757  1.1157
11294TIP3    H255374   2.083   3.313   2.356 -0.6440  0.5926  0.1300
11295TIP3   OH255375   5.286   6.366  10.571  0.2261 -0.4416 -0.0425
11295TIP3    H155376   5.250   6.348  10.485 -0.4686  1.4234 -0.2024
11295TIP3    H255377   5.261   6.291  10.624  0.7150 -1.6464 -1.4611
11296TIP3   OH255378   5.166   4.010   0.843  0.0064 -0.1451  0.5943
11296TIP3    H155379   5.235   4.075   0.829  0.2898 -0.2773  1.3512
11296TIP3    H255380   5.143   3.980   0.755  2.4757 -1.7355  0.4002
11297TIP3   OH255381   4.591   0.836   5.887  0.1154  0.1953 -0.3192
11297TIP3    H155382   4.606   0.745   5.863  1.1759 -0.6924  3.1330
11297TIP3    H255383   4.522   0.833   5.953  1.1698  1.6307  0.9416
11298TIP3   OH255384   5.542   4.700   3.288 -0.1281  0.0650 -0.2186
11298TIP3    H155385   5.594   4.628   3.253 -0.8067 -0.2488 -0.6094
11298TIP3    H255386   5.488   4.659   3.356  0.0488  0.3609  0.1005
11299TIP3   OH255387   0.030   1.838   0.901 -0.7566  0.2381 -0.1994
11299TIP3    H155388   0.074   1.916   0.869 -1.3468  0.3456 -0.7921
11299TIP3    H255389  -0.023   1.867   0.975 -2.6280  0.8782 -1.6963
11300TIP3   OH255390   2.735   3.306  17.080 -0.1452 -0.2666 -0.3486
11300TIP3    H155391   2.728   3.257  17.161  1.6693  0.3034  0.2004
11300TIP3    H255392   2.824   3.289  17.049  0.4447  2.3377 -0.3107
11301TIP3   OH255393   1.197   6.446  12.718  0.1791 -0.0110 -0.3806
11301TIP3    H155394   1.196   6.375  12.654  1.9328 -0.7784  0.3615
11301TIP3    H255395   1.149   6.411  12.793 -0.2095  0.1485 -0.5536
11302TIP3   OH255396   0.983   4.665   0.346  0.2216  0.2317  0.2137
11302TIP3    H155397   0.953   4.588   0.393  0.8547 -0.6097 -0.7212
11302TIP3    H255398   0.940   4.659   0.260 -0.0649  1.1570  0.2800
11303TIP3   OH255399   2.612   4.676   6.875 -0.5506 -0.4161  0.1289
11303TIP3    H155400   2.533   4.643   6.919 -1.3261  1.1287 -0.0286
11303TIP3    H255401   2.578   4.731   6.804  0.6876 -1.0543 -1.0045
11304TIP3   OH255402   2.279   2.169  16.756  0.8390 -0.1478 -0.1192
11304TIP3    H155403   2.317   2.094  16.711  1.9617  0.3978 -0.1111
11304TIP3    H255404   2.333   2.181  16.833  0.9017  0.8959 -0.3151
11305TIP3   OH255405   0.853   1.928  15.717 -0.2355  0.0035 -0.4534
11305TIP3    H155406   0.910   1.859  15.752 -1.1446 -0.8406 -0.6087
11305TIP3    H255407   0.907   1.973  15.652 -0.2967 -1.9513 -1.9317
11306TIP3   OH255408   5.492   2.169   2.441 -0.2819 -0.5948 -0.2480
11306TIP3    H155409   5.478   2.263   2.432  2.4341 -0.1584 -0.9072
11306TIP3    H255410   5.475   2.134   2.354 -0.3997 -0.5622 -0.2379
11307TIP3   OH255411   1.249   1.894   4.796 -0.4906 -0.9918  0.2828
11307TIP3    H155412   1.224   1.900   4.889 -0.2708 -1.1517  0.3502
11307TIP3    H255413   1.264   1.801   4.781 -2.0875 -1.1920 -0.3195
11308TIP3   OH255414   3.165   2.482   4.494  0.0053 -0.3067  0.5906
11308TIP3    H155415   3.225   2.532   4.437 -1.9581 -0.8433 -2.1221
11308TIP3    H255416   3.099   2.546   4.520 -1.5979 -0.9644 -1.5526
11309TIP3   OH255417   3.518   4.524   4.293 -0.4868 -0.1699 -0.0182
11309TIP3    H155418   3.466   4.540   4.372 -0.5146 -1.9955  0.3905
11309TIP3    H255419   3.548   4.433   4.303  1.6986  0.3873 -0.8715
11310TIP3   OH255420   4.332   6.431   2.374 -0.4608  0.1430  0.7945
11310TIP3    H155421   4.324   6.464   2.463 -0.3553  0.5432  0.6578
11310TIP3    H255422   4.370   6.343   2.384  1.9218  1.1098  1.0277
11311TIP3   OH255423   5.645   4.779   2.009 -0.1105 -0.2955 -0.0599
11311TIP3    H155424   5.706   4.708   2.030  0.4747 -1.0871 -3.7404
11311TIP3    H255425   5.701   4.856   1.998 -0.2739 -0.1155  0.3750
11312TIP3   OH255426   4.121   5.905   1.617 -0.0370  0.1362  0.1556
11312TIP3    H155427   4.063   5.831   1.637 -1.6273  1.2766 -0.0943
11312TIP3    H255428   4.194   5.865   1.570  0.3621 -1.6100  2.0726
11313TIP3   OH255429   5.190   4.655   2.790  0.0161  0.1363  0.2535
11313TIP3    H155430   5.136   4.675   2.713  0.3171 -1.9926 -0.5953
11313TIP3    H255431   5.183   4.732   2.845 -0.7194  1.5018 -1.6276
11314TIP3   OH255432   1.242   6.476   5.450  0.2613  0.3482  0.2237
11314TIP3    H155433   1.207   6.387   5.452  0.1907  0.3684  1.9418
11314TIP3    H255434   1.333   6.467   5.478 -0.1269  0.9158  1.8253
11315TIP3   OH255435   1.652   1.271   5.540  0.1153 -0.3426 -0.2356
11315TIP3    H155436   1.567   1.309   5.517 -0.9625 -0.8395  2.4905
11315TIP3    H255437   1.658   1.192   5.487 -1.5350 -0.7219  0.0965
11316TIP3   OH255438   3.523   6.041   3.256  0.3420 -0.1546 -0.6788
11316TIP3    H155439   3.531   5.948   3.234  1.9788  0.4553 -3.0187
11316TIP3    H255440   3.613   6.072   3.263 -0.1435  0.8823  2.2048
11317TIP3   OH255441   0.373   3.976   0.913 -0.3724  0.4463 -0.0655
11317TIP3    H155442   0.380   3.991   1.007  0.7442  1.7124 -0.3168
11317TIP3    H255443   0.326   3.893   0.905  0.2451 -0.1066  1.6155
11318TIP3   OH255444   5.701   6.720   4.861 -0.5099 -0.1011 -0.2920
11318TIP3    H155445   5.784   6.764   4.878  0.2652 -1.2856 -0.9206
11318TIP3    H255446   5.667   6.762   4.782  0.3412 -0.7584 -1.0284
11319TIP3   OH255447   2.192   4.924  11.156 -0.4004 -0.4492 -0.6835
11319TIP3    H155448   2.270   4.942  11.104 -0.7247 -2.3985 -1.9503
11319TIP3    H255449   2.211   4.841  11.200 -0.8442  0.2695  0.9533
11320TIP3   OH255450   4.665   1.785   6.027  0.2782  0.1121  0.4548
11320TIP3    H155451   4.671   1.760   5.935  1.2422  0.0486  0.5270
11320TIP3    H255452   4.578   1.755   6.054 -0.0557  0.2274 -0.4577
11321TIP3   OH255453   4.176   1.659  11.881 -0.1118 -0.1333 -0.0368
11321TIP3    H155454   4.212   1.591  11.939 -2.4430 -0.5969  0.9599
11321TIP3    H255455   4.085   1.667  11.906 -0.4690  1.8262 -1.6677
11322TIP3   OH255456   2.473   5.766   3.482 -0.0664  0.0208 -0.3849
11322TIP3    H155457   2.503   5.836   3.541 -1.4433  1.9524 -1.8477
11322TIP3    H255458   2.543   5.700   3.486  1.4507  1.6026  0.8309
11323TIP3   OH255459   6.106   5.702  14.339  0.4149 -0.1300 -0.2821
11323TIP3    H155460   6.068   5.774  14.388  1.7006  0.0662  0.4579
11323TIP3    H255461   6.173   5.742  14.285  1.9150 -0.8780  0.9570
11324TIP3   OH255462   4.674   5.121  12.893  0.4695  0.2134  0.3809
11324TIP3    H155463   4.623   5.115  12.812  0.6896 -2.3570  0.3560
11324TIP3    H255464   4.609   5.122  12.963  0.3227  0.2423  0.2449
11325TIP3   OH255465   2.540   6.683   0.190  0.1820 -0.7515  0.5991
11325TIP3    H155466   2.484   6.750   0.152  0.5383 -0.0503  1.2947
11325TIP3    H255467   2.613   6.675   0.129  0.1806 -0.4424  0.5563
11326TIP3   OH255468   1.644   5.754   5.494  0.2609 -0.1116 -0.1513
11326TIP3    H155469   1.586   5.721   5.426  2.0201  1.2122 -2.4139
11326TIP3    H255470   1.603   5.834   5.525 -2.2355 -2.2809  2.9044
11327TIP3   OH255471   1.909   6.839  12.478 -0.1734 -0.2096 -0.4262
11327TIP3    H155472   1.956   6.795  12.408  0.1831  0.5158 -0.6495
11327TIP3    H255473   1.817   6.831  12.454 -0.0717 -0.2493 -0.8118
11328TIP3   OH255474   4.618   1.319   4.274  0.1866  0.0127 -0.8033
11328TIP3    H155475   4.695   1.357   4.317  0.0452  0.3470 -0.8453
11328TIP3    H255476   4.647   1.232   4.246  0.2969 -0.1887 -0.0788
11329TIP3   OH255477   5.384   4.595   4.540  0.4684  0.5984 -0.4127
11329TIP3    H155478   5.405   4.598   4.633  0.0254  0.9391 -0.3257
11329TIP3    H255479   5.294   4.564   4.536  0.1943  1.4021 -0.6867
11330TIP3   OH255480   6.076   4.098   1.637 -0.0034 -0.7832 -0.4988
11330TIP3    H155481   6.103   4.190   1.634 -1.8439 -0.0030  2.1921
11330TIP3    H255482   5.980   4.102   1.642 -0.0837 -2.7478  0.6554
11331TIP3   OH255483   0.665   3.161  12.169  0.1034 -0.3236  0.3696
11331TIP3    H155484   0.630   3.239  12.213 -0.2101  0.3318 -0.9809
11331TIP3    H255485   0.699   3.107  12.240  0.0695  0.9155  1.3771
11332TIP3   OH255486   1.139   3.681  13.793  0.2959  0.1333  0.0864
11332TIP3    H155487   1.112   3.657  13.704 -0.3165  0.1979  0.2574
11332TIP3    H255488   1.180   3.767  13.783  2.3391 -0.8281 -0.4995
11333TIP3   OH255489   6.457   1.747   3.407  0.0210  0.1494 -0.0748
11333TIP3    H155490   6.392   1.679   3.421  0.2812  0.4379  3.5356
11333TIP3    H255491   6.541   1.703   3.418  0.2301  0.7626  0.9469
11334TIP3   OH255492   5.548   1.335  14.314 -0.4085  0.0418 -0.1067
11334TIP3    H155493   5.619   1.290  14.361 -0.7374  1.6400  2.0982
11334TIP3    H255494   5.470   1.319  14.368 -0.8707  1.7664 -0.2096
11335TIP3   OH255495   1.547   0.572   1.301 -0.1476  0.3773 -0.9804
11335TIP3    H155496   1.508   0.539   1.382  2.6170  0.8250  0.6914
11335TIP3    H255497   1.473   0.606   1.250 -2.0505 -0.3438  1.1282
11336TIP3   OH255498   0.692   3.712  15.134  0.0269 -0.3936 -0.1944
11336TIP3    H155499   0.609   3.725  15.089  0.5664  0.1024 -1.0797
11336TIP3    H255500   0.695   3.780  15.201 -0.5239 -0.7654  0.2129
11337TIP3   OH255501   6.597   2.141  11.102 -0.0098 -0.3135 -0.0582
11337TIP3    H155502   6.555   2.062  11.134 -0.7372  0.0897 -0.0080
11337TIP3    H255503   6.648   2.173  11.177  1.0294 -1.2213 -0.3538
11338TIP3   OH255504   3.840   5.550  16.007 -0.1757  0.1281  0.0507
11338TIP3    H155505   3.865   5.522  16.095 -1.8787 -0.8421  0.2637
11338TIP3    H255506   3.746   5.536  16.003 -0.3125  1.2227 -1.5651
11339TIP3   OH255507   3.851   1.001   2.598 -0.1635  0.1141  0.9270
11339TIP3    H155508   3.861   1.056   2.520  0.2241 -0.4029  0.6109
11339TIP3    H255509   3.762   0.966   2.590  0.1102 -0.4647  0.3732
11340TIP3   OH255510   5.826   0.518   1.367 -0.0581  0.1793  0.6588
11340TIP3    H155511   5.815   0.592   1.307  1.7228 -1.3235 -1.6850
11340TIP3    H255512   5.879   0.553   1.439  0.3136  1.3154 -0.1338
11341TIP3   OH255513   1.977   3.518  10.875 -0.1115 -0.0433 -0.2255
11341TIP3    H155514   1.962   3.490  10.785  0.0564 -0.0942 -0.2377
11341TIP3    H255515   2.044   3.458  10.908  1.2577  1.1840 -0.6744
11342TIP3   OH255516   3.188   0.569   5.982 -0.5687  0.2758  0.4644
11342TIP3    H155517   3.259   0.613   5.935  0.0045  1.4722  2.3609
11342TIP3    H255518   3.108   0.610   5.949 -0.2106  0.7416  0.1650
11343TIP3   OH255519   4.054   6.047   0.936  0.1914  0.5493  0.1707
11343TIP3    H155520   4.024   6.137   0.931  1.6973  1.2287  2.2837
11343TIP3    H255521   4.147   6.050   0.915 -0.1177 -0.8472 -1.6973
11344TIP3   OH255522   0.254   4.975   4.216 -0.0419 -0.6597 -0.0774
11344TIP3    H155523   0.169   4.943   4.245 -0.2379 -0.0188  0.0821
11344TIP3    H255524   0.317   4.936   4.277 -0.0790 -2.0984 -0.9171
11345TIP3   OH255525   1.390   6.066   3.282 -0.4705  0.3215 -0.3817
11345TIP3    H155526   1.452   6.002   3.317  1.0167  1.9004  0.0149
11345TIP3    H255527   1.355   6.109   3.360 -1.9382 -0.3993 -0.6149
11346TIP3   OH255528   6.474   4.265   4.312  0.0042  0.4081  0.1423
11346TIP3    H155529   6.455   4.279   4.219  0.9011  0.4938 -0.0338
11346TIP3    H255530   6.561   4.302   4.325  0.7558 -1.3644  0.5586
11347TIP3   OH255531   6.579   5.030  14.813 -0.3057 -0.1379  0.1646
11347TIP3    H155532   6.631   5.010  14.892  0.9692 -0.3995 -0.7028
11347TIP3    H255533   6.609   5.117  14.787  0.4997 -0.7293 -0.9465
11348TIP3   OH255534   2.932   4.655   5.637  0.0620  0.4722 -0.3423
11348TIP3    H155535   2.898   4.675   5.724 -0.8996 -1.5156 -0.1991
11348TIP3    H255536   2.883   4.711   5.578 -1.3800 -0.2388  0.1509
11349TIP3   OH255537   4.020   4.955  16.463 -0.1810 -0.2739 -0.2024
11349TIP3    H155538   4.038   4.934  16.371 -0.9295  0.3145 -0.4948
11349TIP3    H255539   4.107   4.964  16.503  0.1881  1.0144 -1.2244
11350TIP3   OH255540   6.046   6.271   6.175 -0.4740 -0.5175 -0.6089
11350TIP3    H155541   5.983   6.249   6.244  0.5928 -0.9766  0.2467
11350TIP3    H255542   5.997   6.327   6.115 -1.3224  0.2173  0.7267
11351TIP3   OH255543   5.898   1.788   2.680 -0.4813 -0.2689  0.4327
11351TIP3    H155544   5.852   1.850   2.623 -3.4458 -1.8089  0.9464
11351TIP3    H255545   5.935   1.843   2.749 -0.5468  1.1914 -0.6433
11352TIP3   OH255546   6.774   1.611  11.181  0.3085 -0.3148 -0.2761
11352TIP3    H155547   6.758   1.518  11.163  0.1446 -0.4133  0.3749
11352TIP3    H255548   6.753   1.622  11.273  0.2908  0.3814 -0.3579
11353TIP3   OH255549   6.311   3.238   5.237 -0.5148  0.3085  0.2951
11353TIP3    H155550   6.308   3.169   5.170 -2.4160  0.1075  0.5463
11353TIP3    H255551   6.348   3.314   5.191 -1.2336  0.0077 -0.8423
11354TIP3   OH255552   4.088   5.808  16.459 -0.0356 -0.3175 -0.8516
11354TIP3    H155553   4.062   5.872  16.526  1.7332 -0.3960 -0.0428
11354TIP3    H255554   4.038   5.833  16.381  0.4029  1.9124 -0.4867
11355TIP3   OH255555   6.037   2.979  16.995 -0.1610  0.4546  0.2017
11355TIP3    H155556   6.106   3.045  16.986  0.3158 -0.0915 -0.2732
11355TIP3    H255557   6.047   2.923  16.917 -0.9813  0.2193  0.2548
11356TIP3   OH255558   5.446   2.051  13.056  0.0407  0.1187  0.0909
11356TIP3    H155559   5.353   2.033  13.040  0.0035 -0.7850  1.2098
11356TIP3    H255560   5.457   2.144  13.035 -0.2321 -0.5648 -3.9803
11357TIP3   OH255561   6.765   0.816   4.408  0.4130  0.2646  0.2495
11357TIP3    H155562   6.761   0.894   4.464  0.1311  1.3378 -1.2070
11357TIP3    H255563   6.846   0.773   4.434  0.8753  1.3655  0.7097
11358TIP3   OH255564   1.775   1.521   3.556  0.2113 -0.3192 -0.5333
11358TIP3    H155565   1.865   1.519   3.588  0.0970 -0.4638 -0.2071
11358TIP3    H255566   1.722   1.501   3.634 -0.0429 -1.2893 -0.9364
11359TIP3   OH255567   5.337   1.953   4.190  0.3239  0.0519  0.0012
11359TIP3    H155568   5.410   1.976   4.134 -0.0156 -0.5770 -0.7085
11359TIP3    H255569   5.283   2.032   4.194  0.6215  0.2584 -0.1351
11360TIP3   OH255570   3.000   2.751  12.920 -0.0263  0.0953  0.3372
11360TIP3    H155571   2.943   2.734  12.995  1.7537 -4.2726  1.0280
11360TIP3    H255572   3.088   2.735  12.953  0.8471 -2.0950 -2.5997
11361TIP3   OH255573   1.154   2.405   2.606  0.3925 -0.0384 -0.0629
11361TIP3    H155574   1.232   2.354   2.585  2.1076  1.9150  1.1869
11361TIP3    H255575   1.142   2.392   2.701 -0.2783  0.3954 -0.0788
11362TIP3   OH255576   4.841   5.385  15.049 -0.0930  0.4720  0.3215
11362TIP3    H155577   4.898   5.309  15.060 -0.8935  0.0075  1.5876
11362TIP3    H255578   4.895   5.460  15.075  0.3066  0.1852  0.3260
11363TIP3   OH255579   6.100   1.848  16.372 -0.1405 -0.0186  0.0724
11363TIP3    H155580   6.104   1.797  16.291 -0.4298 -0.4757  0.3332
11363TIP3    H255581   6.191   1.869  16.392  0.0305 -0.8362  0.2013
11364TIP3   OH255582   4.422   3.988   3.027  0.4427 -0.2874 -0.2056
11364TIP3    H155583   4.403   4.010   2.935  0.0994 -0.1248 -0.0954
11364TIP3    H255584   4.355   3.924   3.051  1.3270 -1.3343 -0.4661
11365TIP3   OH255585   3.181   3.851  15.276  0.6745 -0.0458 -0.1565
11365TIP3    H155586   3.139   3.765  15.277 -0.1863  0.2403 -3.0306
11365TIP3    H255587   3.123   3.906  15.329 -0.9475 -0.4080 -1.4526
11366TIP3   OH255588   2.287   2.891  17.007 -0.7424 -0.1337  0.5774
11366TIP3    H155589   2.238   2.939  17.074 -0.9027 -2.3383  2.1494
11366TIP3    H255590   2.377   2.921  17.017 -0.6731 -0.7588  2.1706
11367TIP3   OH255591   5.639   2.451  16.878 -0.3313  0.7569  0.2865
11367TIP3    H155592   5.674   2.398  16.807 -0.1337 -0.3915  1.2178
11367TIP3    H255593   5.552   2.477  16.848 -1.3651 -1.9371  0.6486
11368TIP3   OH255594   3.441   6.469   1.488  0.0831  0.0593  0.2548
11368TIP3    H155595   3.472   6.419   1.413 -0.4378 -3.6553  2.2823
11368TIP3    H255596   3.357   6.506   1.459  1.0173  0.7710 -1.6834
11369TIP3   OH255597   5.856   3.159  12.067 -0.6345  0.6005  0.4115
11369TIP3    H155598   5.922   3.226  12.083  0.6644 -0.0237 -1.8168
11369TIP3    H255599   5.796   3.199  12.005 -1.6857  0.7340  1.4813
11370TIP3   OH255600   1.240   2.915  14.682  0.0654 -0.1646  0.2092
11370TIP3    H155601   1.282   2.910  14.596 -2.1746 -0.4865 -0.9632
11370TIP3    H255602   1.244   3.008  14.705  1.2247 -0.1629  0.0666
11371TIP3   OH255603   0.370   2.442  10.978  0.1255 -0.1715 -0.6157
11371TIP3    H155604   0.444   2.476  10.927  1.0797  1.7259  1.8241
11371TIP3    H255605   0.324   2.521  11.008  0.1857 -1.0821  2.1632
11372TIP3   OH255606   5.890   6.180   3.553 -0.1543  0.2076 -0.2624
11372TIP3    H155607   5.914   6.164   3.644 -0.7672  0.9996  0.0427
11372TIP3    H255608   5.805   6.138   3.543  0.2665 -0.5590 -0.6949
11373TIP3   OH255609   1.217   5.169   4.652  0.5304  0.0379  0.1073
11373TIP3    H155610   1.278   5.229   4.695  2.8418 -1.3872 -0.9627
11373TIP3    H255611   1.182   5.219   4.578 -0.7695  1.3381  1.5339
11374TIP3   OH255612   3.303   4.729   1.616  0.0571 -0.1454  0.0537
11374TIP3    H155613   3.212   4.710   1.592  0.2572  1.4620 -2.2950
11374TIP3    H255614   3.341   4.643   1.634 -1.7520 -0.8945  0.5546
11375TIP3   OH255615   1.353   3.945  14.097  0.6352  0.2664  0.0792
11375TIP3    H155616   1.393   3.927  14.182  0.3995  0.9231  0.3353
11375TIP3    H255617   1.302   4.025  14.111 -0.4794 -0.3564 -0.3380
11376TIP3   OH255618   4.835   5.059   5.688 -0.0865  0.2401 -0.0718
11376TIP3    H155619   4.773   5.078   5.617  0.2199 -2.1925 -1.0943
11376TIP3    H255620   4.800   5.107   5.763 -2.1079  0.5290 -1.1104
11377TIP3   OH255621   3.504   0.054  16.426 -0.2280  0.4351 -0.0163
11377TIP3    H155622   3.546   0.023  16.345  1.3190 -1.5617  1.4370
11377TIP3    H255623   3.489  -0.026  16.476 -0.6362  1.6693  1.9043
11378TIP3   OH255624   1.369   0.285   3.721 -0.9426 -0.0874  0.3152
11378TIP3    H155625   1.450   0.248   3.755  0.8282  1.9060 -1.4202
11378TIP3    H255626   1.319   0.309   3.799  0.3752 -0.8571  1.4432
11379TIP3   OH255627   3.332   2.115   0.997 -0.0215 -0.4668  0.0291
11379TIP3    H155628   3.426   2.112   1.013  0.2817 -0.8923 -1.6137
11379TIP3    H255629   3.292   2.116   1.084  1.5259  0.9237  0.7777
11380TIP3   OH255630   4.761   5.885   6.798 -0.0974 -0.0756  0.2058
11380TIP3    H155631   4.803   5.911   6.716  2.4465  2.0770  2.0226
11380TIP3    H255632   4.669   5.905   6.785  0.4299  1.4011 -1.7273
11381TIP3   OH255633   2.095   0.028   1.809  0.1583  0.2160  0.0994
11381TIP3    H155634   2.140   0.017   1.893  1.5691  2.8753 -0.1709
11381TIP3    H255635   2.156   0.081   1.757 -0.9613 -0.8009 -2.3793
11382TIP3   OH255636   3.173   4.779  13.077  0.2223 -0.6241  0.2084
11382TIP3    H155637   3.128   4.861  13.098  1.5599  0.3038 -0.4248
11382TIP3    H255638   3.226   4.760  13.154  1.7166  0.4004 -0.5241
11383TIP3   OH255639   6.059   0.379   0.449 -0.0622  0.4546 -0.0608
11383TIP3    H155640   6.088   0.377   0.540 -1.1144  0.1003  0.2748
11383TIP3    H255641   6.126   0.329   0.401  1.0378  1.4993  0.3419
11384TIP3   OH255642   3.239   3.974   3.327  0.0509  0.2027 -0.3165
11384TIP3    H155643   3.296   3.897   3.333  0.8783  0.5552 -2.7182
11384TIP3    H255644   3.181   3.966   3.403  1.9432 -1.2692  1.0915
11385TIP3   OH255645   2.289   3.065   0.470 -0.2000  0.2792  0.0831
11385TIP3    H155646   2.321   3.019   0.392 -0.6715 -0.5612  0.3777
11385TIP3    H255647   2.197   3.084   0.450 -0.0025  1.1135 -0.0413
11386TIP3   OH255648   5.396   6.743   2.372  0.2083  0.0266 -0.0291
11386TIP3    H155649   5.365   6.752   2.462 -0.2124  1.4646 -0.2934
11386TIP3    H255650   5.488   6.770   2.375 -0.3377  2.0794 -0.3469
11387TIP3   OH255651   3.557   5.054   3.278 -0.0094  0.4554  0.6410
11387TIP3    H155652   3.569   5.120   3.346 -0.0591 -0.7224  1.8370
11387TIP3    H255653   3.630   4.994   3.290  1.8635  1.8688 -2.4205
11388TIP3   OH255654   6.082   3.783   1.024  0.2569  1.1254  1.1520
11388TIP3    H155655   6.061   3.872   0.994  0.5678  1.1445  0.9884
11388TIP3    H255656   6.176   3.774   1.010 -0.1004 -0.0115 -0.9603
11389TIP3   OH255657   3.058   4.005   0.118 -0.0533 -0.7046 -0.5326
11389TIP3    H155658   3.030   3.966   0.035 -0.0845 -1.2064 -0.2862
11389TIP3    H255659   2.984   4.059   0.145  0.6523  0.9627 -1.7596
11390TIP3   OH255660   2.550   6.656  10.838  0.0966 -0.3295  0.7573
11390TIP3    H155661   2.571   6.566  10.816 -0.6068 -0.4687  0.6207
11390TIP3    H255662   2.455   6.662  10.827  0.1006  0.3552  1.0202
11391TIP3   OH255663   5.071   4.254   5.031  0.7650  0.6916 -0.2047
11391TIP3    H155664   5.028   4.184   5.081 -0.7939  2.0466  0.4316
11391TIP3    H255665   5.009   4.327   5.033  1.8230  1.6962 -1.8888
11392TIP3   OH255666   6.757   1.455  17.041 -0.6225 -0.0378  0.2182
11392TIP3    H155667   6.836   1.511  17.043 -0.1569 -0.6411 -0.6628
11392TIP3    H255668   6.771   1.393  17.112 -0.7675  0.4634  0.6918
11393TIP3   OH255669   4.176   6.819   2.485  0.3632  0.5004  0.5278
11393TIP3    H155670   4.118   6.751   2.452  0.3324  1.2352 -1.0581
11393TIP3    H255671   4.154   6.827   2.578 -0.1078 -1.1391  0.5846
11394TIP3   OH255672   2.563   2.789  16.347 -0.5659  0.4929  0.1606
11394TIP3    H155673   2.647   2.834  16.355  1.1825 -2.2992 -1.0546
11394TIP3    H255674   2.550   2.747  16.433  0.7934 -1.3743 -0.4878
11395TIP3   OH255675   5.468   6.104   0.367  0.5290 -0.5591 -0.3048
11395TIP3    H155676   5.536   6.038   0.360  0.1990 -1.5748  3.6022
11395TIP3    H255677   5.475   6.137   0.457 -1.5135  2.3171 -1.0290
11396TIP3   OH255678   5.544   3.801   4.541  1.2975  0.3154 -0.1397
11396TIP3    H155679   5.534   3.707   4.528 -0.9138  0.4202  0.4348
11396TIP3    H255680   5.524   3.815   4.634 -1.5313  1.6496 -0.8559
11397TIP3   OH255681   5.850   4.329  13.608  0.7199 -0.1376 -0.2742
11397TIP3    H155682   5.933   4.288  13.632 -0.0470 -0.6360  1.7133
11397TIP3    H255683   5.832   4.296  13.520  1.7546 -1.4374 -0.0363
11398TIP3   OH255684   4.703   6.290  12.199 -0.1410 -0.7035  0.0342
11398TIP3    H155685   4.635   6.223  12.210 -0.4337 -0.5098 -0.5135
11398TIP3    H255686   4.777   6.243  12.161  0.1843 -0.9972  1.0224
11399TIP3   OH255687   3.984   3.753  14.675  0.2135 -0.5965 -0.0541
11399TIP3    H155688   4.046   3.682  14.655  0.0113 -0.4537 -1.2522
11399TIP3    H255689   3.968   3.795  14.590 -0.2779  0.3872  0.5173
11400TIP3   OH255690   5.845   1.208   4.484 -0.5386 -0.1810 -0.5474
11400TIP3    H155691   5.769   1.266   4.480  0.3714  1.3323  1.6745
11400TIP3    H255692   5.909   1.248   4.425 -0.6512 -0.1150 -0.6259
11401TIP3   OH255693   5.316   0.218   5.787  0.4099  0.7445  0.3158
11401TIP3    H155694   5.305   0.210   5.692  1.7082 -0.3618  0.2181
11401TIP3    H255695   5.285   0.306   5.807 -2.2651  0.1511 -0.7349
11402TIP3   OH255696   4.011   4.189  15.833  0.3003  0.1751 -0.4338
11402TIP3    H155697   4.097   4.191  15.792  0.3388  0.5674 -0.3380
11402TIP3    H255698   3.975   4.103  15.810  0.9745 -0.2483  0.0620
11403TIP3   OH255699   3.330   1.181  12.259  0.1955  0.1735  0.3182
11403TIP3    H155700   3.425   1.186  12.269 -0.0379 -0.0448  3.5033
11403TIP3    H255701   3.302   1.118  12.325 -2.3452  1.8512  0.9637
11404TIP3   OH255702   6.452   3.909  14.278  0.0782  0.1592  0.3233
11404TIP3    H155703   6.384   3.845  14.257  0.1817  0.1524 -0.0054
11404TIP3    H255704   6.534   3.861  14.264  0.2463  1.0582 -2.4733
11405TIP3   OH255705   6.502   5.216   3.380 -0.0847 -0.5976 -0.1270
11405TIP3    H155706   6.585   5.258   3.405  0.2007 -0.4566 -1.2242
11405TIP3    H255707   6.475   5.168   3.458  1.5847 -1.5184 -0.0597
11406TIP3   OH255708   2.385   6.704   2.636 -0.3596  0.3986  0.5952
11406TIP3    H155709   2.450   6.683   2.702  0.7372  1.0574 -0.2300
11406TIP3    H255710   2.302   6.706   2.683  0.1482 -0.8792  1.5933
11407TIP3   OH255711   1.755   0.619   6.545 -0.2512 -0.5523 -0.4946
11407TIP3    H155712   1.774   0.672   6.467  0.4371  0.1361  0.1197
11407TIP3    H255713   1.679   0.662   6.584  1.6708  1.5318  1.2865
11408TIP3   OH255714   0.689   2.590   1.132 -0.4120  0.0251  0.0681
11408TIP3    H155715   0.735   2.632   1.059  0.1762  0.1827  0.5233
11408TIP3    H255716   0.629   2.529   1.089 -0.4206  0.4600 -0.5632
11409TIP3   OH255717   6.564   1.111  13.491  0.0662 -0.2732  0.1837
11409TIP3    H155718   6.522   1.032  13.525  0.5653 -0.3312  0.6672
11409TIP3    H255719   6.552   1.104  13.396 -2.2039  0.3783  0.3631
11410TIP3   OH255720   0.407   4.398  16.670 -0.6422 -0.1090 -0.3964
11410TIP3    H155721   0.441   4.373  16.756  0.1629 -0.9689 -0.9456
11410TIP3    H255722   0.317   4.426  16.687  0.1936  1.9587  1.0666
11411TIP3   OH255723   0.873   6.470   2.946 -0.2722  0.1536  0.0506
11411TIP3    H155724   0.836   6.495   3.030 -0.5556 -0.2117  0.0367
11411TIP3    H255725   0.837   6.383   2.929  2.0810 -1.1012  0.9798
11412TIP3   OH255726   6.078   4.445   5.250 -0.1851 -0.4460 -0.0842
11412TIP3    H155727   6.099   4.394   5.172 -2.3339 -1.2381 -0.2180
11412TIP3    H255728   5.982   4.444   5.254 -0.2113  1.6663  1.2095
11413TIP3   OH255729   2.369   4.067  11.313 -0.1145 -0.1937 -0.2758
11413TIP3    H155730   2.345   3.978  11.339 -1.2253  0.3614  0.6626
11413TIP3    H255731   2.440   4.091  11.373 -1.7212  0.5645  1.3970
11414TIP3   OH255732   6.340   6.472  12.421 -0.3975  0.2582 -0.1334
11414TIP3    H155733   6.290   6.480  12.340  1.2131 -0.1693 -1.2127
11414TIP3    H255734   6.343   6.378  12.439  0.3293  0.2473 -0.2898
11415TIP3   OH255735   5.174   6.536  15.986 -0.0440 -0.2038  0.1828
11415TIP3    H155736   5.087   6.564  16.015  0.5155  0.7124  1.0587
11415TIP3    H255737   5.157   6.466  15.923 -1.4620  1.0561 -0.9007
11416TIP3   OH255738   5.434   3.425   3.015 -0.1904  0.3341 -0.3019
11416TIP3    H155739   5.442   3.405   2.921  2.3800  0.7721 -0.2770
11416TIP3    H255740   5.418   3.341   3.057  0.2821 -0.1293 -1.0254
11417TIP3   OH255741   2.617   5.717  15.266  0.2905 -1.1443 -0.0974
11417TIP3    H155742   2.630   5.812  15.265 -0.2555 -1.0297  1.2367
11417TIP3    H255743   2.705   5.681  15.269  0.5086 -0.6916 -0.7436
11418TIP3   OH255744   6.662   2.041   6.205 -0.1422  0.0496 -0.1223
11418TIP3    H155745   6.705   2.078   6.282 -0.2545 -1.6813  0.8239
11418TIP3    H255746   6.682   2.103   6.135  0.7608  1.1900  1.0800
11419TIP3   OH255747   2.208   0.149   4.242  0.3676 -0.3017  0.4374
11419TIP3    H155748   2.293   0.112   4.219  0.3619  0.0829 -0.2368
11419TIP3    H255749   2.194   0.123   4.333  1.1048 -0.5514  0.4857
11420TIP3   OH255750   2.215   0.298  15.288  0.1729 -0.1630  0.1178
11420TIP3    H155751   2.120   0.292  15.282  0.2950 -0.9610 -2.5003
11420TIP3    H255752   2.247   0.223  15.239  2.0842  2.1198 -2.4949
11421TIP3   OH255753   1.275   3.817  11.878 -0.2725  0.4359 -0.1533
11421TIP3    H155754   1.281   3.912  11.883  0.9005  0.3080  1.6789
11421TIP3    H255755   1.181   3.799  11.888 -0.4582  1.3832 -0.0591
11422TIP3   OH255756   2.528   5.542   1.524  0.0343 -0.0355  0.2491
11422TIP3    H155757   2.598   5.526   1.460  0.3168 -1.3298  0.8393
11422TIP3    H255758   2.540   5.632   1.551  0.6213  0.1780 -0.6821
11423TIP3   OH255759   6.407   4.905   2.580 -0.7241  0.0408 -0.1380
11423TIP3    H155760   6.368   4.879   2.496  1.6128 -0.0584 -1.2734
11423TIP3    H255761   6.490   4.858   2.583 -1.2314 -0.8563  2.8188
11424TIP3   OH255762   0.740   5.800  11.183  0.4787 -0.0369  0.7685
11424TIP3    H155763   0.816   5.797  11.125  1.3694 -0.5730  1.9147
11424TIP3    H255764   0.674   5.747  11.139  0.7819  0.3915 -0.2212
11425TIP3   OH255765   2.464   3.984   1.414  0.2621 -0.1165  0.6372
11425TIP3    H155766   2.389   3.954   1.363 -0.2309  0.6433  0.9070
11425TIP3    H255767   2.490   4.067   1.373  1.5040 -0.7833  0.0002
11426TIP3   OH255768   5.546   5.893  11.549  0.2028 -0.0273 -0.0804
11426TIP3    H155769   5.596   5.874  11.470  2.6579  2.3424  0.7280
11426TIP3    H255770   5.465   5.933  11.518  0.1437 -1.0974 -1.3838
11427TIP3   OH255771   5.293   3.036  14.171  0.4415 -0.5937  1.0525
11427TIP3    H155772   5.307   3.074  14.085  1.4693 -0.3833  1.2962
11427TIP3    H255773   5.381   3.026  14.208  0.0006 -0.2581  2.2541
11428TIP3   OH255774   5.706   6.815   5.301  0.3747 -0.1529  0.8207
11428TIP3    H155775   5.717   6.720   5.292 -1.0940 -0.1927 -1.6521
11428TIP3    H255776   5.787   6.852   5.268  0.9098 -0.5145  1.6893
11429TIP3   OH255777   4.841   3.847  10.397 -0.1304 -0.2201  0.3058
11429TIP3    H155778   4.785   3.890  10.334 -1.1611 -0.8041  0.8003
11429TIP3    H255779   4.918   3.904  10.404  0.1167 -0.2462 -1.6066
11430TIP3   OH255780   2.263   1.702   5.094  0.1367 -0.6846 -0.3667
11430TIP3    H155781   2.191   1.639   5.089 -0.7767  0.2030  0.9557
11430TIP3    H255782   2.222   1.786   5.075  0.6441 -0.0526  1.2197
11431TIP3   OH255783   6.259   2.449   1.682  0.6677  0.2958 -0.3484
11431TIP3    H155784   6.191   2.471   1.746 -0.3257  0.0424 -1.2841
11431TIP3    H255785   6.331   2.413   1.734 -0.3681 -0.4920  0.5827
11432TIP3   OH255786   1.870   3.996   2.444 -0.8277  0.0689 -0.5057
11432TIP3    H155787   1.944   4.046   2.479  0.8737 -0.8453 -2.6058
11432TIP3    H255788   1.797   4.017   2.503  0.6257  2.4099  0.6024
11433TIP3   OH255789   2.191   6.758   2.052  0.3186 -0.1576 -0.4380
11433TIP3    H155790   2.266   6.802   2.093  0.3014 -1.7599  1.5063
11433TIP3    H255791   2.228   6.676   2.018 -0.2061 -0.0801 -1.2142
11434TIP3   OH255792   1.793   5.379   4.179  0.2111  0.7308  0.0109
11434TIP3    H155793   1.835   5.375   4.265  2.0975 -1.6824 -0.9245
11434TIP3    H255794   1.825   5.302   4.132 -0.9321  1.8289 -2.8085
11435TIP3   OH255795   6.124   4.858  13.385 -0.1661  0.0501  0.2379
11435TIP3    H155796   6.201   4.910  13.407  2.2888 -3.3226  0.5349
11435TIP3    H255797   6.078   4.845  13.468  0.4659 -0.0886  0.5694
11436TIP3   OH255798   3.752   3.160  12.336  0.2411 -0.2478  0.2330
11436TIP3    H155799   3.817   3.165  12.406  1.2146 -1.3352 -0.5519
11436TIP3    H255800   3.684   3.102  12.370  1.6907 -2.4514 -0.3991
11437TIP3   OH255801   4.312   4.948  16.471  0.2056 -0.2919  0.7958
11437TIP3    H155802   4.318   4.857  16.442  1.1903  0.4108 -1.3947
11437TIP3    H255803   4.395   4.965  16.516  0.3277 -0.2821  0.5694
11438TIP3   OH255804   2.931   6.457   3.426  0.1590 -0.2883  0.0538
11438TIP3    H155805   2.866   6.398   3.463  1.4704 -1.3380  0.7749
11438TIP3    H255806   2.896   6.480   3.340 -1.0924 -0.9052  0.3747
11439TIP3   OH255807   2.641   3.940  11.013 -0.3132 -0.0253  0.0593
11439TIP3    H155808   2.616   3.853  11.043 -3.6326 -0.3190 -2.8497
11439TIP3    H255809   2.559   3.978  10.982  0.8750  4.4230  1.6240
11440TIP3   OH255810   0.784   4.234  12.132 -0.1116 -0.9090  0.7102
11440TIP3    H155811   0.747   4.301  12.188 -1.6889 -0.6632 -0.5379
11440TIP3    H255812   0.865   4.208  12.175 -1.1385 -0.6056  2.9691
11441TIP3   OH255813   1.248   5.069  16.335 -0.6130 -0.6066  0.6166
11441TIP3    H155814   1.201   5.064  16.252 -2.1699 -0.3131  1.4491
11441TIP3    H255815   1.259   4.978  16.361 -1.9852 -0.6612  1.0790
11442TIP3   OH255816   3.199   0.356  15.196 -0.1894 -0.0973  0.1478
11442TIP3    H155817   3.254   0.389  15.125 -0.0607  0.7482  0.6362
11442TIP3    H255818   3.198   0.426  15.261  0.5859 -1.2679  1.4870
11443TIP3   OH255819   6.106   3.545  10.948 -0.3499 -0.2480 -0.2305
11443TIP3    H155820   6.040   3.610  10.973  0.3467  0.2288  0.4196
11443TIP3    H255821   6.057   3.463  10.941 -0.9693  0.0411  0.5166
11444TIP3   OH255822   6.382   5.802  11.657  0.3334  0.2330 -0.7806
11444TIP3    H155823   6.468   5.811  11.697 -0.0386  2.2085 -0.3270
11444TIP3    H255824   6.396   5.822  11.564  0.1451  2.0694 -0.4390
11445TIP3   OH255825   2.399   6.061  12.690  0.3737  0.2980  0.1837
11445TIP3    H155826   2.446   6.083  12.771 -0.2333  2.2173  0.0476
11445TIP3    H255827   2.427   6.127  12.627 -1.8993  1.0266 -0.1312
11446TIP3   OH255828   0.278   2.879  13.586 -0.1270  0.0854 -0.0093
11446TIP3    H155829   0.308   2.913  13.502 -2.1774  0.1988 -0.7465
11446TIP3    H255830   0.310   2.789  13.589 -1.0270 -0.3099 -1.4681
11447TIP3   OH255831   2.687   6.515   1.503 -0.5017  0.3559 -0.0713
11447TIP3    H155832   2.703   6.570   1.580  0.0198  0.1707 -0.0452
11447TIP3    H255833   2.669   6.577   1.432 -1.1284  0.5243  0.2255
11448TIP3   OH255834   6.766   2.018   2.342 -0.4194 -0.3478  0.1178
11448TIP3    H155835   6.683   1.986   2.378 -0.0932 -1.2532  0.0876
11448TIP3    H255836   6.832   1.987   2.404 -0.0570 -0.0332 -0.1098
11449TIP3   OH255837   6.814   0.070  13.469  0.2998 -0.0396  0.1764
11449TIP3    H155838   6.769   0.153  13.485 -0.2463 -0.2117 -0.3892
11449TIP3    H255839   6.857   0.049  13.552 -1.7700 -0.5255  1.1943
11450TIP3   OH255840   3.026   5.622   5.616 -0.6202  0.3162  0.4890
11450TIP3    H155841   2.932   5.638   5.613 -0.7027 -0.2405 -0.6445
11450TIP3    H255842   3.045   5.602   5.707 -1.8273 -0.8481  0.5068
11451TIP3   OH255843   0.926   4.735  12.711  0.0590 -0.5774 -0.8016
11451TIP3    H155844   0.911   4.641  12.702 -0.2595 -0.7624  1.1492
11451TIP3    H255845   0.929   4.750  12.806 -0.9236  1.5414 -1.0454
11452TIP3   OH255846   5.434   3.679  14.618  0.1742  1.0742 -0.2117
11452TIP3    H155847   5.471   3.733  14.548  0.4861  0.3168 -0.6519
11452TIP3    H255848   5.352   3.721  14.640  0.3231  1.6231 -0.6756
11453TIP3   OH255849   2.940   6.387  13.760  0.4984  0.5578 -0.4597
11453TIP3    H155850   2.871   6.406  13.697 -1.5946 -0.8191  1.2554
11453TIP3    H255851   2.907   6.422  13.843  1.8379 -0.2024  0.4411
11454TIP3   OH255852   4.000   1.439   1.542 -0.3403 -0.7374  0.3892
11454TIP3    H155853   4.043   1.514   1.500  2.9119 -1.6438  1.7288
11454TIP3    H255854   3.981   1.468   1.631 -2.1358 -0.5364 -0.0254
11455TIP3   OH255855   4.077   4.815   5.968 -0.2297 -0.0069 -0.2072
11455TIP3    H155856   4.104   4.756   6.039 -0.9614  0.6240  0.6271
11455TIP3    H255857   4.002   4.771   5.928 -2.5983  1.5175  2.2068
11456TIP3   OH255858   3.875   5.816   2.984  0.0519 -0.0210  0.4415
11456TIP3    H155859   3.956   5.806   2.935 -0.5660 -0.9883 -0.4207
11456TIP3    H255860   3.806   5.804   2.919 -0.8122  1.8492  0.9379
11457TIP3   OH255861   0.125   1.869   1.556  0.0066 -0.0921  0.5576
11457TIP3    H155862   0.217   1.890   1.575  0.3555 -1.6097  0.7184
11457TIP3    H255863   0.119   1.775   1.570 -1.9121  0.1690  1.8590
11458TIP3   OH255864   3.214   6.113   5.399 -0.5455 -0.6522  0.2054
11458TIP3    H155865   3.164   6.097   5.479  0.1782 -2.2578  0.3847
11458TIP3    H255866   3.289   6.054   5.406  0.0419 -0.1177 -1.2134
11459TIP3   OH255867   5.886   4.358  16.094 -0.2921 -0.1361 -0.0643
11459TIP3    H155868   5.791   4.360  16.097 -0.2725 -0.3531  1.7440
11459TIP3    H255869   5.913   4.442  16.132  0.2783  0.7298 -2.2106
11460TIP3   OH255870   2.144   3.211  15.445 -0.2862  0.4148  0.2925
11460TIP3    H155871   2.110   3.169  15.524  0.4065 -0.6086  0.0755
11460TIP3    H255872   2.099   3.167  15.373 -0.9214  1.3486  0.1099
11461TIP3   OH255873   1.018   6.249  13.517  0.0873  0.1131 -0.6063
11461TIP3    H155874   0.931   6.264  13.556  0.6180  2.2401 -0.0559
11461TIP3    H255875   1.039   6.158  13.538 -0.8825  0.3414  1.6378
11462TIP3   OH255876   3.706   3.068  15.778  0.0697  0.2862 -0.1871
11462TIP3    H155877   3.690   3.068  15.872 -0.5526  1.3937 -0.2744
11462TIP3    H255878   3.622   3.043  15.739  1.0337 -3.0362 -0.4091
11463TIP3   OH255879   2.857   3.085  14.624 -0.4407  0.2042  0.0699
11463TIP3    H155880   2.871   3.018  14.556 -1.2808  0.5074 -0.4147
11463TIP3    H255881   2.827   3.162  14.576  2.2419  1.5547  0.4080
11464TIP3   OH255882   6.033   5.837   2.641  0.0410 -0.0798 -0.1797
11464TIP3    H155883   6.003   5.749   2.620 -2.2969  0.6459 -0.0696
11464TIP3    H255884   6.127   5.835   2.621 -0.4219 -1.8384 -2.6207
11465TIP3   OH255885   2.698   1.366  14.553 -0.0636  0.8833  0.2309
11465TIP3    H155886   2.674   1.444  14.603 -0.4071  0.5198  0.6418
11465TIP3    H255887   2.741   1.309  14.617  0.0552  0.6742 -0.0329
11466TIP3   OH255888   1.000   0.110   4.770  0.2897 -0.4111 -0.0067
11466TIP3    H155889   1.045   0.079   4.849  0.6583  0.9333  0.3258
11466TIP3    H255890   0.949   0.034   4.741  1.2936 -1.3859  0.6801
11467TIP3   OH255891   6.831   1.459  13.247  0.3511 -0.6061 -0.0432
11467TIP3    H155892   6.885   1.384  13.272  2.6418  1.3897  1.4829
11467TIP3    H255893   6.778   1.477  13.325  2.0297  1.1043  0.7753
11468TIP3   OH255894   3.926   0.118   5.249 -0.0240  0.1065  0.6355
11468TIP3    H155895   4.005   0.162   5.217 -0.9958  2.2787  1.0585
11468TIP3    H255896   3.954   0.074   5.329  1.6644 -2.6642 -1.2967
11469TIP3   OH255897   3.905   6.407  13.048  0.6965 -0.2548 -0.5841
11469TIP3    H155898   3.863   6.466  12.985 -0.9470  0.3394  0.9699
11469TIP3    H255899   3.882   6.319  13.017 -1.9331  0.0443  0.2244
11470TIP3   OH255900   1.596   2.880   3.055 -0.1278  0.2373  0.2408
11470TIP3    H155901   1.596   2.872   3.151 -1.7776  0.0685  0.2569
11470TIP3    H255902   1.539   2.955   3.038 -2.0763 -1.3657 -0.6769
11471TIP3   OH255903   2.968   2.870  12.501  0.4354 -0.0309  0.0941
11471TIP3    H155904   2.931   2.866  12.590 -0.4580 -0.0233 -0.2694
11471TIP3    H255905   3.053   2.912  12.513  0.3809 -0.1418  0.9680
11472TIP3   OH255906   3.810   4.002   5.093 -0.0915  0.1898  0.2496
11472TIP3    H155907   3.867   4.026   5.019 -0.1824 -1.0137 -0.2259
11472TIP3    H255908   3.745   4.073   5.097  0.0092  0.3479 -0.7324
11473TIP3   OH255909   1.080   4.014  13.631 -0.1103  0.1327 -0.4120
11473TIP3    H155910   0.988   3.991  13.622  0.1851 -1.1120 -0.4292
11473TIP3    H255911   1.103   3.987  13.720  0.1761  0.6884 -0.3113
11474TIP3   OH255912   1.538   5.093  14.277 -0.2435 -0.0389 -0.3597
11474TIP3    H155913   1.491   5.162  14.323  2.3403  2.0662 -0.6349
11474TIP3    H255914   1.570   5.134  14.197  1.3358 -1.5338 -0.5819
11475TIP3   OH255915   3.353   2.880   5.542  0.1821  0.3366  0.5346
11475TIP3    H155916   3.409   2.828   5.599  1.8267 -1.4318 -2.4406
11475TIP3    H255917   3.274   2.827   5.530  1.1787 -0.8190 -1.2295
11476TIP3   OH255918   2.733   3.314   3.381  0.1633  0.5584  0.0355
11476TIP3    H155919   2.801   3.295   3.446  1.6203  1.3197 -1.2038
11476TIP3    H255920   2.739   3.408   3.366 -0.2351  0.4182 -1.1026
11477TIP3   OH255921   0.119   2.630   3.061 -0.2185 -0.0565  0.7337
11477TIP3    H155922   0.128   2.707   3.116 -2.3204 -0.0601  1.1828
11477TIP3    H255923   0.070   2.661   2.984  0.4776 -0.5837  0.0593
11478TIP3   OH255924   6.119   1.906   5.492 -0.2811  0.4028 -0.0465
11478TIP3    H155925   6.171   1.891   5.412  0.6232  1.0313  0.4085
11478TIP3    H255926   6.111   1.819   5.531  1.2385  0.4102  0.3453
11479TIP3   OH255927   4.798   0.482  15.238  0.3697 -0.4996  0.4724
11479TIP3    H155928   4.811   0.534  15.158  2.1620 -1.1239  0.3033
11479TIP3    H255929   4.825   0.394  15.213  2.4339 -0.4157  2.1274
11480TIP3   OH255930   2.027   2.957   1.922 -0.6166  0.5734  0.5863
11480TIP3    H155931   2.026   2.926   1.832 -0.7399  1.2458  0.3532
11480TIP3    H255932   1.960   3.025   1.925  1.4671  2.7477  0.3963
11481TIP3   OH255933   1.337   4.975  15.957  0.0240  0.6011 -0.5188
11481TIP3    H155934   1.371   5.051  16.004  1.6468 -1.6051  2.2383
11481TIP3    H255935   1.408   4.911  15.962 -1.3645 -1.2234 -2.4634
11482TIP3   OH255936   5.006   4.758   0.064  0.6983  0.0172  0.7584
11482TIP3    H155937   5.001   4.847   0.028  1.1817 -0.4087 -0.3980
11482TIP3    H255938   5.071   4.714   0.009  1.3900 -0.6913  2.1087
11483TIP3   OH255939   4.740   0.664  12.110 -0.0585 -0.1287 -0.1542
11483TIP3    H155940   4.758   0.604  12.037  0.8080  0.1414 -0.1733
11483TIP3    H255941   4.752   0.611  12.188 -1.2408 -0.4859 -0.2026
11484TIP3   OH255942   0.762   0.076   6.308  0.1113  0.0484 -0.3334
11484TIP3    H155943   0.730   0.165   6.293  1.8922  0.8117  0.2292
11484TIP3    H255944   0.785   0.073   6.400 -0.1928 -1.1067 -0.2739
11485TIP3   OH255945   5.913   4.957   0.864 -0.0450  0.2037  0.5524
11485TIP3    H155946   5.868   5.013   0.801  1.2285 -0.2687 -0.8246
11485TIP3    H255947   5.843   4.911   0.910 -1.0150  0.6759 -0.4130
11486TIP3   OH255948   0.564   5.456  15.890  0.0263  0.1711  0.0971
11486TIP3    H155949   0.649   5.492  15.914 -0.6727  2.2321 -0.3513
11486TIP3    H255950   0.508   5.472  15.966 -0.8202  1.9492 -0.8546
11487TIP3   OH255951   6.390   0.535   5.782  0.6334 -0.2079  0.1741
11487TIP3    H155952   6.360   0.452   5.819  0.7516 -1.2528 -1.9424
11487TIP3    H255953   6.483   0.523   5.768  0.2760 -0.6492 -2.2710
11488TIP3   OH255954   6.251   2.305   4.729 -0.1503  0.0742 -0.2481
11488TIP3    H155955   6.317   2.279   4.793  0.0758 -0.5547 -0.7226
11488TIP3    H255956   6.229   2.223   4.683 -3.1351 -0.3129  1.6088
11489TIP3   OH255957   1.385   2.077   1.814 -0.4789 -0.0176  0.4623
11489TIP3    H155958   1.446   2.039   1.878 -0.0696 -0.6984 -0.3221
11489TIP3    H255959   1.302   2.032   1.831 -0.4208 -0.0689  0.6183
11490TIP3   OH255960   4.227   6.103   5.336  0.3243 -0.5933  0.1842
11490TIP3    H155961   4.228   6.010   5.356 -0.1588 -0.8196 -0.7564
11490TIP3    H255962   4.295   6.114   5.270 -0.3479 -0.4921 -0.5088
11491TIP3   OH255963   0.915   0.210   0.735 -0.0915 -0.2139  0.3124
11491TIP3    H155964   0.973   0.165   0.675 -0.4118 -3.0073  1.9302
11491TIP3    H255965   0.834   0.223   0.686  0.2615 -0.7398 -0.4274
11492TIP3   OH255966   0.554   1.835   0.455  0.2422  0.0172  0.1275
11492TIP3    H155967   0.476   1.890   0.443  1.5721  1.7693 -0.9750
11492TIP3    H255968   0.606   1.881   0.520  1.7369  0.5213 -1.3687
11493TIP3   OH255969   0.682   2.271  15.045  0.4511  0.8116 -0.9238
11493TIP3    H155970   0.717   2.301  15.129 -1.4746  0.3902  0.0794
11493TIP3    H255971   0.646   2.350  15.005  0.3174  0.8151 -0.7997
11494TIP3   OH255972   3.565   5.306   5.448 -0.3317 -0.3744 -0.0132
11494TIP3    H155973   3.625   5.286   5.520 -2.2539 -1.1825  1.4469
11494TIP3    H255974   3.621   5.310   5.371  2.1965  2.7420  1.7394
11495TIP3   OH255975   3.924   4.453   1.484  0.4356  0.0104 -0.4254
11495TIP3    H155976   3.889   4.478   1.569  0.5658  0.5397 -0.5257
11495TIP3    H255977   3.850   4.416   1.437  0.1414  0.6158 -0.4376
11496TIP3   OH255978   6.646   4.278   0.744 -0.1716 -0.4411 -0.0297
11496TIP3    H155979   6.644   4.299   0.651  0.5491  0.3164  0.1240
11496TIP3    H255980   6.596   4.196   0.750  0.1776 -0.7550 -1.1406
11497TIP3   OH255981   3.018   4.928  15.659 -0.5238  0.3962 -0.0798
11497TIP3    H155982   3.010   4.848  15.711 -0.2214  0.6311  0.3305
11497TIP3    H255983   3.108   4.957  15.673 -0.4730  0.5203 -0.6514
11498TIP3   OH255984   5.417   6.461  17.076 -0.3142 -0.0181  0.8545
11498TIP3    H155985   5.330   6.497  17.055  1.0361  2.3245 -1.2695
11498TIP3    H255986   5.446   6.421  16.994  0.8086 -0.3440  1.4044
11499TIP3   OH255987   2.140   5.363   4.132 -0.2300  0.2632  0.2337
11499TIP3    H155988   2.227   5.326   4.117  0.8556  2.3221  0.9474
11499TIP3    H255989   2.156   5.457   4.142 -1.9780  0.3194  4.4373
11500TIP3   OH255990   0.326   2.170   0.424 -0.4250 -0.7695  0.2365
11500TIP3    H155991   0.264   2.230   0.466  1.0705 -0.7377  2.6056
11500TIP3    H255992   0.274   2.093   0.402 -1.7402  0.1504  0.0397
11501TIP3   OH255993   6.085   3.664   1.740  0.3816 -0.0284  0.2439
11501TIP3    H155994   6.098   3.584   1.791  1.2623  0.5002  0.8790
11501TIP3    H255995   5.991   3.679   1.741  0.3897  0.0575  1.8821
11502TIP3   OH255996   0.073   6.049   3.764 -0.2781 -0.1415  0.0198
11502TIP3    H155997   0.046   6.140   3.778  0.2668  0.0285  0.0290
11502TIP3    H255998   0.151   6.039   3.818 -1.2549 -1.1185  1.2904
11503TIP3   OH255999   3.576   6.048  12.397  0.7571  0.2871 -0.0893
11503TIP3    H156000   3.484   6.074  12.391  0.9437  0.6684 -2.1794
11503TIP3    H256001   3.621   6.126  12.430  0.4978  0.5193 -0.2830
11504TIP3   OH256002   1.775   1.987  13.406  0.3362  0.0626  0.0776
11504TIP3    H156003   1.865   1.954  13.411  0.3500  0.0149 -0.4272
11504TIP3    H256004   1.727   1.918  13.360  0.1259  0.2680 -0.0112
11505TIP3   OH256005   3.218   6.290  13.807 -0.2731 -0.4878 -0.2326
11505TIP3    H156006   3.122   6.293  13.807 -0.3034  1.2993 -2.3087
11505TIP3    H256007   3.240   6.226  13.738  0.0193 -0.4778 -0.1494
11506TIP3   OH256008   4.426   3.739   0.953  0.0121  0.7289 -0.3380
11506TIP3    H156009   4.495   3.763   0.890  0.2178  1.1006  0.0236
11506TIP3    H256010   4.469   3.678   1.013 -0.9061 -1.9294 -2.1676
11507TIP3   OH256011   3.818   1.115  14.556 -0.3848 -0.3304 -0.0184
11507TIP3    H156012   3.858   1.174  14.619 -0.3863 -0.4170  0.0636
11507TIP3    H256013   3.781   1.044  14.609 -0.2648 -0.4750 -0.1260
11508TIP3   OH256014   3.827   4.606  10.757  0.2008  0.1627  0.4510
11508TIP3    H156015   3.806   4.688  10.713  0.5339 -0.7231 -1.4651
11508TIP3    H256016   3.921   4.595  10.742  0.7605  0.7204  3.0365
11509TIP3   OH256017   1.832   2.256  15.819  0.5627  0.0474 -0.0815
11509TIP3    H156018   1.927   2.249  15.818  0.7040  1.5018 -1.6034
11509TIP3    H256019   1.805   2.207  15.897  2.5730  0.0226  0.6576
11510TIP3   OH256020   0.452   2.849   3.883 -0.4233 -0.7118 -0.7405
11510TIP3    H156021   0.480   2.838   3.792  1.0412 -3.7523 -0.0657
11510TIP3    H256022   0.502   2.924   3.915 -0.9246  0.3640 -2.3846
11511TIP3   OH256023   4.827   1.038  13.204 -0.6843 -0.1551  0.6381
11511TIP3    H156024   4.854   1.118  13.249  0.5235  0.1418 -0.5636
11511TIP3    H256025   4.906   1.007  13.160 -0.8070 -2.6294  1.9463
11512TIP3   OH256026   4.042   6.137   3.462 -0.1610  0.5793 -0.5135
11512TIP3    H156027   4.080   6.185   3.536  1.1898 -0.5394 -0.4402
11512TIP3    H256028   4.108   6.145   3.393 -0.0341 -0.9186 -0.5893
11513TIP3   OH256029   2.379   3.935   2.943 -0.1362 -0.8712  0.7069
11513TIP3    H156030   2.390   3.841   2.958  0.0316 -1.0249 -0.3275
11513TIP3    H256031   2.334   3.941   2.859 -1.5985 -0.0631  1.4867
11514TIP3   OH256032   2.488   5.761   5.623  0.4744  0.4135  0.2928
11514TIP3    H156033   2.539   5.747   5.543 -0.1161 -1.1423  0.1646
11514TIP3    H256034   2.432   5.684   5.630  0.9029  0.2312  2.5080
11515TIP3   OH256035   6.614   6.287  14.673 -0.4494 -0.0769  0.0385
11515TIP3    H156036   6.627   6.265  14.765  1.2506  1.4842  0.2258
11515TIP3    H256037   6.633   6.206  14.626  0.6213 -0.3896  0.9728
11516TIP3   OH256038   0.852   1.227   3.978 -0.4777  0.3291 -0.1512
11516TIP3    H156039   0.920   1.259   4.038  0.5927 -0.5518 -0.8430
11516TIP3    H256040   0.775   1.279   3.999  0.5796  1.8184  0.2525
11517TIP3   OH256041   6.131   6.284  12.621  0.8929  0.3263  0.2672
11517TIP3    H156042   6.106   6.362  12.571 -0.0170 -0.8170 -1.1364
11517TIP3    H256043   6.149   6.217  12.555  0.9648 -0.8743  1.4403
11518TIP3   OH256044   4.233   3.219   1.355  0.1619 -0.1160 -0.0904
11518TIP3    H156045   4.225   3.293   1.295  0.1581  0.4299  0.5614
11518TIP3    H256046   4.295   3.159   1.313 -0.9925 -0.4671 -1.3313
11519TIP3   OH256047   4.531   4.810   2.324  0.3125  0.0742 -1.3209
11519TIP3    H156048   4.558   4.781   2.237  0.3507  2.6661 -2.2639
11519TIP3    H256049   4.580   4.891   2.339  0.1814 -0.2141  1.0654
11520TIP3   OH256050   3.219   1.534  14.395  0.2930 -0.1488 -0.1771
11520TIP3    H156051   3.169   1.453  14.389 -0.6445  0.4888 -1.2453
11520TIP3    H256052   3.154   1.604  14.393  0.9047  0.6682  2.6717
11521TIP3   OH256053   3.920   0.627   3.745  0.4705 -0.8519 -0.4530
11521TIP3    H156054   3.931   0.533   3.760 -1.5871 -0.9520  0.7013
11521TIP3    H256055   3.859   0.633   3.672  0.0118 -0.4235 -0.0406
11522TIP3   OH256056   0.853   5.788   1.529  0.3444  0.6411 -0.5217
11522TIP3    H156057   0.926   5.848   1.515  0.9019  0.2990  0.8145
11522TIP3    H256058   0.892   5.701   1.523  0.0376  0.4553  0.0783
11523TIP3   OH256059   3.184   5.962   5.939  0.0381 -0.1778 -0.3002
11523TIP3    H156060   3.233   5.890   5.900  0.6826  0.7983 -1.3334
11523TIP3    H256061   3.242   5.997   6.007  0.4887  0.5349 -1.0503
11524TIP3   OH256062   0.598   1.714  16.414 -0.2657 -0.1482 -0.5730
11524TIP3    H156063   0.634   1.729  16.326 -0.1417  3.7909 -0.0579
11524TIP3    H256064   0.519   1.768  16.416 -0.8411 -0.9989  1.4336
11525TIP3   OH256065   0.369   4.736  16.907 -0.4841 -0.4384 -0.4319
11525TIP3    H156066   0.341   4.668  16.969 -0.8608 -0.5540 -0.7330
11525TIP3    H256067   0.288   4.771  16.870 -0.4590  1.6867  1.2804
11526TIP3   OH256068   5.381   5.972   3.064  0.1490  0.1908 -0.3924
11526TIP3    H156069   5.368   6.022   2.983  0.9253 -1.5926 -1.6768
11526TIP3    H256070   5.310   6.001   3.121  0.4156  2.5568 -1.1347
11527TIP3   OH256071   4.987   0.174  10.380  0.0722  0.1553 -0.4337
11527TIP3    H156072   4.924   0.154  10.311 -0.2791  0.2684 -0.1454
11527TIP3    H256073   4.959   0.121  10.454  0.4654  0.0134 -0.3805
11528TIP3   OH256074   2.690   6.503   4.518  0.0658 -0.5912  0.4962
11528TIP3    H156075   2.605   6.527   4.481  0.5718 -1.9911 -1.7429
11528TIP3    H256076   2.670   6.434   4.581 -0.4848 -0.6832  0.2293
11529TIP3   OH256077   4.936   0.101   2.047 -0.2527  0.2865  0.0327
11529TIP3    H156078   4.937   0.181   2.099  1.0665  0.8542 -0.7907
11529TIP3    H256079   4.981   0.036   2.101 -3.6072 -0.7490  1.8273
11530TIP3   OH256080   0.585   5.515   1.840 -0.1952  0.2042  0.3835
11530TIP3    H156081   0.600   5.599   1.797 -0.5750  1.7389  3.0504
11530TIP3    H256082   0.497   5.490   1.812 -0.0879  0.6721 -0.4157
11531TIP3   OH256083   2.046   3.143  13.964  0.2591  0.0890 -0.0183
11531TIP3    H156084   2.132   3.185  13.961 -0.1719  1.1769  1.5293
11531TIP3    H256085   2.030   3.114  13.874  1.8287  0.6988 -0.5274
11532TIP3   OH256086   4.724   2.154  15.716  0.3290 -0.1247  0.5430
11532TIP3    H156087   4.689   2.166  15.628  3.0475  0.7674 -0.5055
11532TIP3    H256088   4.745   2.061  15.721 -1.6054 -0.5867  1.0353
11533TIP3   OH256089   5.234   5.934   0.574  0.2973  0.6104 -0.2770
11533TIP3    H156090   5.298   5.869   0.546 -1.0253 -0.7214 -0.3439
11533TIP3    H256091   5.213   5.910   0.664 -0.4822  0.7115 -0.4234
11534TIP3   OH256092   1.653   3.481   5.004 -0.2543 -0.3497 -0.1380
11534TIP3    H156093   1.576   3.476   5.061  0.1288 -0.8892  0.3488
11534TIP3    H256094   1.678   3.573   5.005 -1.0811 -0.1222 -0.5511
11535TIP3   OH256095   2.612   6.373   4.144  0.0360 -0.2403 -0.4395
11535TIP3    H156096   2.680   6.440   4.153 -0.5080  0.2686 -0.0299
11535TIP3    H256097   2.660   6.294   4.118  0.8114  0.0530  0.0524
11536TIP3   OH256098   4.597   6.288   0.516  0.1869  0.2204  0.0131
11536TIP3    H156099   4.535   6.233   0.565 -0.0420  0.7540  0.3298
11536TIP3    H256100   4.542   6.347   0.465  0.4090 -0.8641 -1.5487
11537TIP3   OH256101   0.672   2.253   4.012 -0.2756 -0.2731  0.5771
11537TIP3    H156102   0.653   2.323   4.073 -0.3210  2.5168 -2.3697
11537TIP3    H256103   0.588   2.229   3.974 -0.0366 -0.5101  0.1773
11538TIP3   OH256104   5.417   1.434   4.836 -0.1949 -0.1673 -0.1128
11538TIP3    H156105   5.357   1.508   4.825 -1.8865 -1.3256  0.9255
11538TIP3    H256106   5.430   1.427   4.930  1.2664 -0.2429 -0.2841
11539TIP3   OH256107   3.964   6.064   4.461  0.0928 -0.2770  0.0791
11539TIP3    H156108   4.058   6.063   4.479  0.1823 -0.9898 -0.3483
11539TIP3    H256109   3.922   6.071   4.546  0.5388  0.4493  0.2428
11540TIP3   OH256110   4.222   0.701  11.996  0.4435  0.0246  0.1064
11540TIP3    H156111   4.248   0.622  11.948  0.4228 -0.6028  1.1033
11540TIP3    H256112   4.162   0.746  11.936 -0.4520 -1.2967 -0.0484
11541TIP3   OH256113   6.515   1.897  11.239  0.8906 -0.3612 -0.1007
11541TIP3    H156114   6.527   1.820  11.294  1.7351  0.7063  1.2958
11541TIP3    H256115   6.454   1.952  11.289 -0.9495 -0.7620 -1.8050
11542TIP3   OH256116   2.553   1.817   0.747  0.6340 -0.2223  0.1138
11542TIP3    H156117   2.497   1.892   0.727  1.0488  0.4517  1.3697
11542TIP3    H256118   2.519   1.783   0.830  1.6837 -0.1909  0.5769
11543TIP3   OH256119   3.210   2.638   2.681  0.0932 -0.0123  0.0317
11543TIP3    H156120   3.132   2.613   2.633 -0.8096 -1.1132  1.9567
11543TIP3    H256121   3.275   2.571   2.660 -0.7027 -1.2133  1.2545
11544TIP3   OH256122   5.600   2.376  11.993 -0.4149 -0.2523  0.1718
11544TIP3    H156123   5.599   2.382  12.089 -2.5397  0.3582  0.1577
11544TIP3    H256124   5.584   2.465  11.963  0.1376 -0.4548 -0.7775
11545TIP3   OH256125   2.908   5.887  11.439  0.4485 -0.1869  0.4239
11545TIP3    H156126   2.975   5.939  11.395 -0.7424  0.8124 -0.2746
11545TIP3    H256127   2.946   5.865  11.524  1.6206  0.4357  0.0758
11546TIP3   OH256128   0.726   3.907  14.588 -0.1375 -0.3360 -0.3151
11546TIP3    H156129   0.666   3.864  14.527  0.4122 -0.0535 -1.0835
11546TIP3    H256130   0.689   3.890  14.674 -1.5824  0.2324 -0.7861
11547TIP3   OH256131   6.657   6.177   5.375  0.3056 -0.2183  0.0143
11547TIP3    H156132   6.752   6.179   5.391  0.1940 -1.0065  0.8238
11547TIP3    H256133   6.636   6.085   5.362 -0.3268 -0.0279 -0.3583
11548TIP3   OH256134   3.005   1.749   1.822 -0.2140  0.3427 -0.2703
11548TIP3    H156135   3.043   1.810   1.759  0.7261 -1.6830 -1.7850
11548TIP3    H256136   3.007   1.664   1.777 -0.5917 -0.9965  2.0801
11549TIP3   OH256137   5.573   5.127  12.969 -0.1764 -0.4568 -0.3926
11549TIP3    H156138   5.482   5.116  12.940  0.1410 -0.9668 -1.2318
11549TIP3    H256139   5.591   5.220  12.955 -0.2229 -0.5741 -1.3193
11550TIP3   OH256140   2.344   4.501   3.410  0.3148 -0.1752 -0.3103
11550TIP3    H156141   2.367   4.587   3.374 -0.0951  0.0461 -0.0447
11550TIP3    H256142   2.404   4.441   3.366  2.4983  0.5500  1.4286
11551TIP3   OH256143   1.249   2.764  11.362 -0.6196  0.2692 -0.1914
11551TIP3    H156144   1.247   2.782  11.456 -1.2541 -3.6375  0.7216
11551TIP3    H256145   1.157   2.766  11.336 -1.0372 -3.4009  0.5250
11552TIP3   OH256146   0.461   6.754   1.964  0.3973 -0.3680  0.0018
11552TIP3    H156147   0.556   6.750   1.951  0.3368  0.5022 -0.8034
11552TIP3    H256148   0.424   6.737   1.877 -0.1343  0.9350 -0.0513
11553TIP3   OH256149   4.457   3.374  11.121 -0.3148 -0.4840  0.1273
11553TIP3    H156150   4.416   3.325  11.050  1.1994  0.2100 -1.3070
11553TIP3    H256151   4.506   3.443  11.077  0.3219  0.2510  1.8924
11554TIP3   OH256152   3.341   6.458  11.535  0.7268 -0.4182  0.6041
11554TIP3    H156153   3.263   6.436  11.483 -0.5588 -2.4233  3.1261
11554TIP3    H256154   3.354   6.552  11.520 -1.9025 -0.1167 -0.3126
11555TIP3   OH256155   6.663   0.749  16.772 -0.4292 -0.1976 -0.0569
11555TIP3    H156156   6.668   0.675  16.712 -1.0162 -0.5375  0.3024
11555TIP3    H256157   6.638   0.710  16.856  1.8726  0.0552  0.8241
11556TIP3   OH256158   2.538   5.533  11.906 -0.2381  0.1007 -0.2527
11556TIP3    H156159   2.545   5.455  11.851  1.3455 -0.8719  1.1998
11556TIP3    H256160   2.501   5.500  11.988  0.5949  0.8206  0.4346
11557TIP3   OH256161   4.527   4.727  14.572 -0.6515 -0.1921  0.1774
11557TIP3    H156162   4.532   4.760  14.482 -1.6665  1.3028  0.6159
11557TIP3    H256163   4.560   4.799  14.626 -0.2922 -0.9714  1.0364
11558TIP3   OH256164   0.632   5.111  11.291 -0.6319 -0.2290 -0.3770
11558TIP3    H156165   0.664   5.198  11.268  1.2309 -0.4023  1.2700
11558TIP3    H256166   0.563   5.093  11.228 -0.3824  2.0243 -1.3761
11559TIP3   OH256167   1.483   5.294  13.376  0.1379 -0.7843  0.0394
11559TIP3    H156168   1.427   5.360  13.415  0.0210 -0.3200 -0.8937
11559TIP3    H256169   1.471   5.304  13.281  1.1142 -1.2647 -0.1553
11560TIP3   OH256170   0.417   0.952   6.021  0.4162  0.2391  0.0836
11560TIP3    H156171   0.492   0.921   5.971 -0.0390 -2.1294  0.7312
11560TIP3    H256172   0.441   0.937   6.112 -0.3783  0.6128  0.3657
11561TIP3   OH256173   2.671   3.600   3.373  0.3797  0.5232  0.2025
11561TIP3    H156174   2.683   3.684   3.419 -0.4241 -0.4182  2.2886
11561TIP3    H256175   2.598   3.558   3.420  0.2522 -1.0279 -1.2829
11562TIP3   OH256176   5.016   5.296  14.738  0.9100  0.1581  0.0591
11562TIP3    H156177   5.069   5.319  14.815  1.0533 -0.9357  0.2999
11562TIP3    H256178   4.926   5.310  14.766  1.0192  1.8732 -0.3007
11563TIP3   OH256179   0.882   4.967   5.490  0.2061  0.2034  0.1484
11563TIP3    H156180   0.914   5.042   5.541 -0.2247  0.7550 -0.3740
11563TIP3    H256181   0.800   4.999   5.451 -1.5599 -1.4633  2.2493
11564TIP3   OH256182   3.398   0.517  12.910 -0.6224 -0.2731  0.2109
11564TIP3    H156183   3.338   0.581  12.872  1.1049  1.3481  0.0926
11564TIP3    H256184   3.441   0.477  12.834 -0.6342 -0.5128  0.3305
11565TIP3   OH256185   5.479   5.075  12.487 -0.6999 -0.4151  0.0474
11565TIP3    H156186   5.472   5.128  12.408 -2.5448  1.8682  1.5740
11565TIP3    H256187   5.572   5.076  12.508 -0.2662 -0.5383 -1.7234
11566TIP3   OH256188   4.723   4.627  11.421  0.3134 -0.1832 -0.3284
11566TIP3    H156189   4.750   4.693  11.358  2.6661 -1.4524 -0.7681
11566TIP3    H256190   4.701   4.551  11.368  1.8836 -1.1233  0.2823
11567TIP3   OH256191   5.504   6.011  13.609  0.6727 -0.2336  0.0961
11567TIP3    H156192   5.509   6.020  13.704  1.1165 -0.1670  0.0648
11567TIP3    H256193   5.577   5.955  13.585  0.4883 -0.3557 -0.1962
11568TIP3   OH256194   0.928   3.589  13.602  0.0829 -0.1746 -0.0984
11568TIP3    H156195   0.964   3.645  13.533 -0.5039  0.2017 -0.1051
11568TIP3    H256196   0.846   3.556  13.566  0.4969 -1.1757 -0.1572
11569TIP3   OH256197   0.330   6.020  11.163 -0.1480  0.3013  0.3757
11569TIP3    H156198   0.359   6.059  11.246 -0.1599 -2.0486  1.5587
11569TIP3    H256199   0.409   6.021  11.108  0.6283 -0.5960  1.4250
11570TIP3   OH256200   4.563   5.239   2.233  0.3680 -0.4856 -0.3415
11570TIP3    H156201   4.468   5.224   2.228  0.6039 -1.9698 -0.9892
11570TIP3    H256202   4.574   5.331   2.210 -0.8972 -0.3570 -0.5021
11571TIP3   OH256203   5.855   0.415   2.879  0.4585 -0.2694 -0.7547
11571TIP3    H156204   5.800   0.363   2.822  0.6135  0.3474 -1.4968
11571TIP3    H256205   5.863   0.364   2.960 -1.3183 -0.2901 -0.5622
11572TIP3   OH256206   5.745   6.094  13.179 -0.4873 -0.4811 -0.5716
11572TIP3    H156207   5.713   6.160  13.240  0.2263 -0.6436 -0.0028
11572TIP3    H256208   5.713   6.011  13.214  2.2113 -0.8902  1.2315
11573TIP3   OH256209   1.075   1.751  15.221  0.0430 -0.5183 -0.3330
11573TIP3    H156210   1.133   1.684  15.258  0.2271  0.2755  0.8675
11573TIP3    H256211   1.061   1.813  15.292  1.0850  1.5406 -1.8088
11574TIP3   OH256212   0.932   5.908   2.630  0.4241  0.6048  0.0356
11574TIP3    H156213   0.916   5.819   2.600  0.7483  0.4345  0.3597
11574TIP3    H256214   0.855   5.931   2.682  0.3574  0.4990 -0.0185
11575TIP3   OH256215   0.557   1.859   4.304 -0.7559  0.4273 -0.0520
11575TIP3    H156216   0.463   1.861   4.321 -0.6128  1.2842  0.6964
11575TIP3    H256217   0.590   1.940   4.342 -0.2897  2.2159 -3.8221
11576TIP3   OH256218   2.103   6.535  13.167 -0.2218 -0.0008 -0.3363
11576TIP3    H156219   2.038   6.601  13.144  1.1413  1.5767  0.1215
11576TIP3    H256220   2.181   6.560  13.117  0.1430 -1.6828 -0.6625
11577TIP3   OH256221   6.633   0.426   5.701  0.0177 -0.7658 -0.0601
11577TIP3    H156222   6.711   0.469   5.737  0.6407 -1.2580 -0.8030
11577TIP3    H256223   6.663   0.338   5.679 -0.9512 -1.2065  0.3570
11578TIP3   OH256224   3.098   1.579  15.904 -0.2096  0.2791  0.4874
11578TIP3    H156225   3.073   1.666  15.933 -1.3597  0.2097 -0.2303
11578TIP3    H256226   3.051   1.519  15.962 -2.1292  0.1457 -1.1078
11579TIP3   OH256227   4.812   0.712  16.474  0.1127  0.2130 -0.9413
11579TIP3    H156228   4.734   0.732  16.422 -0.8564 -1.4595 -0.1780
11579TIP3    H256229   4.844   0.629  16.438  1.7506  0.9949 -1.4250
11580TIP3   OH256230   6.471   2.297  14.872  0.0697 -0.5808 -0.0327
11580TIP3    H156231   6.491   2.225  14.932  0.2231 -0.7947 -0.3405
11580TIP3    H256232   6.474   2.258  14.785  0.1607 -0.2026 -0.2031
11581TIP3   OH256233   0.880   2.691   1.981  0.3869  0.3387 -0.0122
11581TIP3    H156234   0.946   2.647   2.033  0.7170 -0.1256 -0.8061
11581TIP3    H256235   0.887   2.652   1.894 -0.9950  0.2096 -0.0969
11582TIP3   OH256236   2.783   5.048  11.258 -0.9693 -0.3715 -0.0755
11582TIP3    H156237   2.871   5.081  11.275 -1.1991 -0.2138  0.8737
11582TIP3    H256238   2.756   5.092  11.178  0.4111 -1.6337 -1.2825
11583TIP3   OH256239   3.903   5.221   2.234  0.4556 -0.1855  0.1431
11583TIP3    H156240   3.879   5.181   2.150  0.4858  1.5521 -0.7443
11583TIP3    H256241   3.871   5.160   2.300  0.9279 -1.8737 -1.1277
11584TIP3   OH256242   6.314   1.759  14.442  0.2609  0.1557  0.6876
11584TIP3    H156243   6.252   1.708  14.392 -0.0756 -1.2251  2.4041
11584TIP3    H256244   6.262   1.829  14.482  0.4889  1.1151 -0.6336
11585TIP3   OH256245   2.658   2.259   6.399  0.0321  0.3503 -0.0324
11585TIP3    H156246   2.619   2.328   6.345 -1.0692 -0.6635 -0.5917
11585TIP3    H256247   2.638   2.178   6.352  0.7924 -0.3986  0.8932
11586TIP3   OH256248   2.862   4.607   0.680 -0.1060 -0.2839  0.1809
11586TIP3    H156249   2.883   4.514   0.687 -2.8383 -0.9844  0.2731
11586TIP3    H256250   2.861   4.639   0.770 -1.2381 -0.6988  0.3191
11587TIP3   OH256251   0.020   1.306  16.275  0.1626 -0.2134 -0.4241
11587TIP3    H156252   0.047   1.289  16.365  1.4525  1.0452 -0.5452
11587TIP3    H256253  -0.075   1.298  16.276  0.2619 -1.6441  0.7155
11588TIP3   OH256254   1.481   5.718  14.164 -0.6381  0.2409  0.0545
11588TIP3    H156255   1.515   5.786  14.105  1.1695 -1.2099 -0.6853
11588TIP3    H256256   1.436   5.656  14.105 -2.6128  0.9290  0.7612
11589TIP3   OH256257   6.012   5.202  15.749 -0.5623 -0.3985 -0.2208
11589TIP3    H156258   6.090   5.154  15.722 -0.2013 -0.1340  0.3329
11589TIP3    H256259   5.991   5.167  15.836 -0.0306  0.7468  0.3859
11590TIP3   OH256260   1.845   1.441  13.841 -0.4649  0.0644  0.1736
11590TIP3    H156261   1.923   1.402  13.801 -0.1704  0.8830 -0.0799
11590TIP3    H256262   1.879   1.514  13.893 -1.1185  0.8931 -0.5368
11591TIP3   OH256263   3.012   2.194   2.135  0.1401 -0.0986  0.2906
11591TIP3    H156264   3.087   2.159   2.184 -0.2212 -0.3609  0.6656
11591TIP3    H256265   3.050   2.227   2.054  0.7681  0.4483  0.7972
11592TIP3   OH256266   1.312   2.053  12.114 -0.0068 -0.4981  0.0751
11592TIP3    H156267   1.332   1.959  12.119 -1.5419 -0.9075 -0.7634
11592TIP3    H256268   1.297   2.068  12.021 -1.7700  0.1280  0.4371
11593TIP3   OH256269   2.065   6.304   1.595 -0.3258 -0.8540 -0.2167
11593TIP3    H156270   1.973   6.327   1.584 -0.8415 -3.0067 -0.8172
11593TIP3    H256271   2.065   6.234   1.660  1.0186 -0.1276  0.6051
11594TIP3   OH256272   2.472   0.092   4.167 -0.2179  0.0049  0.1448
11594TIP3    H156273   2.546   0.149   4.145 -1.6124  2.7854  2.1048
11594TIP3    H256274   2.508   0.031   4.233  1.5897 -2.4277 -2.8143
11595TIP3   OH256275   1.669   0.682  16.780  0.0745  0.4933  0.1016
11595TIP3    H156276   1.689   0.752  16.718 -1.1352  1.8547  1.1871
11595TIP3    H256277   1.643   0.608  16.726  2.1355  0.5866 -1.1083
11596TIP3   OH256278   2.271   6.670   3.060  0.1203  0.0748 -0.0262
11596TIP3    H156279   2.228   6.730   3.000 -0.9752 -1.8382 -1.2844
11596TIP3    H256280   2.200   6.636   3.115  0.5497 -0.7472  0.0348
11597TIP3   OH256281   2.292   3.015  15.878  0.4386 -0.2942  0.0232
11597TIP3    H156282   2.197   3.007  15.873  0.3974  0.4500 -0.5966
11597TIP3    H256283   2.309   3.109  15.872  1.3587 -0.5245 -3.2435
11598TIP3   OH256284   2.750   3.817  12.733  0.0541  0.3360 -0.2208
11598TIP3    H156285   2.823   3.760  12.760  1.5143  1.8314 -0.7964
11598TIP3    H256286   2.735   3.873  12.809 -1.2031 -0.5955  0.2502
11599TIP3   OH256287   1.994   0.507   0.568 -0.1220  0.1136  0.0479
11599TIP3    H156288   1.930   0.437   0.561 -0.0764 -0.0211  0.8860
11599TIP3    H256289   1.948   0.586   0.539 -1.4530  0.4715  2.8328
11600TIP3   OH256290   6.291   0.079  16.127 -0.1586 -0.2882 -0.0179
11600TIP3    H156291   6.380   0.099  16.156 -0.2319  0.5717 -0.3654
11600TIP3    H256292   6.273  -0.007  16.164  0.3458  0.0813  1.1371
11601TIP3   OH256293   6.618   4.103  16.374  0.1149  0.4181  0.5080
11601TIP3    H156294   6.642   4.037  16.438  1.1473  0.2963  0.0273
11601TIP3    H256295   6.574   4.171  16.424 -1.2291 -0.7411  0.9657
11602TIP3   OH256296   3.195   3.227   0.153 -0.0036 -0.1054 -1.0339
11602TIP3    H156297   3.201   3.298   0.090  0.0671  0.2623 -0.6200
11602TIP3    H256298   3.173   3.270   0.236 -1.6977 -0.7344 -1.1219
11603TIP3   OH256299   0.126   5.074  13.072  0.3731 -0.1309 -0.0771
11603TIP3    H156300   0.077   5.065  13.154 -1.6390  2.8434 -0.8357
11603TIP3    H256301   0.084   5.012  13.012  1.0249 -1.3772  0.6943
11604TIP3   OH256302   0.164   5.293  14.579 -0.5867 -0.6317 -0.6887
11604TIP3    H156303   0.196   5.263  14.664 -4.5875  0.3393  1.4027
11604TIP3    H256304   0.130   5.215  14.536 -2.5296 -0.5783  0.6422
11605TIP3   OH256305   4.426   2.057  10.687 -0.0085 -0.1491  1.0465
11605TIP3    H156306   4.443   2.147  10.714  1.7168  0.0991 -0.6311
11605TIP3    H256307   4.494   2.038  10.623 -2.0318 -1.6657 -0.8330
11606TIP3   OH256308   6.102   1.117  11.706 -0.1854  0.0383 -0.2667
11606TIP3    H156309   6.159   1.067  11.765 -2.7758 -0.2489  2.2275
11606TIP3    H256310   6.041   1.052  11.671 -0.3961  0.6740 -1.0928
11607TIP3   OH256311   5.807   4.541   5.664  0.4298  0.1818 -0.7530
11607TIP3    H156312   5.790   4.538   5.569 -0.9201  1.0506 -0.5683
11607TIP3    H256313   5.824   4.633   5.682  0.4808  0.0478 -0.1162
11608TIP3   OH256314   5.327   3.955   5.503  0.4408  0.0416  0.0252
11608TIP3    H156315   5.408   3.907   5.490 -0.1950 -1.1677  0.3907
11608TIP3    H256316   5.278   3.943   5.422  0.9125  1.3774 -0.4794
11609TIP3   OH256317   0.670   6.704   0.601 -0.2894  0.6087 -0.1669
11609TIP3    H156318   0.661   6.749   0.517 -0.5865  0.1128 -0.4049
11609TIP3    H256319   0.683   6.612   0.578 -0.8648  0.3948  0.3414
11610TIP3   OH256320   0.500   2.918  16.955 -0.0096  0.0757  0.3454
11610TIP3    H156321   0.503   2.823  16.966 -0.2163  0.0007 -0.2514
11610TIP3    H256322   0.417   2.944  16.996  0.5565  0.1410  1.5056
11611TIP3   OH256323   1.923   3.848   3.116  0.1180  0.4359 -0.1452
11611TIP3    H156324   2.010   3.851   3.158  0.3331  0.0180 -0.5488
11611TIP3    H256325   1.912   3.756   3.091 -2.1675 -0.4844  3.4589
11612TIP3   OH256326   3.961   4.954   6.520 -0.1366 -0.5645 -1.2618
11612TIP3    H156327   4.054   4.968   6.506 -0.3831  0.0780 -2.4162
11612TIP3    H256328   3.945   4.982   6.610  0.6674 -0.0888 -1.2606
11613TIP3   OH256329   5.981   5.731   1.608  0.3911 -0.2470  0.5199
11613TIP3    H156330   6.024   5.813   1.634 -0.0401  0.4407 -0.8258
11613TIP3    H256331   6.036   5.696   1.539 -0.5313  0.0136 -0.3692
11614TIP3   OH256332   0.073   6.688   2.357  0.3026 -0.8998  0.1774
11614TIP3    H156333   0.105   6.699   2.447  3.1606 -1.9385 -0.5954
11614TIP3    H256334   0.119   6.611   2.325 -0.3620 -0.3487 -2.3174
11615TIP3   OH256335   3.040   6.357  12.497 -0.2760 -1.1005 -0.2391
11615TIP3    H156336   2.951   6.323  12.483 -0.2522 -0.6989 -1.4954
11615TIP3    H256337   3.073   6.373  12.408  0.8888 -0.8201  0.2356
11616TIP3   OH256338   2.930   6.614  13.559  0.6493  0.3270  0.4534
11616TIP3    H156339   2.975   6.674  13.500 -2.6179  0.5470 -2.1081
11616TIP3    H256340   2.883   6.670  13.620 -0.1616  0.3358 -0.1566
11617TIP3   OH256341   5.132   4.487   4.518 -0.1911 -0.0943 -0.1499
11617TIP3    H156342   5.062   4.476   4.582 -1.0556  0.0961 -1.0455
11617TIP3    H256343   5.134   4.404   4.470  0.2999 -0.1528 -0.0388
11618TIP3   OH256344   4.033   0.934  13.257  0.3595 -0.7382 -0.1188
11618TIP3    H156345   4.017   1.000  13.324  2.0315 -0.4398  0.0174
11618TIP3    H256346   3.990   0.968  13.178  1.9285  0.9747 -0.2848
11619TIP3   OH256347   6.264   4.462   5.461  0.0155  0.4933 -0.3512
11619TIP3    H156348   6.246   4.454   5.554  0.7832  1.2732 -0.1309
11619TIP3    H256349   6.180   4.487   5.423  0.0460  1.6795  0.3373
11620TIP3   OH256350   1.080   5.263   4.451 -0.4842 -0.3443 -0.6079
11620TIP3    H156351   1.142   5.288   4.382 -0.1646 -2.0454 -1.0050
11620TIP3    H256352   0.995   5.290   4.418 -0.0817  1.0601 -0.5455
11621TIP3   OH256353   2.774   3.467   4.608  0.3712  0.4475  0.9193
11621TIP3    H156354   2.854   3.518   4.620  0.2644  0.7097  0.5207
11621TIP3    H256355   2.782   3.429   4.521 -0.0885  0.7560  0.7343
11622TIP3   OH256356   6.695   6.635  15.165 -0.7436 -0.1254 -0.2843
11622TIP3    H156357   6.665   6.674  15.247 -2.2941  0.6301 -1.1671
11622TIP3    H256358   6.623   6.580  15.137 -0.2020 -0.4310 -1.1090
11623TIP3   OH256359   1.703   2.942  16.649 -0.2210  0.1164  0.0365
11623TIP3    H156360   1.735   2.901  16.569 -2.0135  0.3469 -0.8657
11623TIP3    H256361   1.626   2.890  16.673  1.0983 -0.8746  2.5042
11624TIP3   OH256362   3.192   4.731  11.383 -1.0340  0.2036 -0.8017
11624TIP3    H156363   3.275   4.721  11.429 -0.0672  1.5303 -2.1475
11624TIP3    H256364   3.126   4.708  11.447  0.3382 -0.1520  0.5456
11625TIP3   OH256365   1.030   0.710  12.067 -0.2005 -0.2326 -0.4675
11625TIP3    H156366   0.946   0.730  12.026 -0.1166 -0.2961 -0.6702
11625TIP3    H256367   1.008   0.654  12.141 -0.9044  3.4055  2.4106
11626TIP3   OH256368   3.499   5.948   3.628  0.4297  0.0625  0.2432
11626TIP3    H156369   3.452   5.947   3.711 -0.9894 -0.8585 -0.5178
11626TIP3    H256370   3.555   6.025   3.632 -0.0347  0.3478  1.8083
11627TIP3   OH256371   1.661   2.889  15.157 -0.0819 -0.0640 -0.0551
11627TIP3    H156372   1.627   2.838  15.083 -0.4097  1.8050 -1.2735
11627TIP3    H256373   1.680   2.975  15.119  3.5458 -0.1712  1.1393
11628TIP3   OH256374   5.483   3.061   2.511 -0.2035  0.0564  0.2510
11628TIP3    H156375   5.416   3.062   2.579  0.4846  0.1524  0.9320
11628TIP3    H256376   5.507   3.152   2.498 -0.6146  0.0759 -0.4087
11629TIP3   OH256377   4.667   1.192  13.478 -0.0769 -0.0898 -0.2599
11629TIP3    H156378   4.693   1.268  13.426 -4.0659  1.3107 -0.6158
11629TIP3    H256379   4.584   1.218  13.518 -0.5576 -3.5444  1.4052
11630TIP3   OH256380   5.033   2.370   2.032  0.3514 -0.4423  0.4025
11630TIP3    H156381   5.106   2.337   2.084 -1.0755 -1.1228  2.0951
11630TIP3    H256382   4.969   2.399   2.097 -0.7378  0.4766 -1.0210
11631TIP3   OH256383   1.260   5.750   1.268  0.0290 -0.4419  0.1996
11631TIP3    H156384   1.321   5.823   1.261 -0.2438 -0.0913  1.3190
11631TIP3    H256385   1.295   5.695   1.338  0.3978 -1.5638 -0.8309
11632TIP3   OH256386   3.086   3.587   1.259  0.0405 -0.0587 -0.3025
11632TIP3    H156387   3.049   3.674   1.243  0.9594  0.1101 -1.6708
11632TIP3    H256388   3.033   3.528   1.205 -0.9852 -0.4792  1.0995
11633TIP3   OH256389   3.526   4.932   1.775  0.3753 -0.6893 -0.3459
11633TIP3    H156390   3.565   4.882   1.846 -1.1944 -3.4330 -1.2995
11633TIP3    H256391   3.445   4.887   1.754 -1.1516  2.2441 -1.3860
11634TIP3   OH256392   6.771   0.917   0.689  0.2892 -0.3135 -0.4864
11634TIP3    H156393   6.712   0.857   0.735  0.0784  0.0837 -0.2322
11634TIP3    H256394   6.851   0.865   0.674  0.4513 -0.3857  0.5295
11635TIP3   OH256395   4.344   4.845   1.704  0.5772 -0.4800 -0.5793
11635TIP3    H156396   4.410   4.833   1.636  1.6089 -3.5665  0.7961
11635TIP3    H256397   4.289   4.767   1.698 -0.0852 -0.2087  1.2931
11636TIP3   OH256398   1.552   1.559   5.003  0.1780 -0.1825  0.1187
11636TIP3    H156399   1.499   1.622   5.051  0.9360 -0.1216  0.8969
11636TIP3    H256400   1.513   1.474   5.022 -1.1212  0.0419 -1.2850
11637TIP3   OH256401   4.307   4.297   3.444 -0.1595  0.5305 -0.0675
11637TIP3    H156402   4.343   4.248   3.370 -1.5143  0.0365 -0.4271
11637TIP3    H256403   4.220   4.259   3.458 -0.4612  1.5304  0.9139
11638TIP3   OH256404   2.630   4.039  13.604 -0.5142 -0.0992 -0.4368
11638TIP3    H156405   2.646   4.008  13.693 -1.6224  2.1920  0.6421
11638TIP3    H256406   2.535   4.031  13.592 -0.4666  0.2885 -1.1492
11639TIP3   OH256407   0.838   0.782   3.869  0.0095 -0.2695 -0.4139
11639TIP3    H156408   0.849   0.774   3.774 -1.0243  0.4934 -0.6074
11639TIP3    H256409   0.837   0.691   3.901 -2.9040 -0.7221 -1.5245
11640TIP3   OH256410   0.745   4.071  17.133 -0.0815 -0.1135 -0.5333
11640TIP3    H156411   0.692   3.992  17.141 -0.3829  0.0472 -0.9047
11640TIP3    H256412   0.707   4.131  17.198 -0.5155  0.0844 -0.9603
11641TIP3   OH256413   4.861   2.238   1.710  0.0543 -0.6116 -0.5286
11641TIP3    H156414   4.851   2.298   1.784 -0.5661 -2.0974  0.6368
11641TIP3    H256415   4.951   2.250   1.681  0.3551 -0.1179  0.5677
11642TIP3   OH256416   5.017   6.024   0.380 -0.9877  0.1413  0.0934
11642TIP3    H156417   5.026   6.119   0.386  0.6803 -0.0669  3.3142
11642TIP3    H256418   5.106   5.992   0.364 -1.6582 -0.9099 -1.8490
11643TIP3   OH256419   6.548   4.649   3.864 -0.4198  0.6167 -0.4782
11643TIP3    H156420   6.502   4.641   3.947  1.6466  1.9308  0.8954
11643TIP3    H256421   6.575   4.740   3.859  1.4497  0.0823 -1.4749
11644TIP3   OH256422   6.755   0.178  15.938 -0.1776  0.5189 -0.5413
11644TIP3    H156423   6.833   0.128  15.913  0.5988  1.3223  0.1949
11644TIP3    H256424   6.682   0.120  15.917  0.5565  0.1023 -2.1090
11645TIP3   OH256425   6.572   0.863   2.977 -0.2380 -0.3997  0.6142
11645TIP3    H156426   6.603   0.889   2.890  0.2556  1.3312  1.2711
11645TIP3    H256427   6.478   0.853   2.966  0.0344 -2.3519 -0.5930
11646TIP3   OH256428   3.681   2.499  16.440 -0.1886  0.5717  0.4420
11646TIP3    H156429   3.741   2.461  16.505 -0.4469 -2.1593 -0.7826
11646TIP3    H256430   3.723   2.480  16.356 -1.6143  0.7907 -0.3346
11647TIP3   OH256431   2.192   4.693  11.394 -0.2623  0.1919  0.3093
11647TIP3    H156432   2.243   4.751  11.451  0.9753  0.6387 -1.1674
11647TIP3    H256433   2.258   4.641  11.348 -1.2076 -0.0264 -0.8318
11648TIP3   OH256434   4.098   5.213   3.653 -0.0412  0.1825  0.2605
11648TIP3    H156435   4.179   5.167   3.677 -0.9247 -1.3903  0.3580
11648TIP3    H256436   4.043   5.207   3.731 -0.7719  0.0314 -0.2583
11649TIP3   OH256437   0.848   2.644  13.834 -0.0721 -0.2230 -0.1227
11649TIP3    H156438   0.867   2.613  13.746 -2.1081 -0.5836 -0.4743
11649TIP3    H256439   0.891   2.729  13.840  1.1647 -0.7543 -0.9802
11650TIP3   OH256440   2.583   0.775  12.411 -0.3009 -0.2466 -0.3192
11650TIP3    H156441   2.567   0.694  12.459  0.6446  0.8446  2.0066
11650TIP3    H256442   2.517   0.836  12.444  1.5682  1.0869  1.1571
11651TIP3   OH256443   4.788   6.728  17.145 -0.6579 -0.3189  0.5470
11651TIP3    H156444   4.846   6.799  17.174 -0.8136 -0.5249  1.3677
11651TIP3    H256445   4.844   6.650  17.145 -0.1952 -0.0529 -1.3728
11652TIP3   OH256446   6.559   2.039   2.784  0.0679  0.2540 -0.3084
11652TIP3    H156447   6.540   1.954   2.826  0.1998  0.5086  0.2804
11652TIP3    H256448   6.490   2.097   2.817  1.4966  1.0604  1.4486
11653TIP3   OH256449   4.222   5.396   4.479 -0.6499 -0.3237  0.1317
11653TIP3    H156450   4.314   5.421   4.470 -0.6220 -0.5895 -0.3368
11653TIP3    H256451   4.174   5.479   4.480 -0.2509 -0.0473  2.4998
11654TIP3   OH256452   1.508   4.726   2.487  0.3486 -0.3298 -0.2851
11654TIP3    H156453   1.428   4.675   2.477 -0.5453  1.1959 -1.1732
11654TIP3    H256454   1.510   4.785   2.412  1.4310  0.8417  0.6101
11655TIP3   OH256455   5.063   1.728   3.469 -0.1603 -0.3267  0.5484
11655TIP3    H156456   4.982   1.768   3.499 -1.8961 -2.3977 -1.0708
11655TIP3    H256457   5.074   1.758   3.379  0.8832 -0.1068  0.7303
11656TIP3   OH256458   5.907   6.702  13.574  0.0567  0.1087 -0.2778
11656TIP3    H156459   5.827   6.649  13.573  1.1984 -1.8183 -3.4919
11656TIP3    H256460   5.898   6.761  13.499  1.0139  0.9262  0.2324
11657TIP3   OH256461   3.250   3.430  11.404  0.0640 -0.5052  0.4560
11657TIP3    H156462   3.316   3.376  11.447 -0.3442 -1.2911  0.1156
11657TIP3    H256463   3.235   3.388  11.320 -1.9859 -1.2711  1.1388
11658TIP3   OH256464   3.924   3.592  10.829 -0.0536 -0.2526  0.9171
11658TIP3    H156465   3.925   3.586  10.734 -0.5848  0.8893  0.8289
11658TIP3    H256466   4.004   3.546  10.856  0.1895 -0.4460 -0.0767
11659TIP3   OH256467   2.897   4.871   6.902 -0.5607 -0.0013 -0.0838
11659TIP3    H156468   2.812   4.895   6.867 -0.3439 -0.5550 -1.0056
11659TIP3    H256469   2.898   4.775   6.901  0.4626  0.0031 -1.0580
11660TIP3   OH256470   2.632   1.385  12.990  0.1946  0.3289  0.0217
11660TIP3    H156471   2.653   1.337  13.070 -0.2077  1.4784  0.8515
11660TIP3    H256472   2.551   1.345  12.958 -0.4112  0.7542  0.9731
11661TIP3   OH256473   5.902   2.636  11.589  0.6255  0.0428  0.0331
11661TIP3    H156474   5.847   2.647  11.667 -0.5564 -1.3085 -0.5701
11661TIP3    H256475   5.846   2.590  11.527  2.6443 -2.0230 -0.3716
11662TIP3   OH256476   0.506   3.858   2.058  0.2037 -0.4758  0.2412
11662TIP3    H156477   0.475   3.902   1.978  0.9317  0.4626  0.4517
11662TIP3    H256478   0.581   3.911   2.086 -1.2821  0.4540  2.7210
11663TIP3   OH256479   1.173   3.168   3.785 -0.5843  0.2971 -0.4957
11663TIP3    H156480   1.103   3.126   3.734 -1.1591  0.4439  0.1701
11663TIP3    H256481   1.152   3.148   3.876  0.2030  0.4076 -0.2871
11664TIP3   OH256482   2.455   4.095   2.212  0.1863  0.3952  0.6471
11664TIP3    H156483   2.377   4.041   2.224  0.1017  0.6732  1.4271
11664TIP3    H256484   2.526   4.044   2.252  0.4336  0.0875 -0.1681
11665TIP3   OH256485   2.860   2.797  12.020 -0.2703  0.3508  0.0185
11665TIP3    H156486   2.800   2.853  11.971  0.2062  0.1236 -0.8452
11665TIP3    H256487   2.824   2.709  12.011  0.4046  0.1525 -0.8578
11666TIP3   OH256488   4.521   1.114   3.842  0.0381 -0.5081 -0.6317
11666TIP3    H156489   4.497   1.086   3.754  2.9055 -0.7497 -1.4371
11666TIP3    H256490   4.610   1.149   3.833  0.0388  0.3953  1.9919
11667TIP3   OH256491   0.772   5.790   5.334  0.0686  0.3609  0.5458
11667TIP3    H156492   0.731   5.738   5.403  0.5332  0.3455  0.8154
11667TIP3    H256493   0.714   5.779   5.259  0.2885 -0.7687  0.5157
11668TIP3   OH256494   1.027   4.294  12.918  0.4341  0.1827  0.2479
11668TIP3    H156495   1.009   4.203  12.941  0.2977 -0.0571 -0.7431
11668TIP3    H256496   0.994   4.345  12.992  1.2114 -0.6066  1.1542
11669TIP3   OH256497   1.852   0.667   2.217 -0.2002 -0.6084  0.0014
11669TIP3    H156498   1.765   0.677   2.180  0.2772  0.3077 -0.9307
11669TIP3    H256499   1.903   0.625   2.147  0.5003  0.3405 -0.0734
11670TIP3   OH256500   4.766   2.213   0.566  0.0496 -0.2261  0.0226
11670TIP3    H156501   4.854   2.175   0.557  0.4815 -0.0864  2.7687
11670TIP3    H256502   4.707   2.143   0.537  0.9870 -1.5901  1.2382
11671TIP3   OH256503   3.938   3.493   4.087  0.4350  0.1414  0.3159
11671TIP3    H156504   4.007   3.453   4.141  0.8277  2.0673  1.3247
11671TIP3    H256505   3.958   3.464   3.998  1.4566 -0.8197  0.8276
11672TIP3   OH256506   2.574   5.277   4.722  0.2869 -0.6996 -0.0879
11672TIP3    H156507   2.633   5.297   4.649  0.8055  0.5351  0.6524
11672TIP3    H256508   2.490   5.315   4.695  0.9968  1.6972  0.8339
11673TIP3   OH256509   1.036   0.144  12.089 -0.1778  0.2179  0.0577
11673TIP3    H156510   1.009   0.067  12.138  0.7906 -0.0249  0.2332
11673TIP3    H256511   1.010   0.126  11.999 -0.3807 -0.1037  0.1825
11674TIP3   OH256512   0.638   5.583   6.373  0.6496  0.0798  0.0187
11674TIP3    H156513   0.650   5.593   6.278  1.2135 -0.6428  0.0039
11674TIP3    H256514   0.673   5.495   6.392  1.2643  0.5278  1.0150
11675TIP3   OH256515   1.035   2.243   5.437  0.2355 -0.4424  0.1447
11675TIP3    H156516   1.104   2.189   5.399  0.4268 -1.3411  1.6613
11675TIP3    H256517   1.076   2.328   5.454  1.6086 -1.5049  2.7232
11676TIP3   OH256518   4.146   2.665   3.685 -0.1240 -0.2176  0.8813
11676TIP3    H156519   4.140   2.689   3.593 -0.0524 -2.1761  0.3229
11676TIP3    H256520   4.111   2.576   3.689 -1.7347  0.4225  3.0391
11677TIP3   OH256521   4.347   1.809  11.734 -0.6006  0.0100  0.0323
11677TIP3    H156522   4.413   1.743  11.754  0.8709  1.4842  0.2767
11677TIP3    H256523   4.264   1.769  11.758  0.5336 -0.4841  3.5824
11678TIP3   OH256524   5.405   0.539   1.108  0.0939 -0.2266  0.2547
11678TIP3    H156525   5.481   0.494   1.143  1.2373  1.4638  0.0409
11678TIP3    H256526   5.428   0.632   1.110 -1.8682  0.3216 -0.0357
11679TIP3   OH256527   5.723   4.823   2.415 -0.5417 -0.1304 -0.2841
11679TIP3    H156528   5.739   4.916   2.403 -1.8290  0.3335  1.1523
11679TIP3    H256529   5.645   4.805   2.363 -0.3442 -0.3896 -0.4929
11680TIP3   OH256530   1.292   2.600  13.450  0.4457 -0.2489 -0.2558
11680TIP3    H156531   1.317   2.542  13.378 -0.0350  0.9126 -1.3831
11680TIP3    H256532   1.249   2.674  13.408  0.2199  0.5000  1.2278
11681TIP3   OH256533   5.957   2.222   4.552  0.4382  0.8543  0.9959
11681TIP3    H156534   6.009   2.184   4.622  1.6889  0.6704  0.0017
11681TIP3    H256535   5.968   2.316   4.563  1.8156  0.8092  0.2208
11682TIP3   OH256536   5.197   0.276   2.193 -0.0664  0.2047  0.7253
11682TIP3    H156537   5.110   0.303   2.225 -0.4646 -0.4844  0.2472
11682TIP3    H256538   5.204   0.316   2.107 -0.0775 -0.0808  0.5928
11683TIP3   OH256539   6.649   2.396  17.015 -0.1369  0.0076  0.4819
11683TIP3    H156540   6.663   2.302  17.027  0.0962  0.1806  1.6792
11683TIP3    H256541   6.736   2.434  17.024 -0.1684  0.3140 -0.3981
11684TIP3   OH256542   3.999   2.704   0.907  0.0957  0.0398  0.4102
11684TIP3    H156543   3.905   2.698   0.888 -0.0534 -1.0431  1.4287
11684TIP3    H256544   4.041   2.667   0.829 -0.3318  0.0397  0.1745
11685TIP3   OH256545   1.074   6.497  16.943  0.7677 -0.1439  0.1199
11685TIP3    H156546   1.001   6.436  16.932 -0.0710  0.9903 -1.0153
11685TIP3    H256547   1.053   6.546  17.022  1.1466 -0.9109  0.7060
11686TIP3   OH256548   5.411   0.381  17.045  0.3207  0.4132  0.3265
11686TIP3    H156549   5.497   0.362  17.082  0.8388 -0.3299 -1.1623
11686TIP3    H256550   5.428   0.448  16.978 -0.6967  2.2633  1.8157
11687TIP3   OH256551   1.407   3.517   1.887  0.3769 -0.5174 -0.1372
11687TIP3    H156552   1.434   3.514   1.796  1.8839  1.0632  0.1969
11687TIP3    H256553   1.386   3.609   1.903 -1.9792 -1.1072  0.5800
11688TIP3   OH256554   6.670   4.986   5.768  0.2632 -0.1212 -0.5742
11688TIP3    H156555   6.661   4.908   5.824  0.9262  0.1731 -0.0396
11688TIP3    H256556   6.755   4.976   5.727  0.8741  0.8770  0.3940
11689TIP3   OH256557   5.894   3.786  13.163  0.6487  0.5051  0.0385
11689TIP3    H156558   5.876   3.713  13.222 -1.1639 -0.3897 -1.5218
11689TIP3    H256559   5.900   3.862  13.221  0.4462 -0.5499  1.5130
11690TIP3   OH256560   2.615   0.883  14.584  0.2147 -0.4286 -0.1988
11690TIP3    H156561   2.584   0.962  14.541  0.3389 -0.0045  0.4850
11690TIP3    H256562   2.547   0.863  14.649  0.9644  0.0317  0.7363
11691TIP3   OH256563   1.954   2.850   3.204  0.0905 -0.2859  0.3642
11691TIP3    H156564   1.986   2.822   3.290  0.0972 -4.1970 -0.7119
11691TIP3    H256565   1.997   2.934   3.189 -0.7092  1.1471  4.5107
11692TIP3   OH256566   3.027   3.338   6.310  0.2430 -0.5758  0.7036
11692TIP3    H156567   3.111   3.311   6.349  0.3307 -1.3988 -0.0202
11692TIP3    H256568   3.050   3.407   6.248  0.7129 -2.2564 -1.0804
11693TIP3   OH256569   2.141   6.115   2.861 -0.2219 -0.1240  0.8691
11693TIP3    H156570   2.134   6.042   2.799 -1.2557  0.8069 -0.1466
11693TIP3    H256571   2.224   6.099   2.907  0.4337 -0.9936 -0.5451
11694TIP3   OH256572   0.663   4.079   3.939  0.2139 -0.0255 -0.1949
11694TIP3    H156573   0.584   4.132   3.940  0.0834 -0.0285 -2.6907
11694TIP3    H256574   0.636   3.996   3.901  1.3705 -0.0035 -1.1636
11695TIP3   OH256575   3.545   4.992  15.546  0.3865  0.1534  0.3533
11695TIP3    H156576   3.515   5.009  15.457 -1.6054  0.7695  1.0786
11695TIP3    H256577   3.513   5.066  15.597 -0.6664 -1.3261  1.9942
11696TIP3   OH256578   5.513   6.173  12.245 -0.2609 -1.1332  0.0339
11696TIP3    H156579   5.437   6.120  12.268  0.0589 -0.9433  1.6468
11696TIP3    H256580   5.528   6.154  12.153 -2.9579 -0.2651 -0.6614
11697TIP3   OH256581   3.978   1.933  15.680  0.5066  0.0863  0.1750
11697TIP3    H156582   3.997   1.963  15.769  0.2454 -0.8369  0.5545
11697TIP3    H256583   3.933   2.007  15.639 -0.0871  0.2389  1.0687
11698TIP3   OH256584   1.475   4.663   1.151  1.0114  0.6434  0.1135
11698TIP3    H156585   1.568   4.681   1.134  1.0112  0.2766 -0.2860
11698TIP3    H256586   1.463   4.686   1.244  2.1305 -1.7084  0.9192
11699TIP3   OH256587   6.482   6.040   5.660  0.4635 -0.8880  0.1888
11699TIP3    H156588   6.573   6.031   5.690  0.7940 -1.2690 -0.8675
11699TIP3    H256589   6.457   5.951   5.635 -0.4555 -0.9140  1.1228
11700TIP3   OH256590   2.722   5.501  13.631 -0.3181 -0.2094 -0.2960
11700TIP3    H156591   2.770   5.432  13.585 -0.4278 -1.4269  1.3236
11700TIP3    H256592   2.649   5.523  13.573  0.5365 -0.4016 -1.4784
11701TIP3   OH256593   1.708   3.507   2.214 -0.3613 -0.2364  0.7614
11701TIP3    H156594   1.685   3.455   2.137 -0.8409 -0.0308  0.7645
11701TIP3    H256595   1.803   3.516   2.208 -0.6032  2.3158 -1.4943
11702TIP3   OH256596   2.854   5.969   2.891 -0.2373 -0.5047 -0.0949
11702TIP3    H156597   2.859   5.886   2.940 -2.6962 -0.9715 -0.4886
11702TIP3    H256598   2.892   5.949   2.806 -1.4158 -1.4596 -0.4216
11703TIP3   OH256599   4.796   5.788   4.398  0.0833 -0.0094  0.4042
11703TIP3    H156600   4.818   5.784   4.305  0.0594  0.6640  0.3596
11703TIP3    H256601   4.880   5.778   4.443 -0.0138 -1.2515  0.3477
11704TIP3   OH256602   6.396   3.475   5.132  0.2384 -0.3803  0.8095
11704TIP3    H156603   6.391   3.557   5.180 -3.5949 -0.1024  0.2693
11704TIP3    H256604   6.412   3.501   5.041  0.6467 -0.3948  0.8733
11705TIP3   OH256605   4.891   2.694  16.528 -0.2843 -0.5390 -0.6071
11705TIP3    H156606   4.817   2.661  16.580 -0.4772  0.0889 -0.4761
11705TIP3    H256607   4.910   2.780  16.564  1.3374 -1.1886  0.1746
11706TIP3   OH256608   2.765   2.086   5.750 -0.4695 -0.1346 -0.4278
11706TIP3    H156609   2.694   2.139   5.787 -1.2208 -1.0429 -0.5334
11706TIP3    H256610   2.804   2.142   5.683 -1.0186  0.4201 -0.2938
11707TIP3   OH256611   1.215   4.009   1.692 -0.0585  0.1042 -0.6062
11707TIP3    H156612   1.159   3.934   1.670  0.2909 -0.0447 -0.9940
11707TIP3    H256613   1.303   3.974   1.693  0.1291  0.5590 -0.9888
11708TIP3   OH256614   1.683   0.614  15.805  0.1067  0.0935  0.2200
11708TIP3    H156615   1.720   0.537  15.762  1.8578  1.1757 -0.3549
11708TIP3    H256616   1.592   0.591  15.821 -0.1982 -1.0551 -2.5151
11709TIP3   OH256617   1.662   1.833   6.196 -0.6858  0.2109  0.5105
11709TIP3    H156618   1.615   1.751   6.182 -2.2662  1.3587 -1.4604
11709TIP3    H256619   1.669   1.840   6.292 -2.1812 -1.3041  0.7812
11710TIP3   OH256620   5.585   2.845  17.073 -0.6038 -0.1324  0.0513
11710TIP3    H156621   5.597   2.772  17.134 -0.6529 -0.8445 -0.7715
11710TIP3    H256622   5.493   2.867  17.080 -0.5676 -0.0805  0.3765
11711TIP3   OH256623   0.211   2.192  11.570 -0.1682  0.2205 -0.0697
11711TIP3    H156624   0.165   2.148  11.641  0.4030  1.1458  0.9067
11711TIP3    H256625   0.292   2.223  11.610  1.3445 -1.3525 -1.7234
11712TIP3   OH256626   3.845   5.880   5.652  0.4561 -0.3373 -0.2469
11712TIP3    H156627   3.915   5.892   5.716  1.4385 -0.3278 -1.3022
11712TIP3    H256628   3.873   5.929   5.575 -1.3495  0.8086 -0.2437
11713TIP3   OH256629   1.514   4.133  12.235 -0.1514 -0.0064  1.1756
11713TIP3    H156630   1.509   4.175  12.320 -2.0456  1.5605  0.3565
11713TIP3    H256631   1.456   4.185  12.179  1.4345 -0.6457 -1.2109
11714TIP3   OH256632   2.990   4.354   0.053  0.1070 -0.2545 -0.7782
11714TIP3    H156633   3.079   4.326   0.033  2.5197  4.3357  1.7686
11714TIP3    H256634   2.967   4.413  -0.019  0.2029  0.4551 -0.2383
11715TIP3   OH256635   3.180   1.792  15.197  0.0720  0.2012  0.1482
11715TIP3    H156636   3.256   1.764  15.146 -1.1587 -0.4114 -1.4362
11715TIP3    H256637   3.207   1.780  15.288  2.0446  0.5124 -0.3447
11716TIP3   OH256638   3.714   3.461   3.453  0.1012  0.0339 -0.2946
11716TIP3    H156639   3.754   3.472   3.367 -1.1747  0.6466 -0.8215
11716TIP3    H256640   3.667   3.378   3.448  1.7910 -1.0418  0.5523
11717TIP3   OH256641   0.661   5.767   1.752 -0.0515 -0.3871 -0.3729
11717TIP3    H156642   0.700   5.799   1.834 -1.6803 -0.1218  0.3327
11717TIP3    H256643   0.726   5.789   1.685 -0.1367  2.4686  0.3729
11718TIP3   OH256644   6.374   0.655  16.913 -0.1231 -0.6796 -0.7787
11718TIP3    H156645   6.348   0.746  16.909  0.4160 -0.5367 -1.2357
11718TIP3    H256646   6.461   0.657  16.955  0.8293 -0.7545 -2.6351
11719TIP3   OH256647   6.551   3.562   1.667 -0.2872 -0.1329 -0.1691
11719TIP3    H156648   6.500   3.490   1.704 -1.4133  0.7449  0.0285
11719TIP3    H256649   6.585   3.528   1.584 -0.8917 -0.8572 -0.1255
11720TIP3   OH256650   1.680   6.684   4.799  0.5976  0.8029 -0.1057
11720TIP3    H156651   1.701   6.705   4.708  1.2420 -0.3805 -0.2396
11720TIP3    H256652   1.670   6.589   4.801  3.4159  0.4083  1.5824
11721TIP3   OH256653   0.707   4.339  12.590 -0.6295 -0.0574 -0.8924
11721TIP3    H156654   0.751   4.268  12.543  1.1376  0.6114 -0.3397
11721TIP3    H256655   0.777   4.400  12.612 -1.8065  0.8983  0.3800
11722TIP3   OH256656   4.836   5.926   1.654 -0.1393  0.4561 -0.0987
11722TIP3    H156657   4.765   5.980   1.619  0.7352  2.1044  0.5643
11722TIP3    H256658   4.817   5.838   1.621 -1.5128  1.1766 -1.3862
11723TIP3   OH256659   3.210   0.389  11.542 -0.1378  0.1933  0.1330
11723TIP3    H156660   3.286   0.436  11.577  0.0361  0.2908 -0.3753
11723TIP3    H256661   3.238   0.359  11.456 -0.4944 -0.2332  0.1620
11724TIP3   OH256662   0.203   1.915   3.474  0.0230 -0.3025 -0.1865
11724TIP3    H156663   0.119   1.892   3.436  0.5364 -2.4615 -0.1150
11724TIP3    H256664   0.256   1.945   3.400 -0.9832  1.7859 -0.1243
11725TIP3   OH256665   6.458   6.842  13.770  0.0863  0.0057  0.8199
11725TIP3    H156666   6.500   6.928  13.770  1.5653 -0.6518 -0.7760
11725TIP3    H256667   6.513   6.788  13.826  0.1940 -0.3293  0.4004
11726TIP3   OH256668   0.723   2.677  17.126 -0.2731  0.1133 -0.5543
11726TIP3    H156669   0.738   2.641  17.038  0.6631  1.2569 -0.8778
11726TIP3    H256670   0.770   2.760  17.127  0.4129 -0.2452  1.3005
11727TIP3   OH256671   5.286   2.987   0.284 -0.2657  0.1198  0.2046
11727TIP3    H156672   5.373   2.988   0.244 -0.9355  0.8320 -1.2969
11727TIP3    H256673   5.294   2.923   0.355  1.2752 -0.3845 -0.3638
11728TIP3   OH256674   2.537   3.800  14.177  0.4005 -0.4501 -0.4289
11728TIP3    H156675   2.503   3.761  14.258  0.2025 -2.6961 -1.5119
11728TIP3    H256676   2.459   3.807  14.121  0.4524  1.5237 -0.3046
11729TIP3   OH256677   1.729   4.457   6.143  0.3340  0.1223  0.3570
11729TIP3    H156678   1.685   4.397   6.202 -0.6114 -0.7866 -1.1972
11729TIP3    H256679   1.810   4.413   6.119  0.7656  0.5355  1.0251
11730TIP3   OH256680   4.480   6.585   4.908 -0.0047 -0.0883 -0.3497
11730TIP3    H156681   4.506   6.580   4.816  0.5290 -1.5318 -0.1435
11730TIP3    H256682   4.498   6.498   4.943  0.6240  0.6720  1.3490
11731TIP3   OH256683   6.382   3.463  12.742  0.3763 -0.0918 -0.0367
11731TIP3    H156684   6.428   3.434  12.663  0.7248  0.4789 -0.0492
11731TIP3    H256685   6.297   3.493  12.710  0.8480  0.9945 -0.3384
11732TIP3   OH256686   2.706   5.619   3.867 -0.4067  0.1729  1.0923
11732TIP3    H156687   2.756   5.669   3.803 -1.6003 -1.4652 -1.2424
11732TIP3    H256688   2.746   5.532   3.866 -1.9088 -0.5447  0.7570
11733TIP3   OH256689   4.879   0.518  13.004 -0.3083  0.0424 -0.5035
11733TIP3    H156690   4.881   0.482  13.092 -0.1362 -0.1090 -0.5696
11733TIP3    H256691   4.970   0.514  12.974 -0.3105  0.4143 -0.5582
11734TIP3   OH256692   6.522   5.377   1.863  0.2367 -0.5247  0.2232
11734TIP3    H156693   6.512   5.441   1.933  0.5577 -1.0870  0.7907
11734TIP3    H256694   6.438   5.330   1.862  0.3020 -0.6437  0.3568
11735TIP3   OH256695   5.041   5.988   2.874 -0.1551 -0.3645 -0.3879
11735TIP3    H156696   5.052   5.916   2.812  0.4549 -0.1409 -0.5532
11735TIP3    H256697   4.950   6.014   2.865 -0.5452 -1.4790  0.0841
11736TIP3   OH256698   1.387   0.290  13.212 -0.1342 -0.0960  0.2764
11736TIP3    H156699   1.473   0.332  13.216  0.3030 -1.0189  0.9428
11736TIP3    H256700   1.387   0.229  13.286 -1.6120  0.3471  0.6731
11737TIP3   OH256701   0.917   0.240   3.968  0.2511  0.0636 -0.4624
11737TIP3    H156702   0.961   0.292   3.901  0.3343  1.2225  0.4619
11737TIP3    H256703   0.825   0.238   3.941  0.5280 -0.7299 -1.3766
11738TIP3   OH256704   6.132   2.635  11.949  0.0646  0.3320  0.0654
11738TIP3    H156705   6.079   2.557  11.933  0.4538  0.5175 -2.4949
11738TIP3    H256706   6.093   2.702  11.894  0.9896  1.3790  0.6535
11739TIP3   OH256707   1.061   5.417   2.227 -0.2216 -0.2697 -0.2965
11739TIP3    H156708   0.990   5.381   2.174  0.5346 -0.5218 -1.1479
11739TIP3    H256709   1.018   5.483   2.282 -1.2803 -1.1269 -0.0765
11740TIP3   OH256710   1.204   6.567   5.128  0.3472  0.0953 -0.7897
11740TIP3    H156711   1.147   6.491   5.123  1.0942 -0.5228 -0.0651
11740TIP3    H256712   1.291   6.534   5.104  0.6713  0.7283 -0.5118
11741TIP3   OH256713   0.080   6.112   5.479 -0.0883  0.0709  0.1924
11741TIP3    H156714   0.053   6.120   5.570  1.6737  2.0423  0.6263
11741TIP3    H256715   0.092   6.018   5.465 -1.7461 -0.3939  1.5262
11742TIP3   OH256716   0.535   5.626   2.331 -0.3026  0.3281  0.2931
11742TIP3    H156717   0.578   5.613   2.246  0.1936 -1.8912  0.8276
11742TIP3    H256718   0.579   5.703   2.368  0.3748  0.5443 -0.9090
11743TIP3   OH256719   6.151   5.954  12.187  0.2154  0.3251  0.0863
11743TIP3    H156720   6.221   5.895  12.216 -0.8552 -0.3385  1.4453
11743TIP3    H256721   6.088   5.896  12.143 -0.2370  0.6656  0.2838
11744TIP3   OH256722   3.125   6.367  12.197  0.0203 -0.0941 -0.6173
11744TIP3    H156723   3.133   6.456  12.163  0.5616 -0.6566 -2.0453
11744TIP3    H256724   3.060   6.326  12.140  0.0143 -0.7014 -0.1734
11745TIP3   OH256725   0.873   2.180   1.863 -0.0642  0.4311  0.6484
11745TIP3    H156726   0.944   2.186   1.927 -0.6016  0.6371  1.2320
11745TIP3    H256727   0.917   2.186   1.778  0.5699  1.0022  1.0108
11746TIP3   OH256728   5.347   2.483  15.822  0.3256  0.1613  0.0365
11746TIP3    H156729   5.341   2.402  15.874  0.8510  1.8000  2.8732
11746TIP3    H256730   5.256   2.501  15.797  0.0995 -0.8861  0.0389
11747TIP3   OH256731   2.893   3.241   1.558 -0.3200  0.5629 -0.1115
11747TIP3    H156732   2.915   3.148   1.558 -0.7986  0.4051  1.6956
11747TIP3    H256733   2.808   3.246   1.513  0.5164  0.3990 -1.7938
11748TIP3   OH256734   2.788   2.607  15.506  0.2302  0.4432  0.1391
11748TIP3    H156735   2.807   2.691  15.464  1.2988 -0.8101 -2.0461
11748TIP3    H256736   2.746   2.555  15.438 -0.8591 -0.6720  1.5956
11749TIP3   OH256737   2.913   6.375   5.847  0.4478  0.1307  0.5907
11749TIP3    H156738   2.909   6.454   5.900  1.2773  0.7770 -0.2690
11749TIP3    H256739   2.960   6.312   5.901  0.1740  0.3675  1.1093
11750TIP3   OH256740   5.533   2.081   5.242  0.1403 -0.4837  0.0558
11750TIP3    H156741   5.527   1.997   5.287 -1.9175 -0.6002 -0.3625
11750TIP3    H256742   5.500   2.145   5.304  0.3811 -0.1814 -0.1239
11751TIP3   OH256743   1.199   3.956  13.878 -0.2616 -0.1195  0.0658
11751TIP3    H156744   1.275   3.957  13.936  0.1367  0.1365 -0.4553
11751TIP3    H256745   1.129   3.997  13.929 -0.0304 -0.2811  0.5157
11752TIP3   OH256746   5.674   0.289  17.107  0.0964  0.6391  0.1542
11752TIP3    H156747   5.657   0.220  17.172 -1.8287  1.8238  0.9775
11752TIP3    H256748   5.751   0.335  17.140 -0.5706  0.9194  1.3430
11753TIP3   OH256749   3.053   0.150   6.581  0.0883  0.1657  0.6927
11753TIP3    H156750   3.097   0.075   6.539 -1.6725  0.3315 -1.6745
11753TIP3    H256751   2.963   0.121   6.593 -0.3696  1.5457  0.6976
11754TIP3   OH256752   2.870   1.885   4.385  0.1390  0.1224  0.4748
11754TIP3    H156753   2.795   1.842   4.342  0.9198 -2.1024  1.1935
11754TIP3    H256754   2.928   1.909   4.313 -0.1528 -0.3946  0.0529
11755TIP3   OH256755   0.987   1.356  15.302  0.1464 -0.5779  0.5580
11755TIP3    H156756   0.900   1.340  15.340 -0.0040 -1.4248 -0.1175
11755TIP3    H256757   1.031   1.411  15.367 -0.7745 -0.4209  1.0686
11756TIP3   OH256758   0.007   2.701  16.967  0.4405  0.8388 -0.2563
11756TIP3    H156759   0.036   2.611  16.986  0.2304  0.7283 -0.4648
11756TIP3    H256760   0.047   2.753  17.037  0.5875  0.5878 -0.1495
11757TIP3   OH256761   5.180   2.477   4.918  0.2938  0.2748  0.6261
11757TIP3    H156762   5.174   2.566   4.884  0.6139  0.6844  1.5984
11757TIP3    H256763   5.236   2.431   4.856  1.3012  1.1411  0.8585
11758TIP3   OH256764   5.573   1.325  12.861  0.6431  0.4147 -0.7732
11758TIP3    H156765   5.658   1.293  12.891  0.8294  2.3459  1.0100
11758TIP3    H256766   5.521   1.246  12.848  1.4484 -0.7041  2.0929
11759TIP3   OH256767   6.218   4.872  16.206 -0.0627  0.4514 -0.6804
11759TIP3    H156768   6.240   4.858  16.298  1.6387  1.8757 -0.8122
11759TIP3    H256769   6.287   4.826  16.158  0.3669  1.5717 -1.1746
11760TIP3   OH256770   1.103   4.190  11.558  0.6966  0.0697  0.2795
11760TIP3    H156771   1.077   4.255  11.493  0.2827 -0.1275  0.2489
11760TIP3    H256772   1.139   4.117  11.507  0.9890  0.1934  0.3050
11761TIP3   OH256773   1.587   1.344  13.769 -0.1932 -0.7225 -0.1794
11761TIP3    H156774   1.618   1.358  13.680  0.8896 -3.0944 -0.2690
11761TIP3    H256775   1.660   1.372  13.824  0.6135 -2.5615 -0.2361
11762TIP3   OH256776   6.529   5.277  14.221  0.1319 -0.4670 -0.2365
11762TIP3    H156777   6.502   5.197  14.176 -0.0123 -0.7149  0.2748
11762TIP3    H256778   6.522   5.346  14.155 -1.1917 -0.6249 -0.2731
11763TIP3   OH256779   1.979   4.052  14.479 -0.2734 -0.0862 -0.3810
11763TIP3    H156780   2.025   4.056  14.563 -1.8748  1.5121  0.4837
11763TIP3    H256781   1.977   4.143  14.448  1.7108 -0.8204 -3.0312
11764TIP3   OH256782   0.968   3.449  16.746 -0.2655  0.8560  0.0260
11764TIP3    H156783   0.992   3.519  16.807 -0.0474  0.3698  0.5096
11764TIP3    H256784   1.001   3.479  16.661 -0.6697  1.5891  0.1191
11765TIP3   OH256785   1.892   0.803  14.743  0.3737  1.0480  0.2252
11765TIP3    H156786   1.837   0.854  14.802  0.3822  2.6749 -1.1096
11765TIP3    H256787   1.872   0.838  14.656  1.4062 -0.3079 -0.5906
11766TIP3   OH256788   1.596   4.088   2.290 -0.2600  0.1259  0.0966
11766TIP3    H156789   1.604   4.061   2.381  0.4386  0.8921  0.2758
11766TIP3    H256790   1.647   4.024   2.241  0.8317  0.7008  0.4449
11767TIP3   OH256791   0.449   0.937   1.946 -0.1009 -0.5575  0.0744
11767TIP3    H156792   0.472   0.928   1.853 -0.2633  0.6931 -0.0994
11767TIP3    H256793   0.357   0.909   1.950 -0.3181  0.0930 -0.2756
11768TIP3   OH256794   2.151   3.479  13.502 -0.4065  0.1175  0.0885
11768TIP3    H156795   2.214   3.518  13.563  1.1302 -1.3631 -0.4676
11768TIP3    H256796   2.127   3.395  13.542 -0.6444 -0.1302 -0.5586
11769TIP3   OH256797   3.553   6.631   2.744  0.1312 -0.1956  0.2403
11769TIP3    H156798   3.541   6.683   2.664  2.7392  0.3041  0.0845
11769TIP3    H256799   3.611   6.559   2.717 -2.2370 -2.4434  0.7981
11770TIP3   OH256800   5.353   0.529  15.042 -0.1367 -0.5471 -0.3746
11770TIP3    H156801   5.441   0.516  15.077 -0.9324 -1.0819  1.5270
11770TIP3    H256802   5.367   0.545  14.949  1.8285 -2.9438 -0.6017
11771TIP3   OH256803   2.182   1.149   3.472  0.2754 -0.0444 -0.0640
11771TIP3    H156804   2.177   1.098   3.553  0.4554  2.0456  1.3636
11771TIP3    H256805   2.092   1.161   3.445  0.1471  0.0736  0.4022
11772TIP3   OH256806   3.053   2.507  10.578  0.0806  0.4233 -0.0420
11772TIP3    H156807   3.007   2.457  10.647  0.1742  1.3713  0.7342
11772TIP3    H256808   2.992   2.508  10.505 -0.8080  0.9247  0.6752
11773TIP3   OH256809   5.394   1.469  14.994 -0.0672  0.0809 -0.2519
11773TIP3    H156810   5.464   1.481  14.930 -0.1974  0.8914 -0.2559
11773TIP3    H256811   5.320   1.517  14.957  0.1770  1.5164  1.0031
11774TIP3   OH256812   1.360   6.118  14.903  0.1003 -0.1677  0.1541
11774TIP3    H156813   1.386   6.036  14.862 -2.4811 -1.2891  0.5549
11774TIP3    H256814   1.392   6.112  14.993  0.3031 -0.5324  0.0555
11775TIP3   OH256815   2.923   3.746  13.843  0.7971  0.0689 -0.0943
11775TIP3    H156816   2.960   3.831  13.869 -0.5680  0.9000 -0.7237
11775TIP3    H256817   2.991   3.682  13.863  2.8944  1.5728 -1.9480
11776TIP3   OH256818   0.857   3.890  13.214 -0.1072  0.4257  0.2880
11776TIP3    H156819   0.822   3.936  13.291  1.3182 -0.1742  1.3314
11776TIP3    H256820   0.900   3.812  13.250 -0.8926 -0.8023 -1.2804
11777TIP3   OH256821   4.874   0.450  14.043 -0.3557  0.1443 -0.0950
11777TIP3    H156822   4.934   0.375  14.040  1.0380  1.1600  1.2677
11777TIP3    H256823   4.797   0.420  13.994  1.6841 -0.7763 -3.0592
11778TIP3   OH256824   3.972   2.746  13.216 -0.3834  0.1908 -0.1315
11778TIP3    H156825   4.066   2.763  13.211 -0.2635 -0.7654 -1.5126
11778TIP3    H256826   3.934   2.831  13.239  0.8831  0.3461  1.5632
11779TIP3   OH256827   0.849   3.842   5.199 -0.7209 -0.6427 -0.4055
11779TIP3    H156828   0.867   3.805   5.112  4.0342  1.9197 -0.9019
11779TIP3    H256829   0.818   3.931   5.181 -0.2816 -0.2976  0.4963
11780TIP3   OH256830   0.677   6.487   2.177  0.4802 -0.1517 -0.1225
11780TIP3    H156831   0.717   6.419   2.125  1.2549 -0.1805  0.4967
11780TIP3    H256832   0.583   6.477   2.161  0.6232 -0.9698 -0.5045
11781TIP3   OH256833   0.473   5.867  16.624 -0.3779  0.0535 -0.5174
11781TIP3    H156834   0.412   5.937  16.647  0.7216  0.6322  0.8286
11781TIP3    H256835   0.475   5.811  16.702  2.2732  1.1784  0.3446
11782TIP3   OH256836   0.057   1.308  12.499 -0.1066  0.4452 -0.8569
11782TIP3    H156837   0.042   1.312  12.594 -2.6382  0.4476 -1.1819
11782TIP3    H256838   0.116   1.234  12.487  1.5455  1.4007  0.7956
11783TIP3   OH256839   4.575   5.060  15.660  0.2193  0.5572  0.6934
11783TIP3    H156840   4.589   5.136  15.718 -2.1555  2.5134 -1.0730
11783TIP3    H256841   4.557   4.988  15.720  1.6559  1.5445  2.4347
11784TIP3   OH256842   3.944   6.697  12.026 -0.4214  0.2838 -0.1344
11784TIP3    H156843   3.902   6.629  11.973 -0.5960 -1.6458  2.3097
11784TIP3    H256844   4.025   6.657  12.057 -0.5940  1.0995  1.4705
11785TIP3   OH256845   2.722   1.175   1.046  0.4422  0.7598  0.0210
11785TIP3    H156846   2.807   1.190   1.086  0.6075 -1.6774  0.7769
11785TIP3    H256847   2.665   1.150   1.119 -0.3306  0.2171 -0.7428
11786TIP3   OH256848   0.506   3.210   2.916  0.3942  0.0822  0.0968
11786TIP3    H156849   0.555   3.139   2.876  0.6028 -0.1601  0.7666
11786TIP3    H256850   0.563   3.242   2.986 -0.2558  0.0181  0.6706
11787TIP3   OH256851   0.376   5.457  12.642 -0.0488  0.0123 -0.3932
11787TIP3    H156852   0.375   5.388  12.708  0.2206  0.5275  0.1612
11787TIP3    H256853   0.446   5.516  12.670  0.3205  0.0474 -1.3428
11788TIP3   OH256854   1.747   1.646  13.497  0.4239 -0.2900  0.2588
11788TIP3    H156855   1.716   1.727  13.455  1.7129 -0.6405 -1.4497
11788TIP3    H256856   1.691   1.638  13.575 -0.2891  1.7970  0.0483
11789TIP3   OH256857   6.040   6.329   2.855  0.2508 -0.1834  0.3006
11789TIP3    H156858   6.030   6.340   2.950  0.4348 -1.0868  0.4382
11789TIP3    H256859   6.063   6.237   2.845  0.9132  0.0753 -0.5789
11790TIP3   OH256860   3.622   6.534  14.739  0.1061 -0.2984 -0.5109
11790TIP3    H156861   3.678   6.571  14.808 -0.7372  3.0919 -1.4543
11790TIP3    H256862   3.684   6.507  14.671  0.7516 -0.1583  0.0040
11791TIP3   OH256863   1.119   0.691   2.816  0.2422 -0.3300  0.1308
11791TIP3    H156864   1.122   0.629   2.889  1.7517  1.0528  1.3067
11791TIP3    H256865   1.076   0.769   2.852 -0.1195 -0.0684 -0.8422
11792TIP3   OH256866   5.973   0.594   1.568 -0.0221 -0.3236  0.0601
11792TIP3    H156867   5.913   0.529   1.605  0.3985 -0.2911  0.8229
11792TIP3    H256868   5.967   0.669   1.627 -0.0198  0.0900 -0.4534
11793TIP3   OH256869   0.126   2.985   4.071 -0.5826  0.3350  0.5760
11793TIP3    H156870   0.190   2.995   4.141 -1.2578 -0.5697  1.3431
11793TIP3    H256871   0.047   3.028   4.105 -0.4229  1.4018 -0.3406
11794TIP3   OH256872   5.336   5.012   2.255 -0.0800 -0.0939 -0.2398
11794TIP3    H156873   5.374   5.089   2.211  0.2128  0.8572  1.5999
11794TIP3    H256874   5.312   5.044   2.342 -1.1912 -1.7719  0.0994
11795TIP3   OH256875   5.708   1.019   5.330 -0.2579  0.1630 -0.1574
11795TIP3    H156876   5.769   0.966   5.278 -0.2624 -2.3359  2.2047
11795TIP3    H256877   5.743   1.017   5.418 -3.3220 -0.7675  1.1692
11796TIP3   OH256878   6.464   2.686  15.096  0.2532  0.1337 -0.6559
11796TIP3    H156879   6.423   2.623  15.036 -0.3959 -0.7640  0.6674
11796TIP3    H256880   6.391   2.719  15.149  1.1219 -1.4672  1.7436
11797TIP3   OH256881   3.913   0.757  14.923  0.3457 -0.3415 -0.0027
11797TIP3    H156882   3.846   0.691  14.941 -1.0173  0.5923 -1.4428
11797TIP3    H256883   3.958   0.768  15.007 -0.8872 -1.4580  0.8479
11798TIP3   OH256884   2.616   5.282   5.465 -0.0314 -0.0296 -0.0014
11798TIP3    H156885   2.693   5.299   5.411 -0.0160 -0.2270 -0.0425
11798TIP3    H256886   2.632   5.330   5.546 -0.5167  1.1145 -0.5618
11799TIP3   OH256887   3.284   5.751  11.639 -0.1415 -0.4369 -0.0666
11799TIP3    H156888   3.190   5.760  11.655 -0.0929  0.8994 -0.3929
11799TIP3    H256889   3.314   5.691  11.707 -0.8294  1.0085  1.6094
11800TIP3   OH256890   1.292   1.481  16.610 -0.3590 -0.3931  0.5610
11800TIP3    H156891   1.255   1.396  16.587  1.7051 -1.3459  0.4838
11800TIP3    H256892   1.267   1.538  16.538 -0.7207 -1.2602 -0.0247
11801TIP3   OH256893   2.092   6.836  11.276  0.2484 -0.1844  0.4975
11801TIP3    H156894   2.047   6.793  11.349 -0.3125  0.4038  0.5088
11801TIP3    H256895   2.125   6.918  11.313 -0.5307  0.3839 -0.0361
11802TIP3   OH256896   0.647   4.448   0.158  0.0771  0.4906  0.2358
11802TIP3    H156897   0.681   4.442   0.247 -1.1331  0.0722  0.6901
11802TIP3    H256898   0.554   4.424   0.166 -0.1057  0.6790 -1.0967
11803TIP3   OH256899   6.724   1.452   0.950  0.1151  0.1283 -0.4138
11803TIP3    H156900   6.743   1.392   0.879 -0.6742 -0.5596 -0.0603
11803TIP3    H256901   6.798   1.513   0.951  0.9230 -0.8181 -0.7937
11804TIP3   OH256902   0.323   2.541   0.343 -0.0842  0.2070  0.0553
11804TIP3    H156903   0.260   2.537   0.416 -0.0062 -0.3555  0.1016
11804TIP3    H256904   0.382   2.467   0.359  0.6691  0.8036  0.0803
11805TIP3   OH256905   2.049   5.426   0.033 -0.3541 -0.7070 -0.1465
11805TIP3    H156906   2.110   5.459   0.099 -0.2998 -1.5890  0.2551
11805TIP3    H256907   2.100   5.426  -0.048  0.4255 -2.0711  0.3096
11806TIP3   OH256908   5.559   0.965  10.191 -0.2654  0.2693 -0.0379
11806TIP3    H156909   5.541   1.018  10.269 -2.6501 -1.2145  0.5157
11806TIP3    H256910   5.498   0.997  10.125 -0.3132 -0.4362 -0.3481
11807TIP3   OH256911   1.958   5.100   2.551 -0.0347 -0.4022  0.0344
11807TIP3    H156912   1.906   5.025   2.580 -1.7796  1.2590  1.4896
11807TIP3    H256913   2.046   5.083   2.584 -0.6402 -1.3703  1.2118
11808TIP3   OH256914   0.761   6.566  16.723  0.1955  0.6649 -0.7168
11808TIP3    H156915   0.768   6.567  16.627  1.0318 -0.3705 -0.6853
11808TIP3    H256916   0.728   6.653  16.746  1.7586  1.5800 -1.8080
11809TIP3   OH256917   0.999   3.478   0.051  0.4613  0.7991  0.0614
11809TIP3    H156918   1.066   3.546   0.050  0.0473  1.2070 -0.2441
11809TIP3    H256919   1.003   3.439  -0.037 -0.6277  1.7551 -0.4401
11810TIP3   OH256920   4.768   0.172  15.883 -0.5690  0.2850  0.4737
11810TIP3    H156921   4.745   0.251  15.834 -1.5123 -0.1438  0.1994
11810TIP3    H256922   4.862   0.163  15.870 -0.7070  0.4577 -0.8802
11811TIP3   OH256923   1.394   3.770   0.323 -0.7874  0.0805  0.1212
11811TIP3    H156924   1.306   3.735   0.336 -0.9080  0.2809 -0.1476
11811TIP3    H256925   1.408   3.826   0.399 -0.4902 -0.7431  0.6875
11812TIP3   OH256926   2.227   0.278  14.941  0.2211  0.1783  0.2159
11812TIP3    H156927   2.188   0.235  14.864 -0.2960 -0.1578  0.6513
11812TIP3    H256928   2.219   0.213  15.011  0.0864  0.7212  0.7146
11813TIP3   OH256929   3.412   3.449  15.462 -0.1597 -0.7378  0.6427
11813TIP3    H156930   3.501   3.430  15.492  0.9285 -0.9790 -2.3814
11813TIP3    H256931   3.357   3.386  15.508  1.1254 -0.3263  2.8793
11814TIP3   OH256932   4.997   3.394  11.505  0.3007 -0.3364  0.8550
11814TIP3    H156933   4.912   3.368  11.540  0.0224  1.1500  1.3351
11814TIP3    H256934   4.978   3.440  11.424  0.6069  0.2620  1.1114
11815TIP3   OH256935   1.833   5.066  15.141 -0.6730 -0.1437  0.6225
11815TIP3    H156936   1.842   5.046  15.048 -1.0895  0.2304  0.4971
11815TIP3    H256937   1.739   5.074  15.155 -0.6309 -0.5829  1.1613
11816TIP3   OH256938   0.889   1.380  16.426 -0.0189  0.0764  0.0612
11816TIP3    H156939   0.876   1.475  16.428  2.5190  0.5750  4.1102
11816TIP3    H256940   0.809   1.344  16.462 -0.1245  0.9015  0.6903
11817TIP3   OH256941   4.722   0.528  16.726  0.1965  0.0354  0.0903
11817TIP3    H156942   4.787   0.590  16.692 -0.7499  0.9920  0.0023
11817TIP3    H256943   4.746   0.516  16.818  2.3710 -2.0504 -0.6401
11818TIP3   OH256944   0.428   4.069  14.716  0.1915 -0.0550 -0.0581
11818TIP3    H156945   0.421   4.026  14.802 -2.4159  0.2165 -0.0567
11818TIP3    H256946   0.426   3.997  14.653 -0.5382 -0.1513  0.0613
11819TIP3   OH256947   5.286   2.614   2.065 -0.3812  0.0666  0.4303
11819TIP3    H156948   5.327   2.679   2.008  0.5202  0.1912  1.1922
11819TIP3    H256949   5.206   2.589   2.019 -0.4513  1.2842 -0.1505
11820TIP3   OH256950   6.735   1.468   3.983  0.0491  0.1264 -0.1569
11820TIP3    H156951   6.640   1.466   3.973 -0.2582  0.6231  2.1713
11820TIP3    H256952   6.750   1.439   4.072  2.1298 -0.1655 -0.5590
11821TIP3   OH256953   1.399   2.364   5.672  0.5771 -0.0682  0.6645
11821TIP3    H156954   1.409   2.289   5.731 -1.3070 -0.3051  0.7573
11821TIP3    H256955   1.412   2.441   5.728  1.6563 -0.2925  0.7493
11822TIP3   OH256956   1.434   2.867  14.459  0.0306 -0.9510 -0.2266
11822TIP3    H156957   1.505   2.818  14.418  0.9927  0.9186 -0.9338
11822TIP3    H256958   1.463   2.958  14.455 -1.2127 -0.3973  1.9371
11823TIP3   OH256959   0.758   0.007  16.045 -1.0682 -0.7779  0.3438
11823TIP3    H156960   0.764   0.096  16.079  0.2658 -0.7573  0.0878
11823TIP3    H256961   0.670   0.002  16.008 -2.2062 -0.4682  2.8089
11824TIP3   OH256962   3.012   1.535  12.923 -0.3242 -0.1088 -0.1889
11824TIP3    H156963   3.022   1.583  12.840 -0.7417 -0.1425 -0.2636
11824TIP3    H256964   3.094   1.550  12.970  0.3433 -0.9234 -1.0398
11825TIP3   OH256965   3.414   2.160  16.169 -0.7063 -0.5577  0.0372
11825TIP3    H156966   3.355   2.207  16.228  2.0205 -0.4918  3.0147
11825TIP3    H256967   3.450   2.228  16.112 -0.2056  0.2455  1.2523
11826TIP3   OH256968   6.344   2.409  15.114  0.3707 -0.3087  0.4444
11826TIP3    H156969   6.350   2.385  15.021  0.2920 -1.1958  0.6526
11826TIP3    H256970   6.431   2.445  15.134  1.6499 -3.2924  0.8347
11827TIP3   OH256971   1.627   6.283  14.254 -0.1766 -0.1688 -0.4426
11827TIP3    H156972   1.666   6.235  14.327  1.3205 -0.8334 -1.6288
11827TIP3    H256973   1.627   6.221  14.181  0.0216  1.0221 -1.4990
11828TIP3   OH256974   0.323   5.472  11.107  0.0552 -0.0184  0.8441
11828TIP3    H156975   0.324   5.394  11.052  0.1984 -0.3438  1.3016
11828TIP3    H256976   0.414   5.484  11.134 -0.0244  0.0881  1.0756
11829TIP3   OH256977   2.702   2.682  12.835 -0.2309  0.4634 -0.5689
11829TIP3    H156978   2.718   2.777  12.832 -1.5351  0.7207 -0.0738
11829TIP3    H256979   2.608   2.673  12.817 -0.0255 -0.7894 -1.1587
11830TIP3   OH256980   0.912   0.062  15.793 -0.0212 -0.2018  0.1115
11830TIP3    H156981   0.897   0.154  15.768  1.9418  0.1472  0.0748
11830TIP3    H256982   0.869   0.053  15.878  0.8643  1.1605  0.7490
11831TIP3   OH256983   0.268   4.480  13.276 -0.7003 -0.3266 -0.3656
11831TIP3    H156984   0.313   4.483  13.192 -0.9392 -1.8288 -0.5675
11831TIP3    H256985   0.229   4.567  13.285  1.4904  0.7587 -0.5676
11832TIP3   OH256986   1.220   1.261  11.669 -0.2013 -0.2880 -0.3852
11832TIP3    H156987   1.218   1.310  11.751 -1.3264  1.5485 -1.4592
11832TIP3    H256988   1.157   1.190  11.682 -1.3844  0.7792 -0.0989
11833TIP3   OH256989   6.780   1.096   5.331  0.0345 -0.0821  0.5961
11833TIP3    H156990   6.745   1.184   5.325 -1.6784 -0.6519  1.6169
11833TIP3    H256991   6.826   1.083   5.248 -2.6979  0.5260 -1.1551
11834TIP3   OH256992   3.072   4.873   2.055 -0.0237 -0.5606  0.4640
11834TIP3    H156993   3.043   4.820   1.981 -0.7299  0.4789 -0.0241
11834TIP3    H256994   3.057   4.818   2.132 -2.6354 -0.3531  0.1699
11835TIP3   OH256995   6.609   4.575  15.193 -0.0256 -0.2789 -0.1857
11835TIP3    H156996   6.557   4.562  15.273 -1.3390 -1.5132 -1.1725
11835TIP3    H256997   6.557   4.637  15.141  0.3187 -0.2395 -0.4846
11836TIP3   OH256998   6.426   3.402  14.366  0.0315  0.3593 -0.0451
11836TIP3    H156999   6.521   3.401  14.355  0.0590  0.2753  0.1976
11836TIP3    H257000   6.410   3.472  14.430  0.1122 -1.0827  1.6061
11837TIP3   OH257001   0.782   5.256  14.352  0.3044 -0.1205  0.0217
11837TIP3    H157002   0.867   5.292  14.377  0.3700 -0.6289  0.5846
11837TIP3    H257003   0.792   5.161  14.367 -0.1509 -0.2586 -0.5330
11838TIP3   OH257004   6.393   0.018   2.238  0.2471  0.8049 -0.2691
11838TIP3    H157005   6.472   0.062   2.269  0.4971  0.2960 -0.1750
11838TIP3    H257006   6.392   0.033   2.144  0.3072  1.0413 -0.2339
11839TIP3   OH257007   6.765   4.436   4.740 -0.1482 -0.3326  0.0104
11839TIP3    H157008   6.721   4.380   4.675  1.3593 -0.2727 -1.0983
11839TIP3    H257009   6.853   4.399   4.748  0.4989  1.1792  0.1379
11840TIP3   OH257010   4.496   6.511  16.477 -0.0221  0.1664 -0.1861
11840TIP3    H157011   4.431   6.579  16.494 -1.0726 -1.0510  0.9367
11840TIP3    H257012   4.450   6.447  16.423  0.8557  0.1854 -0.9742
11841TIP3   OH257013   0.908   3.566   3.570 -0.6416  0.3548  0.2467
11841TIP3    H157014   0.813   3.574   3.580 -0.7542  0.2767 -0.6622
11841TIP3    H257015   0.933   3.495   3.629 -0.7252  2.2023  2.6501
11842TIP3   OH257016   1.869   3.935  13.114  0.1115 -0.5047 -0.1463
11842TIP3    H157017   1.937   3.868  13.117 -0.7582 -1.4196 -0.1318
11842TIP3    H257018   1.909   4.009  13.068  0.6294 -1.5730 -1.4746
11843TIP3   OH257019   3.174   6.068   4.404 -0.3257  0.4841  0.3100
11843TIP3    H157020   3.187   6.163   4.403  0.8513  0.3415  0.5482
11843TIP3    H257021   3.246   6.034   4.352 -0.9255 -0.2697 -0.0366
11844TIP3   OH257022   5.266   2.305   2.159 -0.2156  0.3741  0.5756
11844TIP3    H157023   5.307   2.307   2.245  1.1944 -1.2665  0.0092
11844TIP3    H257024   5.303   2.380   2.112 -0.1838  0.6580  1.0582
11845TIP3   OH257025   4.066   5.550   6.195  0.7206 -0.5004 -0.2139
11845TIP3    H157026   4.030   5.638   6.182  1.4742 -0.3367 -1.4083
11845TIP3    H257027   3.990   5.493   6.199  0.1874  0.2651  1.2286
11846TIP3   OH257028   4.729   6.266  17.097  0.3516 -0.2006  0.4182
11846TIP3    H157029   4.797   6.239  17.159  0.8756  1.1107  0.4525
11846TIP3    H257030   4.654   6.288  17.152 -0.1840 -1.8044  0.3717
11847TIP3   OH257031   2.958   1.571   2.383  0.3149  0.4654 -0.1853
11847TIP3    H157032   2.942   1.537   2.472 -0.6426  0.2680 -0.4171
11847TIP3    H257033   2.933   1.663   2.389  2.9158  1.2137  0.4454
11848TIP3   OH257034   0.391   4.269  12.043 -0.0001 -0.1473 -0.0377
11848TIP3    H157035   0.450   4.257  12.117  0.6510 -0.5027 -0.6108
11848TIP3    H257036   0.448   4.275  11.967 -0.4848  2.5617 -0.2891
11849TIP3   OH257037   4.885   1.907   2.157  0.3812 -0.9690 -0.3818
11849TIP3    H157038   4.904   1.900   2.250 -0.2083 -0.4320 -0.2198
11849TIP3    H257039   4.869   2.000   2.142  1.6177 -0.8565 -1.2417
11850TIP3   OH257040   3.274   4.033   2.334  0.1671 -0.3530 -0.3230
11850TIP3    H157041   3.330   4.025   2.411  0.0281 -1.6651 -0.3395
11850TIP3    H257042   3.196   4.077   2.366 -0.3039 -1.7413  0.5389
11851TIP3   OH257043   3.241   0.492  12.180 -0.1351 -0.2861  0.1366
11851TIP3    H157044   3.312   0.493  12.115 -0.1792  0.1162  0.0972
11851TIP3    H257045   3.222   0.584  12.197 -0.8361 -0.3951 -0.0481
11852TIP3   OH257046   3.391   0.270  12.305  0.3502  0.3696  0.0591
11852TIP3    H157047   3.372   0.329  12.231  1.3082 -0.6716 -1.0711
11852TIP3    H257048   3.441   0.199  12.265  1.3602  0.0488  1.8304
11853TIP3   OH257049   4.292   6.351   1.937 -0.4132 -0.6020  0.6640
11853TIP3    H157050   4.293   6.416   2.007 -0.6202  0.9884 -0.7577
11853TIP3    H257051   4.385   6.338   1.915 -0.4119  0.1342  0.1716
11854TIP3   OH257052   4.595   6.510  13.805  0.5788 -0.3671 -0.2166
11854TIP3    H157053   4.540   6.433  13.790 -1.8565  0.9963  1.1968
11854TIP3    H257054   4.596   6.522  13.900  1.6053  0.8609 -0.3509
11855TIP3   OH257055   6.123   5.980   0.894 -0.1008  0.3589 -1.1423
11855TIP3    H157056   6.036   5.989   0.932  0.2906  0.3366 -0.2330
11855TIP3    H257057   6.156   5.897   0.927  1.0189  1.2547  0.0756
11856TIP3   OH257058   5.249   3.313  16.332  0.8982 -0.1131  0.3086
11856TIP3    H157059   5.312   3.251  16.295  0.3382 -1.7812  1.9857
11856TIP3    H257060   5.190   3.259  16.384 -1.5974  1.4671 -0.7061
11857TIP3   OH257061   4.559   3.396  11.683  0.0741 -0.0337 -0.3580
11857TIP3    H157062   4.528   3.351  11.762 -1.2483 -0.0717 -0.8690
11857TIP3    H257063   4.509   3.477  11.680  0.9052  0.4793 -0.5895
11858TIP3   OH257064   6.535   2.202  12.747 -0.1998 -0.4874  0.1079
11858TIP3    H157065   6.500   2.283  12.710  2.4054  0.1241 -1.2547
11858TIP3    H257066   6.530   2.138  12.676 -2.1340 -1.5847  1.1417
11859TIP3   OH257067   5.454   3.510  12.262 -0.1355  0.3608 -0.3326
11859TIP3    H157068   5.360   3.500  12.277  0.1529 -2.0683  0.2779
11859TIP3    H257069   5.461   3.545  12.173 -1.6507 -2.4899 -1.7143
11860TIP3   OH257070   6.242   0.256   4.230  0.2773  0.2124 -0.2003
11860TIP3    H157071   6.318   0.245   4.172  0.1186  4.7970 -1.6559
11860TIP3    H257072   6.273   0.313   4.300 -1.2454  0.2108  0.5174
11861TIP3   OH257073   2.773   4.380   4.764 -0.1218  0.0387  0.5960
11861TIP3    H157074   2.787   4.474   4.762  0.0585  0.2250  4.0262
11861TIP3    H257075   2.861   4.342   4.760 -0.0220  0.1595  1.4812
11862TIP3   OH257076   0.502   2.769  14.370  0.1040 -0.1833  0.1415
11862TIP3    H157077   0.412   2.738  14.364 -0.6771  1.5006  1.9345
11862TIP3    H257078   0.520   2.811  14.286 -0.2197 -1.7768 -0.7735
11863TIP3   OH257079   6.522   0.343  14.064  0.1543  0.0005 -0.3329
11863TIP3    H157080   6.553   0.285  13.995  1.3109  1.1161 -0.7948
11863TIP3    H257081   6.427   0.329  14.067  0.5275 -3.0159  0.6277
11864TIP3   OH257082   2.206   3.567   4.271  0.7353 -0.3786 -0.5917
11864TIP3    H157083   2.242   3.485   4.305  0.7924  0.3181  1.1570
11864TIP3    H257084   2.283   3.617   4.244  1.0309  0.3641  1.4156
11865TIP3   OH257085   4.634   4.913   4.527 -0.4478 -0.4187 -0.0795
11865TIP3    H157086   4.715   4.963   4.523 -0.2881 -0.6277  0.4352
11865TIP3    H257087   4.609   4.899   4.435  1.7410 -3.0041 -0.4045
11866TIP3   OH257088   6.384   4.637   4.095  0.1033 -0.7379 -0.6560
11866TIP3    H157089   6.399   4.670   4.184 -1.3591  0.1338 -0.7019
11866TIP3    H257090   6.315   4.571   4.106 -0.4601 -0.2557 -1.1807
11867TIP3   OH257091   3.801   4.590  12.861  0.9265 -0.4407  0.3193
11867TIP3    H157092   3.855   4.659  12.823 -0.6365  0.7472  0.1969
11867TIP3    H257093   3.788   4.616  12.952 -2.4899  1.3629 -0.5178
11868TIP3   OH257094   6.371   4.959   1.260 -0.1871  0.3222  0.1273
11868TIP3    H157095   6.370   4.969   1.165 -1.3972 -0.3594  0.0519
11868TIP3    H257096   6.292   4.908   1.280  0.0228  0.4972  1.5019
11869TIP3   OH257097   5.645   5.327  16.317  0.5803 -0.0108  0.6524
11869TIP3    H157098   5.651   5.422  16.315 -1.4005  0.2051  2.4679
11869TIP3    H257099   5.605   5.304  16.233  0.9823  0.7341  0.2424
11870TIP3   OH257100   4.020   5.592   0.390  0.1199 -0.0007  0.6145
11870TIP3    H157101   3.940   5.605   0.440  0.9633  0.7121  1.8485
11870TIP3    H257102   3.992   5.587   0.299 -1.2793  0.5835  0.9958
11871TIP3   OH257103   5.060   6.495   2.377 -0.2057 -0.0941  0.3349
11871TIP3    H157104   5.017   6.410   2.371 -0.2570 -0.2401  2.0914
11871TIP3    H257105   4.999   6.549   2.427  0.4795  0.5148  0.5270
11872TIP3   OH257106   3.293   3.075   0.701 -0.1315 -0.5497 -0.3461
11872TIP3    H157107   3.351   3.018   0.652 -0.9328 -2.4906  0.8733
11872TIP3    H257108   3.265   3.023   0.776 -1.5704  1.1512  0.3726
11873TIP3   OH257109   4.230   5.766  15.518  0.5048 -0.1704 -0.0107
11873TIP3    H157110   4.212   5.807  15.433  2.2790  0.6190 -0.0493
11873TIP3    H257111   4.319   5.731  15.509 -0.4816 -3.0519  0.4310
11874TIP3   OH257112   2.758   0.176   0.571 -0.3282  0.1228 -0.1544
11874TIP3    H157113   2.813   0.097   0.571 -0.1474  0.1385 -3.1468
11874TIP3    H257114   2.669   0.143   0.586  0.2068  0.0085  3.8538
11875TIP3   OH257115   0.992   0.535  13.278 -0.6642  0.7256 -0.3399
11875TIP3    H157116   1.027   0.540  13.367  1.4508  0.3661 -1.0862
11875TIP3    H257117   0.970   0.443  13.266 -1.0796  0.8000 -0.1344
11876TIP3   OH257118   1.075   4.387  14.630  0.0287  0.2387 -0.6292
11876TIP3    H157119   1.107   4.361  14.544  2.7165  2.3067 -0.3946
11876TIP3    H257120   0.993   4.434  14.613 -0.2201 -0.6155 -1.8858
11877TIP3   OH257121   0.822   0.148   5.060  0.4545  0.3866  0.0296
11877TIP3    H157122   0.879   0.188   5.126 -1.0931  3.3306 -0.2695
11877TIP3    H257123   0.867   0.164   4.977  0.2159  0.7802 -0.0232
11878TIP3   OH257124   3.662   5.607   4.653  0.0761  0.5293 -0.4035
11878TIP3    H157125   3.643   5.594   4.560 -0.5964 -1.1021 -0.0733
11878TIP3    H257126   3.667   5.518   4.689  2.4059  1.0325  0.7418
11879TIP3   OH257127   4.207   5.087  12.606 -0.2482  0.1587 -0.4109
11879TIP3    H157128   4.259   5.141  12.667  1.6864 -2.1685  0.1494
11879TIP3    H257129   4.116   5.107  12.628  0.3642  2.5144  0.3232
11880TIP3   OH257130   6.648   3.926  16.570  0.0897 -0.0925  0.3493
11880TIP3    H157131   6.559   3.930  16.606 -0.4046 -4.5925  0.1947
11880TIP3    H257132   6.704   3.909  16.645  1.0998  3.3540  0.5431
11881TIP3   OH257133   5.499   4.792   2.226 -0.3451 -0.1161  0.9014
11881TIP3    H157134   5.432   4.859   2.224 -1.6450 -1.3784 -0.8296
11881TIP3    H257135   5.540   4.796   2.140  0.2594 -0.8677  1.1375
11882TIP3   OH257136   4.260   4.792   4.012 -0.6177  0.3058  0.5319
11882TIP3    H157137   4.245   4.704   4.047 -1.2775 -0.0965 -0.6952
11882TIP3    H257138   4.193   4.802   3.944  0.1270  1.3532 -0.0734
11883TIP3   OH257139   5.851   0.701  11.634  0.9324  0.5187  0.2929
11883TIP3    H157140   5.874   0.630  11.575  1.2939  0.4735  0.4879
11883TIP3    H257141   5.837   0.659  11.719  1.8234  0.7587  0.5684
11884TIP3   OH257142   3.652   0.265  15.704  0.1996  0.5269 -0.3316
11884TIP3    H157143   3.639   0.242  15.796 -0.1074 -0.7252 -0.6687
11884TIP3    H257144   3.731   0.320  15.703 -0.5422  1.6621  0.8195
11885TIP3   OH257145   5.756   4.821  12.121 -0.0071 -0.0872 -0.0308
11885TIP3    H157146   5.801   4.786  12.198 -0.2659 -0.1582  0.0877
11885TIP3    H257147   5.725   4.744  12.073 -0.7480 -0.0258  0.3315
11886TIP3   OH257148   2.701   2.488   4.922 -0.1322 -0.4643  0.5248
11886TIP3    H157149   2.713   2.578   4.950 -0.9830  0.1133 -0.8511
11886TIP3    H257150   2.609   2.469   4.940 -0.0058 -0.9907  0.6360
11887TIP3   OH257151   1.608   6.394  13.217  0.1601  0.0627  0.3451
11887TIP3    H157152   1.667   6.396  13.293 -0.4653  3.2930  0.8762
11887TIP3    H257153   1.652   6.446  13.150 -1.5254  1.6251  0.3795
11888TIP3   OH257154   2.127   2.738  13.591 -0.1729 -0.5053  0.0377
11888TIP3    H157155   2.062   2.699  13.649 -0.5580 -1.5739 -1.0636
11888TIP3    H257156   2.085   2.739  13.505  0.6665  0.3262 -0.3893
11889TIP3   OH257157   3.215   3.403   2.086  0.5258  0.2409  0.4512
11889TIP3    H157158   3.148   3.470   2.093 -0.3970 -0.7426  1.2133
11889TIP3    H257159   3.274   3.435   2.017 -1.6420  0.3315 -1.4511
11890TIP3   OH257160   3.992   6.442  13.531  0.0458 -0.0685 -0.2794
11890TIP3    H157161   4.013   6.518  13.586 -0.4696  1.3372 -1.9314
11890TIP3    H257162   3.962   6.480  13.449 -2.3551 -2.0317 -0.4208
11891TIP3   OH257163   0.749   2.312   3.741 -0.4534 -0.5063  0.0291
11891TIP3    H157164   0.740   2.288   3.834  1.7350  2.2632  1.1067
11891TIP3    H257165   0.772   2.405   3.743  0.5124 -0.5668 -3.2773
11892TIP3   OH257166   5.024   4.485  11.966 -0.4193 -0.1383 -0.0258
11892TIP3    H157167   4.964   4.542  11.917 -1.8556  0.0630  1.8310
11892TIP3    H257168   4.970   4.410  11.991  0.2395 -0.2191  1.2344
11893TIP3   OH257169   2.845   6.035   0.007 -0.5299  0.7142  0.3100
11893TIP3    H157170   2.851   6.097   0.080  2.5447  1.4443 -0.4284
11893TIP3    H257171   2.783   6.075  -0.054 -1.6861  1.0166  1.6372
11894TIP3   OH257172   1.604   6.227  16.801 -0.1025 -0.0287  0.3006
11894TIP3    H157173   1.685   6.278  16.794 -0.8015  0.9820 -0.8593
11894TIP3    H257174   1.544   6.283  16.849 -0.0941 -0.8218  1.2513
11895TIP3   OH257175   4.665   4.788   2.093 -0.0614 -0.2460 -0.0359
11895TIP3    H157176   4.612   4.746   2.025 -0.0690  0.7283 -0.6597
11895TIP3    H257177   4.673   4.879   2.063 -0.5608  0.3531  1.5757
11896TIP3   OH257178   2.716   3.705   0.034 -0.4864  0.7218 -0.2516
11896TIP3    H157179   2.796   3.661   0.061 -0.6384 -0.8237 -2.0940
11896TIP3    H257180   2.651   3.679   0.100  0.2530  1.1036  0.6402
11897TIP3   OH257181   5.401   6.778   5.989  0.0720 -0.3336 -0.7932
11897TIP3    H157182   5.468   6.720   6.025  0.2838 -1.1301 -2.4101
11897TIP3    H257183   5.371   6.829   6.065  0.9526 -1.4785  0.3733
11898TIP3   OH257184   0.682   5.268  14.085 -0.3139 -0.2096 -0.3996
11898TIP3    H157185   0.707   5.263  14.178 -2.9672 -1.6846  0.3460
11898TIP3    H257186   0.702   5.181  14.050 -3.2839 -1.1689  0.0237
11899TIP3   OH257187   4.870   5.794   3.273 -0.2923 -0.2037 -0.0705
11899TIP3    H157188   4.811   5.801   3.198  0.5795  2.5773 -0.5938
11899TIP3    H257189   4.816   5.820   3.348 -0.7362 -1.5179  0.1111
11900TIP3   OH257190   4.916   0.263   6.198 -0.0732  0.5498 -0.0218
11900TIP3    H157191   4.852   0.196   6.172 -0.3599  0.7710  0.1034
11900TIP3    H257192   4.965   0.281   6.118  0.4912 -0.3259  0.1131
11901TIP3   OH257193   1.984   2.748   6.680  0.2768  0.5954 -0.5547
11901TIP3    H157194   2.028   2.669   6.712 -0.5865  0.0849 -0.5921
11901TIP3    H257195   1.917   2.766   6.746  1.2645  2.0320  0.1015
11902TIP3   OH257196   6.286   3.455  14.745  0.5864 -0.2670 -0.2476
11902TIP3    H157197   6.326   3.496  14.822  1.8964  0.5739 -1.3117
11902TIP3    H257198   6.317   3.365  14.746  0.8431 -0.1759  0.0473
11903TIP3   OH257199   1.418   5.728  10.879  0.4263  1.0499 -0.1825
11903TIP3    H157200   1.488   5.663  10.880  1.7627  2.3614 -2.1188
11903TIP3    H257201   1.347   5.686  10.830  0.2151  0.1167  0.8669
11904TIP3   OH257202   2.682   6.503  15.259 -0.1241  0.0807 -0.0050
11904TIP3    H157203   2.740   6.549  15.198  0.3398  0.0493  0.4112
11904TIP3    H257204   2.712   6.529  15.346  0.7270 -1.6672  0.2671
11905TIP3   OH257205   3.690   0.847  14.387 -0.3031  0.1032 -0.0576
11905TIP3    H157206   3.678   0.811  14.299  0.4776 -1.9119  0.5917
11905TIP3    H257207   3.734   0.931  14.373 -1.1125  0.2994 -1.6258
11906TIP3   OH257208   4.163   4.030   2.353 -0.4769 -0.4512 -0.2102
11906TIP3    H157209   4.170   4.015   2.259  0.8560 -1.1719 -0.0285
11906TIP3    H257210   4.253   4.025   2.384 -0.6424  1.9979  0.8097
11907TIP3   OH257211   5.825   3.840  16.359  0.7909 -0.4673  0.4399
11907TIP3    H157212   5.803   3.886  16.278 -1.2012  0.7187  1.5532
11907TIP3    H257213   5.822   3.747  16.336  1.0847 -0.1461 -1.0105
11908TIP3   OH257214   4.180   1.094  12.009  0.4181 -0.2098 -0.3521
11908TIP3    H157215   4.269   1.102  11.975  1.0885  0.7102  1.4567
11908TIP3    H257216   4.191   1.057  12.097 -0.8762  0.8220  0.2878
11909TIP3   OH257217   6.617   3.185  12.090 -0.3366  0.3315 -0.4017
11909TIP3    H157218   6.673   3.262  12.101  1.4234 -0.8804 -0.3969
11909TIP3    H257219   6.671   3.113  12.123 -1.4031 -1.0857 -1.6836
11910TIP3   OH257220   4.347   5.365   2.481  0.1145  0.4224 -0.2687
11910TIP3    H157221   4.316   5.455   2.491  0.2136  0.3435  0.8854
11910TIP3    H257222   4.286   5.326   2.418 -0.5611  1.0106 -0.0002
11911TIP3   OH257223   3.901   5.417  13.124 -0.2190  0.3997  0.3548
11911TIP3    H157224   3.960   5.412  13.049  0.3778 -0.7541  0.8643
11911TIP3    H257225   3.930   5.493  13.174  0.3313  0.3053  0.1776
11912TIP3   OH257226   4.294   2.835  15.188 -0.3414  0.3863 -0.0934
11912TIP3    H157227   4.277   2.926  15.165 -0.4024  0.5516  0.5795
11912TIP3    H257228   4.227   2.785  15.140 -0.4105  0.7069 -0.3351
11913TIP3   OH257229   4.342   2.584   2.416  0.3545  0.0791 -0.0153
11913TIP3    H157230   4.432   2.556   2.400  0.0714 -0.6838 -0.3758
11913TIP3    H257231   4.334   2.668   2.371  1.0126  0.3639  0.4009
11914TIP3   OH257232   1.438   3.536  12.191 -0.1811 -0.0174 -0.3677
11914TIP3    H157233   1.393   3.618  12.214  0.2534  0.0317  0.3438
11914TIP3    H257234   1.432   3.531  12.096  0.4478  1.2303 -0.4913
11915TIP3   OH257235   5.935   3.435   5.635 -0.3064 -0.3693  0.3270
11915TIP3    H157236   6.023   3.413   5.606 -0.6135 -1.2603  0.0315
11915TIP3    H257237   5.922   3.385   5.716 -0.5020 -0.1643  0.4253
11916TIP3   OH257238   2.649   0.278  12.708 -0.8030  0.1766  0.1422
11916TIP3    H157239   2.683   0.346  12.765 -1.1410  0.3174  0.1821
11916TIP3    H257240   2.586   0.230  12.763  0.3902 -1.0074  0.5236
11917TIP3   OH257241   2.916   1.420  10.520  0.3391  0.2884  0.3122
11917TIP3    H157242   3.006   1.394  10.537  0.6852  1.2621 -0.0115
11917TIP3    H257243   2.910   1.510  10.553 -0.2750  0.5337 -0.4542
11918TIP3   OH257244   2.166   0.120  14.693  0.3644  0.5568 -0.3918
11918TIP3    H157245   2.166   0.101  14.599  0.5508  2.8503 -0.9082
11918TIP3    H257246   2.073   0.132  14.714  0.3259  0.0851 -0.2838
11919TIP3   OH257247   5.831   1.567  13.673 -0.1854 -0.0822  0.5504
11919TIP3    H157248   5.765   1.499  13.689 -0.1088 -0.3307 -0.1418
11919TIP3    H257249   5.915   1.521  13.680 -0.0799  0.2437  1.4752
11920TIP3   OH257250   4.655   5.886   3.081 -0.1351 -0.1969 -0.2450
11920TIP3    H157251   4.670   5.940   3.003 -0.7853  3.2934  1.8427
11920TIP3    H257252   4.566   5.853   3.070 -0.2949  0.4101 -0.8577
11921TIP3   OH257253   1.815   5.137   1.828 -0.3800  0.1002  0.0516
11921TIP3    H157254   1.811   5.142   1.923 -0.7235 -0.0542  0.0454
11921TIP3    H257255   1.763   5.060   1.805  0.8037 -0.6634 -0.1757
11922TIP3   OH257256   2.474   1.783   4.702 -0.1393  0.2433  0.1448
11922TIP3    H157257   2.421   1.858   4.674 -1.2676 -0.0045  1.5268
11922TIP3    H257258   2.561   1.820   4.718 -0.2022  0.9026 -0.9409
11923TIP3   OH257259   2.340   0.804  13.691 -0.5990 -0.8491  0.6748
11923TIP3    H157260   2.361   0.857  13.768  0.0719  1.1269 -0.7623
11923TIP3    H257261   2.412   0.740  13.686  0.4340  0.2657  0.6501
11924TIP3   OH257262   4.284   2.803  15.796 -0.2310  0.1117  0.4949
11924TIP3    H157263   4.214   2.738  15.792  0.1888 -0.2771 -0.9030
11924TIP3    H257264   4.310   2.803  15.888 -0.7229 -1.1770  0.6635
11925TIP3   OH257265   4.906   0.931  12.044  0.0493 -0.4322 -0.0627
11925TIP3    H157266   4.885   0.839  12.061  1.2246 -0.9097 -1.0048
11925TIP3    H257267   4.965   0.928  11.968  2.4509  0.8578  1.6205
11926TIP3   OH257268   0.212   3.117   3.836 -0.8658  0.0336 -0.1718
11926TIP3    H157269   0.306   3.100   3.847 -1.0229 -0.9671 -0.2804
11926TIP3    H257270   0.171   3.082   3.915 -1.1700  0.3506 -0.1834
11927TIP3   OH257271   4.752   2.755  11.699  0.6370 -0.5948 -0.6953
11927TIP3    H157272   4.793   2.675  11.730 -1.2304 -0.6642  1.9137
11927TIP3    H257273   4.695   2.727  11.627  0.4949 -1.4974 -0.2408
11928TIP3   OH257274   5.682   2.311  16.404  0.3219  0.0686  0.0959
11928TIP3    H157275   5.751   2.316  16.470 -1.5894 -0.0403  2.2187
11928TIP3    H257276   5.614   2.371  16.436 -1.0478 -0.6577 -1.3252
11929TIP3   OH257277   1.004   4.580   5.337  0.2991  0.3085  0.2313
11929TIP3    H157278   1.062   4.618   5.271  0.0323 -0.2772 -0.3465
11929TIP3    H257279   0.923   4.561   5.290  0.7302 -1.8212  0.2418
11930TIP3   OH257280   3.004   2.759   4.527 -1.1456  0.2965 -0.0642
11930TIP3    H157281   2.987   2.757   4.621 -0.0381 -2.1457  0.1700
11930TIP3    H257282   2.918   2.762   4.487 -1.6636  0.4284  1.0082
11931TIP3   OH257283   0.386   6.556   4.374 -0.2999  0.6544 -0.0931
11931TIP3    H157284   0.381   6.518   4.462 -0.2831  0.7085 -0.0682
11931TIP3    H257285   0.435   6.491   4.323  1.2540  1.3945  0.3755
11932TIP3   OH257286   0.961   5.617  13.096 -0.7056 -0.6383 -0.4880
11932TIP3    H157287   0.889   5.636  13.035 -0.8056 -0.5739 -0.3508
11932TIP3    H257288   1.025   5.686  13.079 -0.2693 -1.2074 -1.2452
11933TIP3   OH257289   5.346   6.497  11.787 -0.7058 -0.6054  0.0740
11933TIP3    H157290   5.292   6.484  11.865  0.3350  3.0251  1.5755
11933TIP3    H257291   5.435   6.503  11.819 -0.1642  0.3023 -1.4805
11934TIP3   OH257292   1.711   4.734   2.131 -0.0745  0.0276 -0.0394
11934TIP3    H157293   1.621   4.745   2.160  0.7117  0.4651  2.4504
11934TIP3    H257294   1.726   4.640   2.134  0.3978  0.1115  2.5971
11935TIP3   OH257295   4.183   5.709   4.416  0.6903  0.5291  0.4661
11935TIP3    H157296   4.159   5.672   4.501  1.9209 -1.4629  0.0169
11935TIP3    H257297   4.278   5.699   4.412  1.1547  3.9513  0.3025
11936TIP3   OH257298   2.233   4.798  16.796  0.3683  0.1136  0.0003
11936TIP3    H157299   2.151   4.847  16.806 -1.0681 -2.3771  1.5756
11936TIP3    H257300   2.297   4.864  16.771 -2.1748  2.1282 -1.8447
11937TIP3   OH257301   6.591   0.237   2.349 -0.0881 -0.4578  0.3332
11937TIP3    H157302   6.682   0.207   2.347 -0.6655 -2.4460  1.3531
11937TIP3    H257303   6.559   0.211   2.436 -1.6793  0.0357 -0.0744
11938TIP3   OH257304   6.612   1.490   1.326 -0.1707 -0.2641 -0.2924
11938TIP3    H157305   6.631   1.403   1.291  1.2617 -0.3436  0.5760
11938TIP3    H257306   6.518   1.501   1.315 -0.4737 -2.1562  0.0851
11939TIP3   OH257307   2.900   2.216  14.214  0.8473  0.1406  0.5233
11939TIP3    H157308   2.911   2.203  14.120  0.2169  0.3136  0.4166
11939TIP3    H257309   2.845   2.294  14.221 -0.6742 -0.9126  0.9610
11940TIP3   OH257310   3.345   2.868   2.805 -0.2642  0.0342  0.2189
11940TIP3    H157311   3.308   2.785   2.776 -0.0846  0.5240 -1.5019
11940TIP3    H257312   3.430   2.873   2.761  1.4744 -0.5591  3.2270
11941TIP3   OH257313   3.651   6.501   4.860  1.1807 -0.2190 -0.3774
11941TIP3    H157314   3.673   6.464   4.945  0.8010 -0.7194 -0.4956
11941TIP3    H257315   3.647   6.595   4.875  1.6922 -0.2561  0.0260
11942TIP3   OH257316   5.110   1.675   4.396 -0.5379  0.4455 -0.1551
11942TIP3    H157317   5.116   1.660   4.302 -1.9484 -1.1903 -0.0129
11942TIP3    H257318   5.166   1.608   4.435  1.1435  1.9522  0.1919
11943TIP3   OH257319   5.652   5.055  16.983 -0.6243  0.1886  0.0317
11943TIP3    H157320   5.640   5.107  16.903 -1.2473  0.8140  0.5199
11943TIP3    H257321   5.567   5.013  16.997 -0.8089  0.8235  0.8777
11944TIP3   OH257322   2.663   5.535   3.490  1.0103 -0.3471  0.4105
11944TIP3    H157323   2.668   5.452   3.443 -0.0778 -0.8049  1.0658
11944TIP3    H257324   2.754   5.554   3.513  1.6676  0.2087 -2.3214
11945TIP3   OH257325   5.558   0.918   2.354  0.2043  0.2053 -0.1269
11945TIP3    H157326   5.516   0.996   2.317 -0.4147 -0.0044  0.1168
11945TIP3    H257327   5.644   0.915   2.312  0.0235  0.7134 -0.5508
11946TIP3   OH257328   3.408   6.529   3.546 -0.6177 -0.5970  0.7449
11946TIP3    H157329   3.323   6.498   3.578 -0.3168 -2.4707 -0.1269
11946TIP3    H257330   3.424   6.477   3.467 -0.0695  1.9183 -0.9354
11947TIP3   OH257331   6.692   5.073  12.701  0.3495 -0.0710  0.3130
11947TIP3    H157332   6.622   5.039  12.646  1.2216 -1.2330 -0.1068
11947TIP3    H257333   6.740   4.996  12.730  0.3173  0.5590  2.1850
11948TIP3   OH257334   5.390   3.809   2.239 -0.3560 -0.1996 -0.3618
11948TIP3    H157335   5.341   3.738   2.197  1.9000 -1.5734 -0.8306
11948TIP3    H257336   5.478   3.773   2.252  0.4287  1.9904  0.8528
11949TIP3   OH257337   0.862   3.630   4.992 -0.0641 -0.3437  0.3022
11949TIP3    H157338   0.802   3.563   4.960  0.2159  0.1417 -1.3396
11949TIP3    H257339   0.894   3.674   4.913  0.4009  1.1742  1.2822
11950TIP3   OH257340   3.119   4.201  11.919 -0.0753 -0.2487  0.1674
11950TIP3    H157341   3.067   4.227  11.994  1.9702 -0.8928  1.9073
11950TIP3    H257342   3.168   4.280  11.894 -1.9668  0.4480 -1.6705
11951TIP3   OH257343   2.019   1.418  10.997 -0.1584 -0.6315 -0.1182
11951TIP3    H157344   2.076   1.419  11.074  1.5998 -1.5741 -1.3472
11951TIP3    H257345   1.952   1.352  11.017  0.1653 -0.7360  0.6578
11952TIP3   OH257346   1.045   2.129  15.042 -0.1429  0.0492 -0.2110
11952TIP3    H157347   1.128   2.099  15.007  0.0773  1.2304 -0.7267
11952TIP3    H257348   1.052   2.113  15.137  0.0087 -1.3607 -0.4393
11953TIP3   OH257349   5.165   2.658   1.250  0.2151 -0.7430 -0.4460
11953TIP3    H157350   5.194   2.738   1.295  1.5951 -1.5469  0.1645
11953TIP3    H257351   5.091   2.686   1.197  0.2374  0.8049  0.2774
11954TIP3   OH257352   4.404   1.442   3.339  0.0853 -0.2303  0.2013
11954TIP3    H157353   4.450   1.361   3.357 -0.1731 -0.4686 -0.2183
11954TIP3    H257354   4.471   1.510   3.348  0.3202 -0.4907  0.4591
11955TIP3   OH257355   1.817   6.595  14.777 -0.3523 -0.3793  0.1401
11955TIP3    H157356   1.769   6.677  14.777 -0.2057 -0.2813  0.8643
11955TIP3    H257357   1.868   6.597  14.696 -1.9593 -0.7411 -0.9202
11956TIP3   OH257358   3.488   0.076   0.041 -0.3640 -0.0225 -0.0336
11956TIP3    H157359   3.567   0.022   0.031 -0.7563 -0.7065  0.4544
11956TIP3    H257360   3.441   0.036   0.114 -2.2988 -1.0527 -1.7241
11957TIP3   OH257361   0.816   5.047  14.010  0.8248  0.5007 -0.1293
11957TIP3    H157362   0.748   4.984  13.987  0.2977  0.2894  1.8661
11957TIP3    H257363   0.890   4.993  14.038  1.2711  0.7520 -0.8034
11958TIP3   OH257364   1.897   4.283   2.194 -0.0246  0.5450 -0.1582
11958TIP3    H157365   1.969   4.299   2.256 -0.4094 -0.6576  0.6396
11958TIP3    H257366   1.932   4.218   2.133 -0.0334  0.8670 -0.5096
11959TIP3   OH257367   6.683   4.841   2.588 -0.2241  0.0119 -0.5158
11959TIP3    H157368   6.733   4.760   2.601 -0.4869  0.1976  2.3139
11959TIP3    H257369   6.650   4.863   2.675  0.7337  3.7446 -0.9118
11960TIP3   OH257370   6.768   1.397  13.875  0.2947 -0.0082  0.6920
11960TIP3    H157371   6.786   1.414  13.967  0.9688  0.8071  0.4228
11960TIP3    H257372   6.835   1.334  13.848  0.6299  0.4115  0.5443
11961TIP3   OH257373   1.067   4.067  15.122  0.0162  0.3471  0.2986
11961TIP3    H157374   1.002   4.060  15.193 -0.8706 -0.1717 -0.5350
11961TIP3    H257375   1.054   3.987  15.071 -0.7746  1.6218 -1.6050
11962TIP3   OH257376   3.396   1.558  16.487 -0.5516  0.0528 -0.3844
11962TIP3    H157377   3.413   1.588  16.577 -0.7169 -0.7862 -0.0663
11962TIP3    H257378   3.480   1.570  16.442  0.5881 -2.7111  0.7901
11963TIP3   OH257379   2.363   0.317  12.869 -0.0579 -0.2018 -0.1041
11963TIP3    H157380   2.362   0.237  12.921 -0.4165  0.0286  0.2560
11963TIP3    H257381   2.316   0.381  12.924  1.8777  0.7888  0.4928
11964TIP3   OH257382   3.160   5.031   5.048 -0.0250 -0.4166 -0.2579
11964TIP3    H157383   3.215   4.966   5.091  1.3631  0.5148 -0.5398
11964TIP3    H257384   3.102   4.980   4.992  1.1525 -1.4271 -0.6157
11965TIP3   OH257385   2.252   1.284  10.726 -0.4581 -0.3718 -0.0021
11965TIP3    H157386   2.260   1.332  10.808 -0.3477  1.4030 -1.0066
11965TIP3    H257387   2.171   1.317  10.686 -0.0706 -0.5813 -0.9951
11966TIP3   OH257388   0.969   3.967   3.238  0.6538 -0.2056  0.2494
11966TIP3    H157389   1.055   4.008   3.229  0.0283  0.9984 -0.5047
11966TIP3    H257390   0.917   4.005   3.168 -0.8076 -0.0954  1.3513
11967TIP3   OH257391   2.066   5.724   2.019 -0.0249  0.3224  0.2092
11967TIP3    H157392   2.154   5.711   1.984  0.8705  4.1499  0.5355
11967TIP3    H257393   2.080   5.748   2.110 -1.8130 -2.5884  1.3757
11968TIP3   OH257394   1.239   1.825  11.199  0.6568  0.1397 -0.0349
11968TIP3    H157395   1.314   1.773  11.229  0.1213 -1.2717 -1.0756
11968TIP3    H257396   1.164   1.767  11.210 -0.0298  0.8856 -0.7513
11969TIP3   OH257397   0.734   5.966  16.715  0.2507 -0.1582  0.0165
11969TIP3    H157398   0.663   5.960  16.652  1.0050 -1.4081 -0.7471
11969TIP3    H257399   0.712   5.900  16.782 -0.2731  0.7902  0.8035
11970TIP3   OH257400   3.449   3.041   3.695 -0.3125 -0.1527 -0.1339
11970TIP3    H157401   3.370   3.093   3.705  1.3329  2.5215 -0.2774
11970TIP3    H257402   3.456   3.024   3.601 -0.2223  0.4165 -0.2288
11971TIP3   OH257403   4.332   6.561  13.418  0.0993  0.4242 -0.0759
11971TIP3    H157404   4.359   6.473  13.391  1.0771  0.3018  1.1779
11971TIP3    H257405   4.255   6.579  13.366 -0.0076 -1.1072 -0.5141
11972TIP3   OH257406   0.699   1.547   5.381 -0.1135  0.3998 -0.4117
11972TIP3    H157407   0.637   1.558   5.309  0.1338  0.3853 -0.6287
11972TIP3    H257408   0.663   1.477   5.434 -0.3205  0.4409 -0.4988
11973TIP3   OH257409   3.464   4.004  11.560 -0.3639 -0.0552  0.0380
11973TIP3    H157410   3.371   3.995  11.582 -0.9898  1.0776 -1.8951
11973TIP3    H257411   3.509   3.949  11.624 -2.3946 -1.0562  0.7049
11974TIP3   OH257412   6.347   1.421  11.932 -0.0398 -0.5730  0.4160
11974TIP3    H157413   6.335   1.327  11.917  1.4468 -0.8840  0.9740
11974TIP3    H257414   6.265   1.460  11.905 -0.8682 -2.0928  0.6045
11975TIP3   OH257415   2.795   4.077  13.853 -0.2204 -0.0148  0.1121
11975TIP3    H157416   2.745   4.058  13.933 -0.6467  0.9113  0.0777
11975TIP3    H257417   2.883   4.097  13.883 -0.6944  1.6140  0.4876
11976TIP3   OH257418   0.371   3.790  14.287  0.5545 -0.0437  0.5368
11976TIP3    H157419   0.356   3.884  14.281  2.1760  0.2439  0.6785
11976TIP3    H257420   0.366   3.759  14.197 -1.9971 -0.1924  0.6675
11977TIP3   OH257421   1.425   1.722  14.786 -0.4674 -0.3638  0.3796
11977TIP3    H157422   1.371   1.691  14.713  0.7139 -0.1396 -0.6309
11977TIP3    H257423   1.480   1.790  14.747 -1.5201  1.5494  2.0586
11978TIP3   OH257424   5.433   4.127  15.863  0.3394  0.5809 -0.0968
11978TIP3    H157425   5.348   4.107  15.825  0.1640 -0.8710  0.9373
11978TIP3    H257426   5.456   4.047  15.912  3.5001 -0.1617 -2.4493
11979TIP3   OH257427   3.605   4.799   1.031 -0.1984 -0.4265  0.2992
11979TIP3    H157428   3.648   4.718   1.058 -0.5765 -0.4756  0.7554
11979TIP3    H257429   3.610   4.857   1.107 -0.0130 -0.0505  0.0088
11980TIP3   OH257430   0.113   4.041   2.655 -0.1927  0.2279  0.3921
11980TIP3    H157431   0.117   3.966   2.595  1.3246  1.7354 -1.5384
11980TIP3    H257432   0.202   4.077   2.654 -0.6202  1.4389  2.1226
11981TIP3   OH257433   1.284   6.537   0.245 -0.4962 -0.0110  0.7595
11981TIP3    H157434   1.324   6.624   0.251  0.9739 -0.5072 -1.1817
11981TIP3    H257435   1.257   6.518   0.335  0.7864  1.6831  1.5715
11982TIP3   OH257436   4.774   0.429   4.144 -0.4563 -0.0032  0.1355
11982TIP3    H157437   4.761   0.365   4.213  0.8054  0.5494  0.9264
11982TIP3    H257438   4.806   0.507   4.189 -2.5402  1.4460 -0.7141
11983TIP3   OH257439   1.100   5.562  15.215 -0.0174 -0.7286  0.5512
11983TIP3    H157440   1.132   5.473  15.225  0.0755 -0.9136 -1.2069
11983TIP3    H257441   1.011   5.552  15.182  0.1311 -0.1735 -0.0297
11984TIP3   OH257442   1.123   2.220  14.358 -0.1472  0.0097 -0.4498
11984TIP3    H157443   1.111   2.149  14.295 -0.1895  0.1473 -0.5985
11984TIP3    H257444   1.037   2.262  14.363 -0.9477 -1.7318  1.8224
11985TIP3   OH257445   6.818   2.191   0.644  0.0949  0.1320 -0.5440
11985TIP3    H157446   6.875   2.173   0.718 -0.2443 -0.1090 -0.3407
11985TIP3    H257447   6.845   2.278   0.613 -0.7243  0.8804  0.7555
11986TIP3   OH257448   0.925   2.233   1.594 -0.4088 -0.3984 -0.3663
11986TIP3    H157449   0.951   2.208   1.506  0.9909 -0.4867  0.0507
11986TIP3    H257450   0.971   2.315   1.611 -2.5299  0.9194 -0.5652
11987TIP3   OH257451   5.888   6.296  11.571 -0.2123 -0.2141  0.3427
11987TIP3    H157452   5.942   6.323  11.646 -1.1818 -0.5689  1.1909
11987TIP3    H257453   5.867   6.204  11.588 -0.8757 -0.1522 -0.1064
11988TIP3   OH257454   4.782   1.431   4.459 -0.2224  0.0351  0.2275
11988TIP3    H157455   4.716   1.488   4.499  0.4085 -0.8633  2.6733
11988TIP3    H257456   4.858   1.489   4.445 -0.8544  0.6342 -0.8601
11989TIP3   OH257457   3.264   0.894  13.549  0.1530 -0.2276 -0.1018
11989TIP3    H157458   3.209   0.891  13.470 -2.3842  1.3483  1.4678
11989TIP3    H257459   3.251   0.809  13.590  1.3794 -1.0063 -1.2110
11990TIP3   OH257460   2.985   4.740  13.896 -0.0967 -0.2036  0.3191
11990TIP3    H157461   3.022   4.828  13.906 -0.6405  0.4005 -2.2933
11990TIP3    H257462   3.038   4.685  13.954  0.6652  1.7117  1.5409
11991TIP3   OH257463   1.561   4.744  11.962 -0.1885 -0.5743  0.1886
11991TIP3    H157464   1.531   4.686  12.032 -0.4992 -0.4265  0.1831
11991TIP3    H257465   1.497   4.816  11.962 -1.3428 -1.5290 -1.5026
11992TIP3   OH257466   6.465   1.057   4.492  0.1391 -0.3188  0.1336
11992TIP3    H157467   6.371   1.063   4.477  0.2657 -0.0367 -0.6365
11992TIP3    H257468   6.501   1.028   4.408  0.6852 -0.9791  0.5830
11993TIP3   OH257469   1.239   3.635  12.438 -0.2858 -0.0119  0.6060
11993TIP3    H157470   1.303   3.605  12.503  0.1541 -0.1270  0.1269
11993TIP3    H257471   1.270   3.722  12.413 -1.2937  0.6754  1.6436
11994TIP3   OH257472   4.729   6.433   2.722  0.2336  0.0560  0.4158
11994TIP3    H157473   4.681   6.352   2.738  2.3241 -1.6382 -1.2738
11994TIP3    H257474   4.707   6.456   2.632  1.8549 -0.2969 -0.1053
11995TIP3   OH257475   4.647   0.401  13.907 -0.2154 -0.2895  0.0421
11995TIP3    H157476   4.646   0.324  13.851  4.7098 -1.1592  0.7695
11995TIP3    H257477   4.655   0.475  13.847  2.7161 -1.0461 -0.6147
11996TIP3   OH257478   4.316   5.652   2.845 -0.2721 -0.0727 -0.0346
11996TIP3    H157479   4.391   5.657   2.786  1.4213 -0.4280  1.9572
11996TIP3    H257480   4.277   5.566   2.828  1.3954 -1.0122  0.6559
11997TIP3   OH257481   0.761   2.842  12.157 -0.5517 -0.1270  0.0778
11997TIP3    H157482   0.838   2.899  12.161 -1.3849  1.0552 -0.0751
11997TIP3    H257483   0.752   2.821  12.063 -0.5994  0.0011  0.0534
11998TIP3   OH257484   4.180   1.026  12.638  0.5194 -0.5775  0.3421
11998TIP3    H157485   4.216   1.079  12.709  0.3506  2.0651 -1.4276
11998TIP3    H257486   4.233   0.946  12.639  3.1362  1.0372  1.0002
11999TIP3   OH257487   4.876   1.858   6.306  0.1467 -0.4479 -0.2078
11999TIP3    H157488   4.820   1.806   6.248  1.3005 -0.6309 -1.2192
11999TIP3    H257489   4.816   1.900   6.367 -0.9625 -1.6757 -0.4109
12000TIP3   OH257490   1.290   4.526   1.510  0.7642  0.1799  0.2732
12000TIP3    H157491   1.207   4.569   1.534  0.5333 -0.8276  1.3566
12000TIP3    H257492   1.330   4.504   1.594  2.4074  1.1280 -0.2269
12001TIP3   OH257493   5.829   3.329  16.568  0.1146  0.4313  0.1855
12001TIP3    H157494   5.745   3.283  16.557  1.6662 -2.4928 -0.4217
12001TIP3    H257495   5.890   3.282  16.511  1.4965  4.7280 -2.3328
12002TIP3   OH257496   3.536   3.866  14.793  0.1678  0.3568  0.2120
12002TIP3    H157497   3.503   3.909  14.872  0.1923  0.0825  0.3741
12002TIP3    H257498   3.476   3.792  14.780 -0.2370  0.7853 -0.4101
12003TIP3   OH257499   5.999   0.069  12.226  0.0800 -0.3119 -0.1726
12003TIP3    H157500   6.026   0.039  12.313  0.7292  1.3097  0.2269
12003TIP3    H257501   5.958  -0.007  12.186  1.2094 -1.5586  0.9414
12004TIP3   OH257502   3.820   1.929  16.927 -0.0308 -0.4447 -0.3450
12004TIP3    H157503   3.852   2.013  16.895 -3.0350 -0.1621 -3.0179
12004TIP3    H257504   3.873   1.912  17.005  2.4781  2.6026 -1.1800
12005TIP3   OH257505   4.642   3.643   4.584 -0.5585 -0.2465  0.1088
12005TIP3    H157506   4.675   3.728   4.553  2.1519 -1.5642 -0.9545
12005TIP3    H257507   4.699   3.621   4.658 -0.3695 -1.6822 -0.4310
12006TIP3   OH257508   6.020   3.172  13.043 -0.0948 -0.2781  0.1461
12006TIP3    H157509   6.022   3.169  12.947 -1.9530  1.5751 -0.0282
12006TIP3    H257510   6.012   3.080  13.069 -0.9784 -0.7393 -1.5474
12007TIP3   OH257511   0.106   1.270   5.490 -0.2291  0.0324 -0.5007
12007TIP3    H157512   0.075   1.352   5.451 -2.0759 -0.0823  0.6205
12007TIP3    H257513   0.169   1.298   5.557 -0.8824  0.5693 -0.0920
12008TIP3   OH257514   3.038   4.342  12.143 -0.3741  0.1314  0.7717
12008TIP3    H157515   3.013   4.320  12.233 -5.9125  0.0965 -0.3951
12008TIP3    H257516   3.008   4.432  12.131  0.0401  0.0699 -1.1048
12009TIP3   OH257517   5.649   2.642   5.220 -0.1373 -0.5275 -0.1049
12009TIP3    H157518   5.669   2.554   5.252 -0.4346 -0.4428  0.3296
12009TIP3    H257519   5.573   2.670   5.272 -0.1127 -0.0561 -0.3125
12010TIP3   OH257520   2.857   5.457  12.691  0.0292 -0.4251  0.0134
12010TIP3    H157521   2.838   5.496  12.605  0.0207 -0.5508 -0.0418
12010TIP3    H257522   2.911   5.522  12.735  0.2658 -0.4786 -0.1940
12011TIP3   OH257523   2.634   0.615   3.219 -0.1244  0.0851 -0.1678
12011TIP3    H157524   2.572   0.561   3.168 -1.0961  0.1379  0.9222
12011TIP3    H257525   2.590   0.699   3.228  0.3889  0.3258  0.0998
12012TIP3   OH257526   5.858   1.842  16.463 -0.0332  0.0478 -0.1899
12012TIP3    H157527   5.866   1.831  16.558 -1.4343  1.1118  0.0770
12012TIP3    H257528   5.947   1.861  16.434  0.1719  1.3441  1.1486
12013TIP3   OH257529   6.218   0.398  16.786 -0.5173  0.5643  0.0395
12013TIP3    H157530   6.232   0.404  16.881  0.7315 -1.1187  0.0094
12013TIP3    H257531   6.191   0.486  16.760 -2.8413  0.6163  2.2376
12014TIP3   OH257532   4.738   1.307   2.452 -0.3126 -0.8457 -1.0944
12014TIP3    H157533   4.794   1.372   2.410 -0.2519 -1.2101 -1.5908
12014TIP3    H257534   4.796   1.233   2.469 -0.0410 -0.2511  0.7737
12015TIP3   OH257535   6.828   5.060   4.952  0.0578  0.1398 -0.2602
12015TIP3    H157536   6.815   4.977   4.998  2.0150 -0.6790 -1.0970
12015TIP3    H257537   6.809   5.041   4.861 -0.4365  0.8755 -0.3173
12016TIP3   OH257538   3.054   5.871  13.226 -0.0464 -0.5328 -0.0747
12016TIP3    H157539   3.033   5.938  13.161 -1.9878 -2.2142 -1.2814
12016TIP3    H257540   3.102   5.919  13.295 -2.2826  2.3168 -0.3008
12017TIP3   OH257541   3.883   3.829  16.538  0.0573 -0.1867  0.0439
12017TIP3    H157542   3.890   3.767  16.466 -0.9299 -0.7421  0.3971
12017TIP3    H257543   3.793   3.818  16.570  1.1893 -1.8573  3.0357
12018TIP3   OH257544   3.350   2.707   1.528  0.1414 -0.0473 -0.3278
12018TIP3    H157545   3.302   2.645   1.582 -0.0379  0.3770  0.0055
12018TIP3    H257546   3.283   2.768   1.496 -0.0642 -1.2646 -2.4472
12019TIP3   OH257547   0.357   1.064   1.593  1.0920  0.2731  0.7260
12019TIP3    H157548   0.318   1.100   1.514  1.3995  1.5384  1.1320
12019TIP3    H257549   0.431   1.121   1.612  2.3915 -1.3324  0.6973
12020TIP3   OH257550   5.160   5.959  12.755  0.2691  0.2644 -0.2091
12020TIP3    H157551   5.089   5.894  12.756  3.5413 -3.7397 -0.7266
12020TIP3    H257552   5.169   5.987  12.846 -1.5685  0.4875 -0.0561
12021TIP3   OH257553   3.614   6.330   5.586 -0.3818 -0.8750 -0.1829
12021TIP3    H157554   3.582   6.322   5.496 -0.6659  0.3494 -0.2144
12021TIP3    H257555   3.709   6.320   5.579 -0.1212  1.6078 -0.9984
12022TIP3   OH257556   6.026   4.978  11.690  0.7578  0.3605 -0.2469
12022TIP3    H157557   5.941   4.964  11.648  0.4428 -2.8080  1.1922
12022TIP3    H257558   6.007   5.030  11.767 -0.8139 -3.6432  2.3793
12023TIP3   OH257559   5.905   4.667   3.218  0.0992 -0.3602 -0.0885
12023TIP3    H157560   5.974   4.648   3.281  0.5436 -0.7448 -0.6752
12023TIP3    H257561   5.840   4.598   3.232  0.3497 -0.6344 -0.2622
12024TIP3   OH257562   2.814   6.610   0.779  0.4261  0.0532  0.0273
12024TIP3    H157563   2.880   6.617   0.848  0.4762  1.7429 -0.1664
12024TIP3    H257564   2.737   6.655   0.815  0.5153  1.1389 -1.0894
12025TIP3   OH257565   6.185   1.452   3.209 -0.1941 -0.0789 -0.2137
12025TIP3    H157566   6.244   1.513   3.165  0.8154 -0.7229  0.2186
12025TIP3    H257567   6.240   1.404   3.271 -0.8787 -1.6433 -0.7430
12026TIP3   OH257568   4.292   4.954   2.954 -0.1195  0.2900 -0.2408
12026TIP3    H157569   4.271   5.027   2.896  0.8938  1.2625  0.5620
12026TIP3    H257570   4.385   4.937   2.938 -0.3578 -0.8910 -0.4627
12027TIP3   OH257571   4.585   6.839   4.897  0.5038 -0.3842 -0.0731
12027TIP3    H157572   4.528   6.764   4.912  0.7410 -0.2934  1.4110
12027TIP3    H257573   4.529   6.902   4.850  0.1299 -1.2212 -0.7854
12028TIP3   OH257574   6.807   0.260  15.103 -0.0259  0.2732  0.0022
12028TIP3    H157575   6.884   0.239  15.156 -1.2314 -0.2422  1.6303
12028TIP3    H257576   6.788   0.179  15.056  0.8664  0.6412 -1.0416
12029TIP3   OH257577   5.658   1.865  11.580 -0.7866  0.4477  0.3652
12029TIP3    H157578   5.684   1.880  11.489  0.9870  1.1667  0.9570
12029TIP3    H257579   5.716   1.794  11.610 -2.3485 -0.8258  0.5416
12030TIP3   OH257580   2.598   6.783   1.315 -0.0414 -0.0429  0.3689
12030TIP3    H157581   2.550   6.827   1.244  1.4622  1.5410  0.3034
12030TIP3    H257582   2.541   6.791   1.391  0.0894  1.8298  0.2983
12031TIP3   OH257583   6.514   1.262  14.233 -0.2933 -0.0845  0.3738
12031TIP3    H157584   6.583   1.234  14.293 -0.0487 -2.5719 -0.9669
12031TIP3    H257585   6.554   1.259  14.146 -1.0234  2.1845 -0.1129
12032TIP3   OH257586   0.182   4.276  14.693  0.1921  0.0506 -0.1657
12032TIP3    H157587   0.122   4.331  14.643  1.0077  1.1942  0.0593
12032TIP3    H257588   0.246   4.245  14.629 -0.1555 -0.4824 -0.2573
12033TIP3   OH257589   1.952   0.790  14.137  0.1310 -0.1395  0.3731
12033TIP3    H157590   1.895   0.780  14.060  1.2401 -0.2227 -0.4654
12033TIP3    H257591   2.036   0.753  14.109  1.7694  3.2832  0.2574
12034TIP3   OH257592   3.007   6.346   5.584 -0.1701 -0.6275  0.2517
12034TIP3    H157593   2.927   6.294   5.582 -0.1230 -0.7956 -3.0742
12034TIP3    H257594   2.976   6.436   5.597 -0.7603 -0.8419  0.3606
12035TIP3   OH257595   6.527   1.330   4.333  0.1042 -0.3849  0.9678
12035TIP3    H157596   6.552   1.408   4.283  0.6505 -1.4021 -0.4133
12035TIP3    H257597   6.439   1.309   4.301  0.0746 -0.4982  1.1245
12036TIP3   OH257598   4.626   2.503  12.221 -0.0976 -0.8088  0.5395
12036TIP3    H157599   4.604   2.475  12.132 -0.5822  1.7877 -0.2267
12036TIP3    H257600   4.597   2.594  12.226  2.9267  0.2133  2.2637
12037TIP3   OH257601   5.634   6.683  16.060 -0.4029 -0.0799 -0.0344
12037TIP3    H157602   5.538   6.684  16.064 -0.4699 -1.2203 -0.7600
12037TIP3    H257603   5.654   6.684  15.967  0.2658 -0.5525  0.0978
12038TIP3   OH257604   2.435   6.482  17.009 -0.1113 -0.0341  0.2454
12038TIP3    H157605   2.472   6.440  16.932  0.2052 -0.7681  0.7806
12038TIP3    H257606   2.498   6.550  17.031 -0.0834  0.0227 -0.0056
12039TIP3   OH257607   6.411   1.779  13.892 -0.5581 -0.1215 -0.1456
12039TIP3    H157608   6.457   1.760  13.974 -2.5476  0.8911  1.2947
12039TIP3    H257609   6.479   1.808  13.832  0.7942  0.5277  1.6161
12040TIP3   OH257610   2.052   6.142   3.134 -0.1219  0.3267  0.3668
12040TIP3    H157611   2.094   6.170   3.052  1.4717  1.2564  1.4400
12040TIP3    H257612   1.966   6.185   3.133  0.1835  0.9525 -0.4633
12041TIP3   OH257613   2.896   0.693  11.578 -0.0788 -0.2640 -0.3617
12041TIP3    H157614   2.916   0.632  11.650 -0.1118  0.3203  0.1472
12041TIP3    H257615   2.932   0.777  11.607 -0.2282  0.0132 -0.9671
12042TIP3   OH257616   5.042   3.478  11.039  0.0485  0.6175  0.1806
12042TIP3    H157617   5.000   3.445  11.118 -2.0776  2.3025 -0.1374
12042TIP3    H257618   5.000   3.563  11.024  3.0807  2.0798 -0.6791
12043TIP3   OH257619   5.769   5.687   4.751 -0.3528 -0.0944 -0.0144
12043TIP3    H157620   5.864   5.672   4.746 -0.7118 -2.6241 -0.6272
12043TIP3    H257621   5.738   5.676   4.661 -1.1392  1.8134 -0.0196
12044TIP3   OH257622   6.389   5.303  12.192  0.2992 -0.3077 -0.0060
12044TIP3    H157623   6.439   5.362  12.248  0.4533  0.5480 -1.0226
12044TIP3    H257624   6.453   5.271  12.128  0.0750 -1.0949  0.1522
12045TIP3   OH257625   5.000   6.595   0.491  0.0364  0.6841 -0.0295
12045TIP3    H157626   5.021   6.637   0.575 -1.7344  1.0460  0.2767
12045TIP3    H257627   4.976   6.506   0.515 -1.1710  0.9905 -0.0359
12046TIP3   OH257628   1.354   6.018  15.251 -0.0767 -0.5804 -0.3115
12046TIP3    H157629   1.341   6.109  15.225 -1.2317 -0.7830 -0.5200
12046TIP3    H257630   1.266   5.980  15.250  0.0153 -1.0473  2.2658
12047TIP3   OH257631   3.959   3.076   5.690 -0.2199  0.6340  0.8665
12047TIP3    H157632   3.913   3.022   5.627  2.2024 -3.3614  2.0880
12047TIP3    H257633   3.892   3.103   5.753 -1.6393 -0.6672 -0.0249
12048TIP3   OH257634   4.314   3.227   1.667  0.5301 -0.1674 -0.2182
12048TIP3    H157635   4.400   3.263   1.647  0.2153  0.7411  0.0393
12048TIP3    H257636   4.264   3.240   1.586 -0.3318  2.2724  0.6329
12049TIP3   OH257637   2.048   5.593   5.208 -0.4330  0.2237 -0.7250
12049TIP3    H157638   2.042   5.688   5.222  0.8160  0.1805  0.4315
12049TIP3    H257639   1.992   5.555   5.276  1.4082  0.1224  0.8407
12050TIP3   OH257640   0.887   4.968  14.388  0.5942 -0.2978  0.1003
12050TIP3    H157641   0.830   4.895  14.411 -0.0572 -0.3326 -1.4624
12050TIP3    H257642   0.926   4.995  14.471  0.6750 -2.2490  0.7618
12051TIP3   OH257643   6.424   6.818   3.397 -0.0021  0.6979  0.2258
12051TIP3    H157644   6.456   6.815   3.487 -1.6283 -2.4901  0.8258
12051TIP3    H257645   6.344   6.870   3.401 -1.5457 -1.5751  1.2947
12052TIP3   OH257646   2.635   2.190  14.351  0.2619 -0.3366 -0.3367
12052TIP3    H157647   2.605   2.244  14.278  1.1007 -0.6200 -0.8984
12052TIP3    H257648   2.666   2.109  14.310 -0.8749 -1.2262  0.4777
12053TIP3   OH257649   2.052   0.004   2.479  0.3649  0.1496 -0.3103
12053TIP3    H157650   2.071  -0.089   2.469 -1.7765 -0.2507 -1.2055
12053TIP3    H257651   2.025   0.033   2.391  1.3120  1.7170 -0.1295
12054TIP3   OH257652   5.247   2.997   2.638  0.3192 -0.1506  0.0710
12054TIP3    H157653   5.257   2.991   2.543 -0.5817  1.8758 -0.2054
12054TIP3    H257654   5.156   2.971   2.653  0.0315  0.9176  0.2020
12055TIP3   OH257655   6.172   1.565   4.668 -0.4700 -0.7124 -0.4806
12055TIP3    H157656   6.080   1.548   4.688 -0.0209 -0.0997  2.6989
12055TIP3    H257657   6.188   1.653   4.702  1.2287 -0.6928 -1.2358
12056TIP3   OH257658   2.029   6.711  13.485  0.4308 -0.1144 -0.4929
12056TIP3    H157659   2.048   6.770  13.412  1.0105  0.1440 -0.1354
12056TIP3    H257660   2.103   6.651  13.487  1.2729  0.9076  0.9217
12057TIP3   OH257661   4.032   3.451  13.889  0.0907  0.3226  0.3377
12057TIP3    H157662   4.079   3.460  13.806  1.9853 -0.2048  1.3047
12057TIP3    H257663   3.981   3.532  13.897 -1.3605 -0.2586 -2.0337
12058TIP3   OH257664   3.742   1.826   3.481  0.2829 -0.2373 -0.4213
12058TIP3    H157665   3.799   1.764   3.527  0.0120  0.1632  0.4860
12058TIP3    H257666   3.795   1.905   3.470 -0.9125  1.3208  3.2374
12059TIP3   OH257667   0.158   6.503   1.667  0.3222 -0.6633 -0.2453
12059TIP3    H157668   0.229   6.440   1.676  1.4106  0.5705  0.1697
12059TIP3    H257669   0.202   6.586   1.648 -1.0272  0.0921 -0.2085
12060TIP3   OH257670   3.746   2.414  11.263 -0.0681  0.4834  0.0228
12060TIP3    H157671   3.766   2.507  11.263  0.4344  0.3784 -0.5291
12060TIP3    H257672   3.730   2.392  11.171  1.2932 -0.2765 -0.0583
12061TIP3   OH257673   6.707   0.096   5.272 -0.4785  0.6898 -0.0356
12061TIP3    H157674   6.801   0.101   5.253 -0.1861  0.9566  1.4044
12061TIP3    H257675   6.693   0.006   5.302 -1.3359 -0.4199 -3.2584
12062TIP3   OH257676   1.048   1.608  13.659 -0.1630 -0.8162  0.0317
12062TIP3    H157677   1.083   1.529  13.619 -0.2107 -1.2935  0.9024
12062TIP3    H257678   0.953   1.597  13.656 -0.1723 -1.6187  1.6650
12063TIP3   OH257679   0.050   4.600  12.188  0.1018 -0.8769 -0.1409
12063TIP3    H157680   0.050   4.505  12.184 -0.2139 -0.8561 -0.6660
12063TIP3    H257681  -0.020   4.628  12.129  1.5548 -0.2679 -1.6672
12064TIP3   OH257682   4.094   0.731   2.596 -0.1641 -0.0032 -0.0314
12064TIP3    H157683   4.084   0.665   2.528  0.9628  1.1725 -1.3911
12064TIP3    H257684   4.184   0.721   2.626 -0.4046  0.0324  0.7272
12065TIP3   OH257685   3.604   0.630   2.199  0.3516  0.8485  0.2346
12065TIP3    H157686   3.592   0.640   2.293  1.1831 -1.6195  0.6675
12065TIP3    H257687   3.527   0.671   2.160 -0.2320  1.4805  2.0064
12066TIP3   OH257688   5.777   1.534   3.347 -0.4707  0.8394 -0.1977
12066TIP3    H157689   5.808   1.481   3.274  0.6648 -0.9980  1.5047
12066TIP3    H257690   5.856   1.576   3.381 -1.0017  1.7631 -0.0840
12067TIP3   OH257691   5.269   4.631  14.895 -0.3260  0.1476 -0.2165
12067TIP3    H157692   5.302   4.718  14.870 -0.3312  0.0716 -0.4863
12067TIP3    H257693   5.174   4.642  14.899 -0.4199 -0.1325 -1.3745
12068TIP3   OH257694   0.124   5.434   4.135  0.3777 -0.4948 -1.2139
12068TIP3    H157695   0.153   5.415   4.046  1.4405  0.2479 -1.0388
12068TIP3    H257696   0.182   5.503   4.165 -1.3663  0.8216 -0.7213
12069TIP3   OH257697   4.415   0.389  14.366  0.1926  0.3680  0.6756
12069TIP3    H157698   4.345   0.448  14.395 -0.4394  0.5161 -1.0724
12069TIP3    H257699   4.444   0.346  14.447  0.6508  2.9897  2.0460
12070TIP3   OH257700   3.054   6.081  15.204  0.2704 -0.2145  0.6505
12070TIP3    H157701   3.086   5.993  15.186  0.2312 -0.0995 -0.0134
12070TIP3    H257702   3.127   6.139  15.182 -0.6141  0.1196 -1.7610
12071TIP3   OH257703   3.684   1.875  15.624 -0.1223 -0.6699  0.6069
12071TIP3    H157704   3.679   1.950  15.682 -1.5452 -0.4056  0.1649
12071TIP3    H257705   3.778   1.855  15.619  0.3850  1.5764  0.0954
12072TIP3   OH257706   6.363   3.425  12.452 -0.2422  0.2995 -0.1427
12072TIP3    H157707   6.395   3.384  12.372  0.2472  2.3605 -1.0616
12072TIP3    H257708   6.268   3.431  12.439 -0.3307 -0.5584  0.0378
12073TIP3   OH257709   4.482   2.380  16.796 -0.2148 -0.1892 -0.0900
12073TIP3    H157710   4.430   2.459  16.808 -0.1613 -0.4438  2.1232
12073TIP3    H257711   4.432   2.311  16.841  2.4641 -0.2358  3.1422
12074TIP3   OH257712   0.692   2.525  13.021  0.0443  0.5320  0.4120
12074TIP3    H157713   0.709   2.434  12.996 -0.3288 -0.4835  3.4302
12074TIP3    H257714   0.600   2.526  13.046 -0.0901  1.9036 -0.0526
12075TIP3   OH257715   6.560   1.698  16.861  0.4433 -0.5686  0.4868
12075TIP3    H157716   6.491   1.764  16.860  1.8837  1.0133 -1.0333
12075TIP3    H257717   6.543   1.643  16.785 -1.0405 -2.3668  2.0241
12076TIP3   OH257718   0.868   2.897   1.346 -0.2134  0.5848  0.0434
12076TIP3    H157719   0.820   2.894   1.263  0.9412 -1.2507 -0.6011
12076TIP3    H257720   0.931   2.969   1.334 -1.0997  1.3708 -0.0363
12077TIP3   OH257721   0.480   3.734   4.772  0.2798  0.3484  0.2552
12077TIP3    H157722   0.481   3.657   4.828  0.2070  0.0484 -0.1534
12077TIP3    H257723   0.396   3.730   4.726  1.5790 -1.1184 -2.1987
12078TIP3   OH257724   3.822   4.734  14.544  0.2175 -1.3041 -0.5612
12078TIP3    H157725   3.834   4.650  14.501 -1.5439 -2.3829  0.8734
12078TIP3    H257726   3.899   4.745  14.599  1.6305 -0.7473 -2.5503
12079TIP3   OH257727   1.409   0.522  13.625  0.0604 -0.2394  0.4425
12079TIP3    H157728   1.412   0.426  13.630  1.5683 -0.1757  1.6266
12079TIP3    H257729   1.490   0.547  13.581 -0.8444  0.4817 -0.8879
12080TIP3   OH257730   5.667   4.061  14.266 -0.6870 -0.5310 -0.0281
12080TIP3    H157731   5.586   4.106  14.291  0.0761  2.2739 -2.1105
12080TIP3    H257732   5.637   3.989  14.210 -1.8096  0.2764 -0.5220
12081TIP3   OH257733   4.504   1.048  14.446  0.4100  0.1883 -0.0491
12081TIP3    H157734   4.438   1.099  14.494  0.4025  0.3376 -0.2161
12081TIP3    H257735   4.584   1.056  14.499  0.5398  0.7878 -0.3225
12082TIP3   OH257736   2.923   2.069  14.558  0.5740 -0.4773 -0.1418
12082TIP3    H157737   2.842   2.063  14.508  0.6074 -0.6374 -0.1781
12082TIP3    H257738   2.963   1.982  14.550  0.3553 -0.6464  0.5357
12083TIP3   OH257739   2.441   2.770  12.760  0.3096  0.2821  0.1786
12083TIP3    H157740   2.490   2.829  12.817  2.8110 -2.2627  0.8988
12083TIP3    H257741   2.354   2.808  12.755  0.5906  1.8018  3.9479
12084TIP3   OH257742   5.294   2.331  10.487  0.2297  0.0340 -0.9366
12084TIP3    H157743   5.290   2.331  10.582 -1.1030 -1.4378 -0.9462
12084TIP3    H257744   5.346   2.253  10.465  0.1104  0.0861 -1.4190
12085TIP3   OH257745   2.830   0.388  16.036 -0.0535 -0.3591  0.7817
12085TIP3    H157746   2.806   0.443  15.961  0.4826 -1.4484 -0.2263
12085TIP3    H257747   2.903   0.335  16.004  0.0161 -1.0371  2.0047
12086TIP3   OH257748   1.022   1.056  16.177 -0.0264 -0.1364 -0.0199
12086TIP3    H157749   1.048   0.988  16.115  0.6642 -0.3947  0.5420
12086TIP3    H257750   0.985   1.008  16.251 -0.0556  0.1349  0.1412
12087TIP3   OH257751   2.584   4.891  10.614  0.2839  0.0539  0.3926
12087TIP3    H157752   2.610   4.954  10.547 -0.6932  1.1290  0.9945
12087TIP3    H257753   2.546   4.818  10.565  1.2490  0.0093 -0.3011
12088TIP3   OH257754   3.256   1.048   3.789  0.4357  0.2088 -0.3703
12088TIP3    H157755   3.317   1.022   3.858 -1.0342  0.6146  1.1587
12088TIP3    H257756   3.193   0.976   3.785 -1.2607  1.5300  0.9526
12089TIP3   OH257757   4.739   0.898   3.018 -0.0833  0.4088  0.0327
12089TIP3    H157758   4.689   0.819   2.996 -0.6606  0.3749  1.3229
12089TIP3    H257759   4.704   0.924   3.104  0.2215  1.9706 -0.2979
12090TIP3   OH257760   3.225   1.638   2.390  0.3282 -0.7077  0.1003
12090TIP3    H157761   3.282   1.627   2.314  1.2154  0.3960  0.5793
12090TIP3    H257762   3.139   1.609   2.359  0.9235 -1.4485 -0.9399
12091TIP3   OH257763   2.997   2.753   4.800  0.0605  0.7168 -0.4000
12091TIP3    H157764   3.004   2.785   4.890  2.6509  0.0600 -0.2994
12091TIP3    H257765   3.049   2.673   4.799 -0.4954  0.3302 -2.3364
12092TIP3   OH257766   4.317   3.172  11.741  0.9558 -0.0532  0.2584
12092TIP3    H157767   4.374   3.142  11.670  1.6541  0.4374  0.5951
12092TIP3    H257768   4.348   3.125  11.818  1.1093  0.4445  0.5047
12093TIP3   OH257769   1.767   1.839   2.255  0.0033  0.6347  0.5010
12093TIP3    H157770   1.764   1.910   2.192 -0.0609  0.0097 -0.2182
12093TIP3    H257771   1.827   1.870   2.323  1.2131  0.7626 -0.5847
12094TIP3   OH257772   6.392   3.384  14.090  0.3986  0.3175  0.4422
12094TIP3    H157773   6.310   3.339  14.072  1.2085 -1.2474  0.4969
12094TIP3    H257774   6.411   3.365  14.182  1.6030 -0.7211  0.0148
12095TIP3   OH257775   5.030   0.959  10.454  1.3374 -0.5842  0.3435
12095TIP3    H157776   4.991   0.931  10.537  1.9080  0.2275  0.9050
12095TIP3    H257777   5.064   1.047  10.472 -1.8989  1.3013 -1.8010
12096TIP3   OH257778   1.913   0.946   5.633 -0.1042 -0.1577 -0.3827
12096TIP3    H157779   1.880   0.897   5.558  0.1043 -0.7442 -0.0966
12096TIP3    H257780   1.978   0.889   5.672 -2.3094 -1.2070  2.0488
12097TIP3   OH257781   4.231   4.530  16.962  0.0299  0.2301 -0.7441
12097TIP3    H157782   4.233   4.476  17.041  0.0773  0.2859 -0.7066
12097TIP3    H257783   4.287   4.483  16.900  1.7637  1.2600 -0.0428
12098TIP3   OH257784   4.788   1.760  14.198  0.0122 -0.3608 -0.1913
12098TIP3    H157785   4.705   1.761  14.247 -0.9171  0.7829 -1.6810
12098TIP3    H257786   4.766   1.799  14.114  2.1499  0.2374 -0.5387
12099TIP3   OH257787   5.270   4.834  14.159  0.3965 -0.1810 -0.2519
12099TIP3    H157788   5.198   4.786  14.198  0.1989 -0.0479 -0.4505
12099TIP3    H257789   5.229   4.887  14.090  0.3485  1.4596  0.9622
12100TIP3   OH257790   4.066   6.590   3.137  0.2971  0.3779  0.2575
12100TIP3    H157791   4.116   6.545   3.068  0.6579  0.5043  0.4360
12100TIP3    H257792   4.018   6.519   3.181 -0.0629  0.3157 -0.2237
12101TIP3   OH257793   6.344   3.980  15.199 -0.5961 -0.7122 -0.4689
12101TIP3    H157794   6.347   4.007  15.108 -1.8616  0.6385 -0.1594
12101TIP3    H257795   6.253   3.996  15.226 -0.4978 -2.0049  0.7655
12102TIP3   OH257796   4.242   6.224  11.533  0.1656  0.0164  0.2831
12102TIP3    H157797   4.157   6.183  11.522 -0.0790  0.5286  0.2465
12102TIP3    H257798   4.227   6.295  11.596  0.8101 -0.6334  1.2086
12103TIP3   OH257799   2.583   0.006   4.666 -0.8273  0.0477 -0.3219
12103TIP3    H157800   2.550  -0.072   4.710 -1.2258 -0.0278 -0.7481
12103TIP3    H257801   2.594  -0.020   4.574  1.5458 -0.2965 -0.0252
12104TIP3   OH257802   5.458   6.034  11.075  0.4598 -0.3470 -0.7275
12104TIP3    H157803   5.462   6.049  10.981  0.1151  0.2900 -0.6462
12104TIP3    H257804   5.430   6.118  11.112  1.8126 -0.2103  0.0558
12105TIP3   OH257805   6.374   2.653  13.903  0.3214 -0.0190  0.0900
12105TIP3    H157806   6.430   2.590  13.950  1.6475 -0.0826 -1.4724
12105TIP3    H257807   6.327   2.699  13.972  2.3692  0.0804  1.5180
12106TIP3   OH257808   0.615   2.447  14.804 -0.3527  0.1810  0.1431
12106TIP3    H157809   0.710   2.458  14.800 -0.4084  2.1918  2.1314
12106TIP3    H257810   0.592   2.407  14.721  2.0907  0.9679 -1.0091
12107TIP3   OH257811   4.751   3.540  12.489  0.4096 -0.2292 -0.4334
12107TIP3    H157812   4.713   3.467  12.538  1.5446 -1.4000 -1.2346
12107TIP3    H257813   4.685   3.609  12.494 -0.2646 -0.9404  1.2072
12108TIP3   OH257814   1.583   0.175   3.830  0.6610 -0.1422  0.3628
12108TIP3    H157815   1.677   0.189   3.835  0.3799  1.4236  2.9852
12108TIP3    H257816   1.572   0.082   3.849  1.7075 -0.7404 -1.6702
12109TIP3   OH257817   6.267   4.434  16.623 -0.5903  0.3954  0.0333
12109TIP3    H157818   6.223   4.498  16.680 -0.1078  0.6450  0.1387
12109TIP3    H257819   6.198   4.375  16.595 -0.9977  0.7964  0.1689
12110TIP3   OH257820   0.634   6.286  13.354 -0.5141 -0.0234 -0.2439
12110TIP3    H157821   0.720   6.322  13.333 -0.5505  1.1753  1.3811
12110TIP3    H257822   0.576   6.363  13.355 -1.0220 -0.3845  1.3189
12111TIP3   OH257823   2.321   2.096  14.337 -0.1963  0.0953  0.2725
12111TIP3    H157824   2.387   2.092  14.406  0.1647  0.7348 -0.0225
12111TIP3    H257825   2.292   2.188  14.336  1.2118  0.5929 -1.6856
12112TIP3   OH257826   3.276   2.158   2.237 -0.1089 -0.3362 -0.0953
12112TIP3    H157827   3.330   2.231   2.207  1.5163 -0.0024  3.2351
12112TIP3    H257828   3.335   2.103   2.288 -2.1273 -1.9279  0.6909
12113TIP3   OH257829   0.964   4.658  11.859 -0.1237  0.1213  0.1250
12113TIP3    H157830   0.968   4.589  11.926  0.1105 -0.1323 -0.1469
12113TIP3    H257831   1.016   4.729  11.895 -0.2698  0.1126  0.3565
12114TIP3   OH257832   4.949   6.490   0.019 -0.4445  0.1079 -0.0618
12114TIP3    H157833   4.955   6.494  -0.076 -0.2707 -0.4160 -0.0763
12114TIP3    H257834   4.949   6.396   0.039  1.5345  0.2089  0.5753
12115TIP3   OH257835   6.321   6.111   5.891  0.1393  0.4423  0.0906
12115TIP3    H157836   6.359   6.093   5.805 -1.4046 -1.5949 -0.2482
12115TIP3    H257837   6.336   6.030   5.941  1.1540  1.6350  1.8444
12116TIP3   OH257838   4.529   5.996  14.263  0.6783 -0.2991 -0.3660
12116TIP3    H157839   4.557   5.937  14.333  0.1877 -0.2278 -0.1000
12116TIP3    H257840   4.519   5.939  14.187  3.7759  0.0179 -1.1481
12117TIP3   OH257841   3.128   6.590   5.102 -0.3294 -0.4329  0.5038
12117TIP3    H157842   3.219   6.563   5.095 -0.5233 -0.6976 -1.5414
12117TIP3    H257843   3.086   6.520   5.153  0.2000 -1.4378 -0.3910
12118TIP3   OH257844   1.033   5.146  12.251  0.1608  0.0131  0.0356
12118TIP3    H157845   0.980   5.068  12.236  0.0260  0.2117 -0.5357
12118TIP3    H257846   1.123   5.117  12.238  0.0345  0.2516 -1.5497
12119TIP3   OH257847   0.178   5.326  12.993  0.7367 -0.8671 -0.2631
12119TIP3    H157848   0.176   5.239  13.032  3.1173 -0.1468  1.6855
12119TIP3    H257849   0.228   5.379  13.054  0.0181  1.7164 -1.7645
12120TIP3   OH257850   3.151   3.660   3.145  0.0344 -0.5767  0.4110
12120TIP3    H157851   3.222   3.713   3.180 -0.8948  2.0046 -1.3476
12120TIP3    H257852   3.073   3.715   3.154 -1.4893 -2.6572  0.7454
12121TIP3   OH257853   3.521   0.363  14.483  0.6729  0.2820 -0.1956
12121TIP3    H157854   3.596   0.323  14.526  1.4930 -0.5459 -2.2482
12121TIP3    H257855   3.528   0.456  14.503  0.4539 -0.1385  2.1605
12122TIP3   OH257856   2.538   4.667   6.183 -0.0120 -0.4507 -0.6124
12122TIP3    H157857   2.547   4.760   6.203  1.2169 -0.6988  0.0925
12122TIP3    H257858   2.627   4.638   6.164 -0.0938 -1.8608  0.9272
12123TIP3   OH257859   6.752   5.164   1.783  0.3212 -0.4637  0.2766
12123TIP3    H157860   6.727   5.073   1.800 -0.3019 -0.5756 -1.1222
12123TIP3    H257861   6.670   5.213   1.789  0.5229 -0.1198  0.2263
12124TIP3   OH257862   1.931   1.967   4.075  0.1641 -0.3886 -0.5338
12124TIP3    H157863   1.838   1.990   4.083  0.4875  0.9271 -0.2559
12124TIP3    H257864   1.951   1.980   3.982  0.2778  0.2002 -0.4294
12125TIP3   OH257865   1.916   4.374  11.976 -0.4160 -0.4030 -0.6766
12125TIP3    H157866   1.867   4.293  11.967 -0.8413 -0.3179  0.6890
12125TIP3    H257867   1.971   4.362  12.053  0.9817 -0.1047 -1.5764
12126TIP3   OH257868   5.751   1.144  16.794 -0.5182 -0.5322  0.3036
12126TIP3    H157869   5.765   1.136  16.700  2.8324  2.2360  0.3945
12126TIP3    H257870   5.784   1.062  16.830  0.3412 -0.6724 -0.7660
12127TIP3   OH257871   0.434   5.341   4.242 -0.5097  0.1985 -0.2203
12127TIP3    H157872   0.523   5.376   4.247 -0.4523  0.1232 -0.6113
12127TIP3    H257873   0.382   5.400   4.296 -0.4763  1.0944 -1.1181
12128TIP3   OH257874   3.274   3.143  10.902  0.1150  0.1756  0.4188
12128TIP3    H157875   3.356   3.160  10.855 -0.2202  0.4588 -0.0777
12128TIP3    H257876   3.295   3.070  10.961  0.5145 -0.2929 -0.2786
12129TIP3   OH257877   2.283   3.428  13.804  0.6133 -0.5238 -0.6517
12129TIP3    H157878   2.283   3.380  13.886  1.7591  1.6943  0.7523
12129TIP3    H257879   2.235   3.509  13.824  1.8199  0.5216 -1.8351
12130TIP3   OH257880   2.287   2.834   1.489 -0.6753  0.7463 -0.0927
12130TIP3    H157881   2.349   2.770   1.454 -2.3514 -0.6863 -0.5868
12130TIP3    H257882   2.244   2.788   1.562 -2.2044  1.1186 -0.7191
12131TIP3   OH257883   2.029   1.478  13.052 -0.3738  0.4129 -0.0738
12131TIP3    H157884   2.053   1.414  13.119 -0.2561  0.9043  0.3674
12131TIP3    H257885   1.947   1.445  13.015 -0.5435  0.2372  0.4518
12132TIP3   OH257886   5.564   0.577   4.705  0.3670 -0.1030 -0.2471
12132TIP3    H157887   5.651   0.537   4.708  0.4799  0.1961  1.4919
12132TIP3    H257888   5.576   0.653   4.648  1.5999  0.6411  0.9186
12133TIP3   OH257889   6.093   6.113   3.203  0.2944  0.5842  0.8077
12133TIP3    H157890   6.132   6.027   3.218 -0.8227  0.1508  1.3644
12133TIP3    H257891   6.014   6.095   3.152  0.6811  1.4212 -0.1345
12134TIP3   OH257892   3.116   6.798  12.939  0.4682  0.1859 -0.0492
12134TIP3    H157893   3.171   6.774  12.864  0.7498  1.2477 -0.2001
12134TIP3    H257894   3.059   6.868  12.906  0.6204  0.6934  0.7268
12135TIP3   OH257895   4.691   4.494   0.318 -0.3688 -0.6899  0.1198
12135TIP3    H157896   4.743   4.574   0.312 -0.2146 -0.8675 -1.3085
12135TIP3    H257897   4.607   4.517   0.278  0.0165 -1.4866 -1.2117
12136TIP3   OH257898   6.823   2.581  11.095  0.3461  0.4689  0.5788
12136TIP3    H157899   6.861   2.608  11.178  0.0470  0.7592  0.6248
12136TIP3    H257900   6.892   2.598  11.030  0.0956  1.5666  0.5738
12137TIP3   OH257901   2.882   0.702  10.951 -0.4432  0.0148 -0.8587
12137TIP3    H157902   2.904   0.788  10.916 -0.8453  0.5490  0.1793
12137TIP3    H257903   2.788   0.707  10.970 -0.1695 -0.1451  0.6089
12138TIP3   OH257904   3.916   2.671   6.378 -0.0326 -0.0664  0.5334
12138TIP3    H157905   3.996   2.722   6.389  0.5807 -0.5926 -1.0393
12138TIP3    H257906   3.885   2.654   6.466  1.2036  0.7634  1.1544
12139TIP3   OH257907   6.413   1.857   5.910  0.0461  0.0818  0.3240
12139TIP3    H157908   6.416   1.951   5.891  0.7224 -0.1752 -0.8985
12139TIP3    H257909   6.479   1.844   5.978 -1.9381  0.9024  2.5511
12140TIP3   OH257910   1.682   5.028  15.754  0.3455 -0.2945 -0.3941
12140TIP3    H157911   1.592   5.060  15.752 -0.1814 -1.6576 -0.0242
12140TIP3    H257912   1.673   4.933  15.746  1.7594 -0.4470 -0.3526
12141TIP3   OH257913   4.264   4.128  13.944 -0.4218  0.1369 -0.8192
12141TIP3    H157914   4.341   4.072  13.950  0.0459  0.8963  1.2967
12141TIP3    H257915   4.235   4.121  13.853  0.4914 -2.3126 -0.9812
12142TIP3   OH257916   3.684   6.414   5.133 -0.1636 -0.0084  0.1651
12142TIP3    H157917   3.604   6.366   5.157 -0.1500  0.2865  0.8169
12142TIP3    H257918   3.705   6.465   5.211 -0.2222  1.1332 -0.5591
12143TIP3   OH257919   0.840   1.126   3.514 -0.1678  0.4203 -0.3002
12143TIP3    H157920   0.917   1.133   3.571 -1.2037  0.9936  1.0764
12143TIP3    H257921   0.766   1.149   3.570 -1.3622 -0.1215 -1.5917
12144TIP3   OH257922   4.298   5.863   0.046  0.1975 -0.0969  0.1277
12144TIP3    H157923   4.249   5.863   0.128 -2.4672 -1.9154 -1.2887
12144TIP3    H257924   4.331   5.952   0.038 -0.7292  0.5279  2.4430
12145TIP3   OH257925   0.133   2.082  14.998 -0.3463  0.0468  0.0353
12145TIP3    H157926   0.191   2.053  14.928  0.2030  1.2231 -0.0257
12145TIP3    H257927   0.055   2.114  14.952 -0.5572 -0.4426  0.0483
12146TIP3   OH257928   5.167   6.775  12.125 -0.7453  0.7193 -0.3329
12146TIP3    H157929   5.074   6.768  12.102 -0.6602  1.9515 -1.1190
12146TIP3    H257930   5.193   6.863  12.098  1.0230 -0.0956 -1.4903
12147TIP3   OH257931   2.438   5.849   4.692 -0.0926  0.2702 -0.0161
12147TIP3    H157932   2.467   5.874   4.780  0.4151 -0.4148  0.0158
12147TIP3    H257933   2.501   5.783   4.664 -0.7968 -0.1992 -0.5213
12148TIP3   OH257934   3.666   6.720   1.276  0.4061 -0.1619 -0.0347
12148TIP3    H157935   3.592   6.757   1.324 -0.0945 -2.2229  0.9142
12148TIP3    H257936   3.640   6.724   1.184 -0.4371  0.0965  0.2048
12149TIP3   OH257937   4.116   0.151  14.949  0.1929  1.0440  0.1794
12149TIP3    H157938   4.203   0.124  14.920 -0.6169  0.7433 -2.2525
12149TIP3    H257939   4.102   0.105  15.032  1.5338 -0.5813 -0.4362
12150TIP3   OH257940   1.578   4.856   6.576 -0.6583  0.8606 -0.3897
12150TIP3    H157941   1.662   4.851   6.620 -1.1585  0.9870  0.6080
12150TIP3    H257942   1.563   4.950   6.562  0.0282  0.7696 -1.9101
12151TIP3   OH257943   3.880   2.519  12.716  0.1741 -0.2535  0.1001
12151TIP3    H157944   3.831   2.567  12.782 -0.0028  0.4335 -0.5178
12151TIP3    H257945   3.872   2.572  12.637  2.9282  0.5700  0.2488
12152TIP3   OH257946   4.863   6.303  10.501 -0.8755  0.2881 -0.8762
12152TIP3    H157947   4.907   6.219  10.510  0.4303  1.0176 -0.1344
12152TIP3    H257948   4.784   6.284  10.451 -2.2554 -1.9366  1.8958
12153TIP3   OH257949   1.302   0.100  12.377  0.1249 -0.6817 -0.1739
12153TIP3    H157950   1.296   0.007  12.400 -1.2102 -0.8115 -1.0048
12153TIP3    H257951   1.324   0.143  12.460  1.2130 -1.7611  0.1346
12154TIP3   OH257952   6.474   5.186   5.798  0.2212 -0.3020 -0.4867
12154TIP3    H157953   6.552   5.135   5.776 -0.4865 -1.1119 -1.1868
12154TIP3    H257954   6.426   5.131   5.860 -0.5014 -0.4642 -1.1677
12155TIP3   OH257955   6.035   3.275  13.946 -0.4555 -0.7849 -0.0865
12155TIP3    H157956   6.084   3.238  14.020 -1.2610 -1.5695  0.0761
12155TIP3    H257957   6.100   3.285  13.877  0.0435 -1.3164  0.2911
12156TIP3   OH257958   1.600   2.802  14.221 -0.8634  0.2529  0.4308
12156TIP3    H157959   1.672   2.784  14.161 -2.4072  0.4980 -1.5720
12156TIP3    H257960   1.631   2.875  14.274 -0.4197  1.8294 -1.8857
12157TIP3   OH257961   2.667   3.317  15.273  0.4617  0.6463  0.2301
12157TIP3    H157962   2.644   3.380  15.342 -0.8739  0.5805 -0.1142
12157TIP3    H257963   2.680   3.371  15.195  1.0872  0.6457  0.3337
12158TIP3   OH257964   1.079   5.583  13.913  0.3858  0.1403 -0.0589
12158TIP3    H157965   1.039   5.536  13.986 -1.0270  0.6816 -0.4420
12158TIP3    H257966   1.173   5.575  13.927  0.1485 -0.8052  1.1384
12159TIP3   OH257967   5.572   1.505  14.799  0.2458 -0.0741 -0.1721
12159TIP3    H157968   5.634   1.552  14.855  0.0752 -0.4370  0.3297
12159TIP3    H257969   5.626   1.464  14.732  0.3207  1.6905 -1.2738
12160TIP3   OH257970   1.032   0.003   1.231  0.0268  0.3752  0.1733
12160TIP3    H157971   1.065  -0.082   1.203  0.5043  1.0523 -1.4886
12160TIP3    H257972   1.019  -0.005   1.325  0.8293 -1.2746  0.1728
12161TIP3   OH257973   4.215   5.671   0.569 -0.3423 -0.5278 -0.7798
12161TIP3    H157974   4.137   5.672   0.625  0.8409 -0.2266  0.9428
12161TIP3    H257975   4.182   5.651   0.482 -2.6786  2.2595 -0.6730
12162TIP3   OH257976   1.843   5.548  12.975  0.1382  0.3817  0.0503
12162TIP3    H157977   1.840   5.630  13.024 -2.2587  0.5351 -0.2626
12162TIP3    H257978   1.829   5.574  12.883  1.3430 -0.2150 -0.3269
12163TIP3   OH257979   1.019   6.242   6.701  0.2895  0.2562  0.0949
12163TIP3    H157980   1.048   6.154   6.677  2.1008  0.6461  0.6383
12163TIP3    H257981   1.052   6.253   6.791 -0.8726  1.0917  0.4375
12164TIP3   OH257982   1.825   5.861  11.092  0.0869  0.6515  0.3087
12164TIP3    H157983   1.853   5.933  11.035 -1.6261  0.8638 -0.3117
12164TIP3    H257984   1.730   5.870  11.097  0.2244  1.6157  4.5487
12165TIP3   OH257985   1.316   2.437   4.134  0.0085 -0.0566 -0.0982
12165TIP3    H157986   1.300   2.527   4.164  2.2594  0.1436  0.6803
12165TIP3    H257987   1.229   2.397   4.132 -0.6779  0.8037  3.9235
12166TIP3   OH257988   6.717   1.594   5.595  0.0853  0.1924  0.3227
12166TIP3    H157989   6.636   1.599   5.646 -0.6748  0.3263 -0.8622
12166TIP3    H257990   6.755   1.510   5.619  0.4898  0.8637  2.1706
12167TIP3   OH257991   2.109   4.540   1.533 -0.1776 -0.7160  0.1618
12167TIP3    H157992   2.144   4.462   1.576 -1.7852  0.4218  3.9688
12167TIP3    H257993   2.015   4.538   1.554 -0.7289  0.9642 -1.8373
12168TIP3   OH257994   2.182   3.349  10.929  0.1002 -0.1116 -0.7389
12168TIP3    H157995   2.261   3.403  10.924  1.5562 -1.8479  1.2843
12168TIP3    H257996   2.216   3.259  10.933 -1.9489 -0.8795  0.7777
12169TIP3   OH257997   0.748   4.778  10.805  0.0028 -0.3956  0.5227
12169TIP3    H157998   0.762   4.814  10.893 -2.4455 -0.3673  0.9612
12169TIP3    H257999   0.719   4.854  10.753 -0.4451 -0.7955  0.1873
12170TIP3   OH258000   4.438   6.737   2.388 -0.3357  0.3819  0.5298
12170TIP3    H158001   4.347   6.746   2.416 -0.2193  0.8061  0.7847
12170TIP3    H258002   4.445   6.796   2.312 -0.7014 -0.9001 -0.5480
12171TIP3   OH258003   4.095   3.667   6.320 -0.1058  0.0812  0.2972
12171TIP3    H158004   4.021   3.726   6.308  0.3123  0.5702  0.0945
12171TIP3    H258005   4.126   3.685   6.408 -1.8254 -1.9711  1.4064
12172TIP3   OH258006   3.622   4.019  12.520 -0.6068  0.2655 -0.9021
12172TIP3    H158007   3.713   4.046  12.529 -0.7610  0.4331  0.4180
12172TIP3    H258008   3.572   4.098  12.540 -1.0403 -0.3305  0.4820
12173TIP3   OH258009   2.628   5.651   4.659 -0.2027 -0.2869 -0.1304
12173TIP3    H158010   2.626   5.592   4.584 -0.0185  0.5926 -0.8384
12173TIP3    H258011   2.721   5.676   4.667 -0.4648  0.9309 -0.6630
12174TIP3   OH258012   1.473   6.251  12.529 -0.6252 -0.7110 -0.0498
12174TIP3    H158013   1.430   6.167  12.543 -0.0676 -1.0857 -0.4913
12174TIP3    H258014   1.461   6.269  12.436  0.5997 -1.0837 -0.2977
12175TIP3   OH258015   2.035   5.617   1.614 -0.3718  0.3285 -0.1637
12175TIP3    H158016   1.957   5.593   1.563 -0.6653  3.5888 -1.4960
12175TIP3    H258017   2.108   5.588   1.560 -0.7003  0.8249 -0.9009
12176TIP3   OH258018   0.411   6.604   2.757  0.1343 -0.3741  0.1130
12176TIP3    H158019   0.500   6.568   2.748 -0.1752 -1.0014 -0.5519
12176TIP3    H258020   0.366   6.577   2.677 -0.8279 -0.5579  0.7017
12177TIP3   OH258021   1.642   3.287  16.187 -0.0863  0.5585 -0.0773
12177TIP3    H158022   1.643   3.373  16.228  0.1785  0.3996  0.2494
12177TIP3    H258023   1.686   3.301  16.103  1.6720  0.3593  0.7607
12178TIP3   OH258024   0.304   5.439  12.393  0.6841  0.3037 -0.1726
12178TIP3    H158025   0.299   5.349  12.360  2.2882  0.2447 -0.3369
12178TIP3    H258026   0.345   5.431  12.479 -0.3371  0.7766  0.3692
12179TIP3   OH258027   0.746   0.216   0.499 -0.4668  0.8307 -1.0348
12179TIP3    H158028   0.745   0.308   0.526 -0.8355  0.4461  0.3747
12179TIP3    H258029   0.785   0.216   0.412 -0.5440  2.3297 -1.0891
12180TIP3   OH258030   6.839   6.252   0.867  0.2331 -0.0953  0.4424
12180TIP3    H158031   6.765   6.285   0.918  0.5279 -0.4527  1.1160
12180TIP3    H258032   6.811   6.164   0.840  1.1631 -1.0452  2.3835
12181TIP3   OH258033   4.357   3.001   2.781 -0.2252  0.3380  0.1717
12181TIP3    H158034   4.322   3.035   2.699  0.0391  0.1267 -0.0305
12181TIP3    H258035   4.413   2.928   2.755 -0.1414  0.2688  0.5397
12182TIP3   OH258036   3.983   3.064  14.610  0.8181 -0.0785  0.2238
12182TIP3    H158037   4.024   3.004  14.673  1.2687 -0.1686 -0.1481
12182TIP3    H258038   4.041   3.061  14.533  0.9899  1.0113  0.2900
12183TIP3   OH258039   2.116   4.631  14.606 -0.4329 -0.6391  0.4025
12183TIP3    H158040   2.157   4.547  14.627  0.6869  0.1375  1.4327
12183TIP3    H258041   2.187   4.685  14.572 -0.9927  0.1207  0.4109
12184TIP3   OH258042   0.207   0.406  16.222 -0.2773  0.5237 -0.3439
12184TIP3    H158043   0.116   0.417  16.193 -0.8296  1.8931  1.6601
12184TIP3    H258044   0.203   0.417  16.317  2.0145  0.7934 -0.2188
12185TIP3   OH258045   5.013   0.510   5.828  0.0232 -0.0254  0.0334
12185TIP3    H158046   5.009   0.576   5.898  0.3430 -0.4263  0.4408
12185TIP3    H258047   5.046   0.558   5.752  0.4193  0.2538  0.3692
12186TIP3   OH258048   6.433   5.793   3.525 -0.0340 -0.1661 -0.1806
12186TIP3    H158049   6.431   5.708   3.568  0.0037 -0.4587 -0.7373
12186TIP3    H258050   6.510   5.789   3.468  0.4654  0.5653  0.4250
12187TIP3   OH258051   3.964   5.392   6.405  0.7227  0.3917  0.2837
12187TIP3    H158052   3.946   5.391   6.499  0.5715 -0.4841  0.2595
12187TIP3    H258053   4.051   5.353   6.397  0.5054 -0.0584  0.0304
12188TIP3   OH258054   1.564   3.814   3.639 -0.1155  0.4256 -0.2155
12188TIP3    H158055   1.590   3.804   3.731  0.2223 -2.0434 -0.5096
12188TIP3    H258056   1.471   3.793   3.638 -0.7777  2.9889 -0.1277
12189TIP3   OH258057   0.601   1.229  13.733  0.1010 -0.0137  0.2727
12189TIP3    H158058   0.568   1.167  13.798 -0.2572 -1.0936 -0.9103
12189TIP3    H258059   0.546   1.306  13.743 -0.5060 -0.4894  0.6738
12190TIP3   OH258060   5.781   2.745   6.607 -0.0208  0.0600  0.0506
12190TIP3    H158061   5.779   2.715   6.698  0.4229  0.1553  0.0936
12190TIP3    H258062   5.689   2.750   6.582 -0.3467  2.5422  1.3434
12191TIP3   OH258063   0.826   6.695  16.464  0.1064 -0.0526  0.0073
12191TIP3    H158064   0.840   6.751  16.387  1.0213  1.0427  0.9336
12191TIP3    H258065   0.843   6.606  16.433 -1.0368  0.1913 -1.4160
12192TIP3   OH258066   6.717   4.263  14.252 -0.7859  0.5184  0.2514
12192TIP3    H158067   6.624   4.241  14.255 -1.1546  1.6088 -1.4468
12192TIP3    H258068   6.746   4.232  14.166 -0.3468  2.8322 -0.5162
12193TIP3   OH258069   1.503   4.199  11.736 -0.1982 -0.4462  0.5175
12193TIP3    H158070   1.561   4.125  11.721 -1.2040 -0.9115 -1.3007
12193TIP3    H258071   1.438   4.194  11.666 -0.2177  2.2237  0.2235
12194TIP3   OH258072   3.366   4.465  13.057  0.0693  0.1795  0.4578
12194TIP3    H158073   3.455   4.437  13.038 -0.4740 -0.7469 -0.8100
12194TIP3    H258074   3.355   4.545  13.007 -0.1548 -0.2797 -0.2326
12195TIP3   OH258075   0.798   1.515   1.698 -0.1384  0.1921 -0.3313
12195TIP3    H158076   0.751   1.432   1.688  0.2971 -0.1648  0.4721
12195TIP3    H258077   0.807   1.548   1.609  0.0306 -0.8275 -0.7150
12196TIP3   OH258078   4.362   3.497  13.231 -0.4470 -0.0795  0.2315
12196TIP3    H158079   4.356   3.403  13.250 -1.1600 -0.7509 -2.7382
12196TIP3    H258080   4.450   3.509  13.196 -0.5972  0.2063 -0.0572
12197TIP3   OH258081   1.584   5.568  11.572 -0.1499  0.4292 -0.0697
12197TIP3    H158082   1.522   5.634  11.606 -0.7590 -1.1697  2.1291
12197TIP3    H258083   1.658   5.571  11.633 -0.1031 -0.7816 -0.0455
12198TIP3   OH258084   0.140   6.000  11.505 -0.2498 -0.0700 -0.1290
12198TIP3    H158085   0.064   6.015  11.561 -1.1986  0.3654 -1.4787
12198TIP3    H258086   0.206   5.961  11.563 -0.9444  0.9675  1.4133
12199TIP3   OH258087   5.709   0.072  16.653 -0.0054 -0.0040  0.3728
12199TIP3    H158088   5.792   0.055  16.698 -0.8246 -1.5291  1.3748
12199TIP3    H258089   5.672   0.146  16.701  0.0756 -0.3094  0.9274
12200TIP3   OH258090   4.956   2.581  13.279  0.2667  0.6619  0.3274
12200TIP3    H158091   5.016   2.543  13.215 -1.1611  0.2608 -0.8301
12200TIP3    H258092   4.942   2.670  13.248 -1.0067  0.2383 -0.3918
12201TIP3   OH258093   6.103   0.134  16.975 -0.2873  0.0776  0.1415
12201TIP3    H158094   6.168   0.149  17.044  0.6307 -2.8829  0.0687
12201TIP3    H258095   6.020   0.125  17.021 -0.7528  3.5972  0.2644
12202TIP3   OH258096   0.922   2.931  14.467  0.0038  0.3222 -0.4341
12202TIP3    H158097   0.988   2.983  14.512 -0.4550  2.1193 -1.7249
12202TIP3    H258098   0.895   2.866  14.531  1.1623  1.1886  0.9904
12203TIP3   OH258099   3.189   6.749   2.910  0.0464  0.0668 -0.2055
12203TIP3    H158100   3.136   6.690   2.857 -0.8535 -1.6799  2.4080
12203TIP3    H258101   3.279   6.724   2.891 -0.3023 -2.7972  1.2738
12204TIP3   OH258102   4.533   6.736  11.310 -0.1902  0.5014  0.3395
12204TIP3    H158103   4.525   6.677  11.385  0.7086 -0.8835 -0.6067
12204TIP3    H258104   4.573   6.815  11.346  1.3857 -0.6037  1.1284
12205TIP3   OH258105   0.806   1.531  16.905  0.3056  0.3464 -0.2504
12205TIP3    H158106   0.812   1.590  16.830  1.6375 -0.7486 -1.0563
12205TIP3    H258107   0.784   1.446  16.867  1.6476 -0.3730  0.4875
12206TIP3   OH258108   0.428   2.752  10.462 -0.2856  0.7171  0.0027
12206TIP3    H158109   0.392   2.714  10.381 -1.6058  0.3027  0.7478
12206TIP3    H258110   0.510   2.706  10.476  0.5786  1.6200 -1.7181
12207TIP3   OH258111   2.649   0.872   3.491 -0.1561 -0.1103 -0.1426
12207TIP3    H158112   2.606   0.854   3.575  1.2286  0.3106  0.6822
12207TIP3    H258113   2.621   0.961   3.469 -0.8122 -0.3560 -0.3214
12208TIP3   OH258114   0.511   4.476  15.802 -0.2462 -0.7069  0.2000
12208TIP3    H158115   0.477   4.531  15.731  2.3685 -1.0602 -1.4395
12208TIP3    H258116   0.553   4.538  15.862  0.1885 -0.6820 -0.1340
12209TIP3   OH258117   3.952   6.367  16.592  0.0656 -0.7454  0.0534
12209TIP3    H158118   3.919   6.387  16.504 -3.7910 -0.5366  1.3549
12209TIP3    H258119   3.927   6.276  16.606  0.8752 -0.8532  0.8652
12210TIP3   OH258120   4.671   1.177   1.574  0.4672  0.4194  0.4009
12210TIP3    H158121   4.660   1.082   1.587 -1.3812  0.8700  2.8627
12210TIP3    H258122   4.715   1.184   1.490  0.0766 -2.6088 -0.1922
12211TIP3   OH258123   3.594   4.742   5.041 -0.2419 -0.1059 -0.1631
12211TIP3    H158124   3.605   4.834   5.063 -0.8360 -0.4493  1.8002
12211TIP3    H258125   3.501   4.732   5.024  0.0716 -0.0401 -2.1544
12212TIP3   OH258126   1.747   6.699   2.692 -0.4568  0.4376 -0.0870
12212TIP3    H158127   1.763   6.691   2.598  0.9121 -0.3450  0.1873
12212TIP3    H258128   1.729   6.792   2.706 -0.4975  0.5848 -1.0884
12213TIP3   OH258129   0.840   1.339  10.505 -0.1377  0.1675  0.0447
12213TIP3    H158130   0.767   1.292  10.464  1.1034 -2.2000  0.3975
12213TIP3    H258131   0.820   1.337  10.599  1.4645 -2.7454  0.4430
12214TIP3   OH258132   1.059   4.738  12.981 -0.5532  0.8756 -0.0614
12214TIP3    H158133   1.013   4.656  12.997 -0.2941  0.6675 -0.3716
12214TIP3    H258134   1.023   4.799  13.046 -1.6773  0.8742 -0.6625
12215TIP3   OH258135   3.771   2.365   2.164 -0.1535 -0.2956  0.3193
12215TIP3    H158136   3.794   2.275   2.143 -0.6349 -0.6988  1.4481
12215TIP3    H258137   3.849   2.400   2.207  0.1752 -0.0418 -0.4714
12216TIP3   OH258138   6.645   3.597   3.131 -0.1332 -0.7475  0.2435
12216TIP3    H158139   6.609   3.686   3.118  0.5206 -0.3480  1.1338
12216TIP3    H258140   6.739   3.610   3.141  0.2432 -1.7421 -1.5061
12217TIP3   OH258141   2.326   2.367  11.895 -0.3319 -0.0605  0.4695
12217TIP3    H158142   2.267   2.410  11.834 -1.5027  0.5225  1.9735
12217TIP3    H258143   2.270   2.335  11.965  0.7317 -2.4435  0.3296
12218TIP3   OH258144   2.861   0.108   5.969  0.0101 -0.3630  0.1323
12218TIP3    H158145   2.802   0.071   6.034 -1.0892 -0.9290 -1.1667
12218TIP3    H258146   2.856   0.203   5.984  0.7203 -0.5307  1.6455
12219TIP3   OH258147   5.149   4.709   5.200  0.2635 -0.5153 -0.6738
12219TIP3    H158148   5.229   4.754   5.226  1.3959 -3.5795  1.7781
12219TIP3    H258149   5.174   4.656   5.124  0.8831 -2.0570  0.5513
12220TIP3   OH258150   2.870   1.272   0.437 -0.2290  0.3021 -0.3607
12220TIP3    H158151   2.874   1.215   0.514 -2.1246  0.6447  0.0506
12220TIP3    H258152   2.946   1.329   0.446  2.2099 -2.5756 -1.2239
12221TIP3   OH258153   4.592   3.319  17.003  0.1147 -0.3742 -0.1152
12221TIP3    H158154   4.569   3.358  17.087  0.3345 -0.9732  0.2334
12221TIP3    H258155   4.536   3.363  16.939 -0.6556 -0.5128  0.4570
12222TIP3   OH258156   3.327   3.869   6.369 -0.9984  0.0330 -0.8285
12222TIP3    H158157   3.394   3.802   6.369 -0.0707  0.9344 -0.7335
12222TIP3    H258158   3.330   3.907   6.457 -1.4519  0.2527 -0.9011
12223TIP3   OH258159   2.463   0.919  14.182  0.3546 -0.4365 -0.6289
12223TIP3    H158160   2.505   0.856  14.240  1.6736  1.0946  0.1589
12223TIP3    H258161   2.484   1.004  14.220 -3.8193  0.5143  0.0957
12224TIP3   OH258162   2.352   4.455   1.306  0.2359  0.6477 -0.3653
12224TIP3    H158163   2.334   4.518   1.375 -0.3964  0.8981 -0.7539
12224TIP3    H258164   2.329   4.501   1.225 -1.4316 -0.4867 -0.5805
12225TIP3   OH258165   5.135   5.371  15.289 -0.4743 -0.2520  0.1888
12225TIP3    H158166   5.116   5.372  15.196  0.5091 -1.1735 -0.0354
12225TIP3    H258167   5.204   5.436  15.300 -2.0468  1.4321  0.6473
12226TIP3   OH258168   3.104   1.263   2.459 -0.4617 -0.3199  0.3518
12226TIP3    H158169   3.066   1.175   2.463 -0.2445 -0.4719 -0.7624
12226TIP3    H258170   3.030   1.321   2.473 -0.4830 -0.6763  1.9005
12227TIP3   OH258171   5.376   3.256  13.730  0.6768  0.0201  0.0883
12227TIP3    H158172   5.408   3.335  13.773  0.8134  2.3407 -3.8143
12227TIP3    H258173   5.454   3.216  13.690  0.2414 -0.6294 -0.1394
12228TIP3   OH258174   3.940   0.127   4.468 -0.3821  0.2787 -0.1115
12228TIP3    H158175   3.924   0.135   4.562 -0.1140 -0.4419  0.0008
12228TIP3    H258176   4.028   0.090   4.462 -1.2203 -1.8143 -0.5793
12229TIP3   OH258177   1.244   3.772   2.438 -0.3301  0.3969 -0.6965
12229TIP3    H158178   1.214   3.862   2.449 -0.0228  0.6951 -2.0962
12229TIP3    H258179   1.265   3.743   2.526 -1.3735  1.3572 -0.1038
12230TIP3   OH258180   1.293   0.860   3.498  0.4160  0.1551 -0.5118
12230TIP3    H158181   1.319   0.842   3.408 -1.9431 -0.9940 -1.0407
12230TIP3    H258182   1.229   0.792   3.519 -0.7430  1.6739  1.2822
12231TIP3   OH258183   1.295   6.608  16.794 -0.3106 -0.0635  0.3094
12231TIP3    H158184   1.343   6.536  16.836  0.2187  0.4964  0.6851
12231TIP3    H258185   1.206   6.601  16.828 -0.8472 -1.8042 -1.2361
12232TIP3   OH258186   0.372   4.999  12.084 -0.0902 -0.2348  0.0443
12232TIP3    H158187   0.396   4.953  12.004 -1.1611  0.7523 -0.8706
12232TIP3    H258188   0.446   5.057  12.101  0.4785 -0.9888  0.2199
12233TIP3   OH258189   3.561   3.664  15.981 -0.5995  0.4839  0.4168
12233TIP3    H158190   3.597   3.698  15.899 -0.7425 -0.8525 -0.2166
12233TIP3    H258191   3.490   3.725  16.003 -0.0721  1.2828 -0.0401
12234TIP3   OH258192   3.163   4.786   0.218  0.2550 -0.2618  0.1609
12234TIP3    H158193   3.207   4.869   0.233 -0.8037  0.0160  2.2348
12234TIP3    H258194   3.094   4.783   0.285 -1.2483 -1.7746 -1.3304
12235TIP3   OH258195   6.464   5.091  15.109  0.8018 -0.1917 -0.0487
12235TIP3    H158196   6.536   5.130  15.059 -1.2123  2.7764 -0.9261
12235TIP3    H258197   6.385   5.120  15.064 -1.0325 -1.2720  2.2319
12236TIP3   OH258198   5.766   3.434  11.735  0.2754 -0.5089  0.0047
12236TIP3    H158199   5.816   3.510  11.707  1.8225 -0.8540  1.6005
12236TIP3    H258200   5.806   3.360  11.691 -0.3590 -0.5577 -0.5077
12237TIP3   OH258201   1.964   6.440  14.938 -0.8187  0.0446 -0.2494
12237TIP3    H158202   2.043   6.476  14.979 -0.3845 -0.4844 -0.5947
12237TIP3    H258203   1.929   6.511  14.885 -0.9697  0.5023  0.4510
12238TIP3   OH258204   2.439   0.184   3.893  0.5755 -0.1260  0.0480
12238TIP3    H158205   2.419   0.144   3.977  3.4143  0.0447  0.8947
12238TIP3    H258206   2.378   0.143   3.831 -2.6101  0.8067  2.3499
12239TIP3   OH258207   5.954   6.411  10.902  0.3790  0.4598 -0.0719
12239TIP3    H158208   5.881   6.352  10.886  0.9792 -0.4062  0.3206
12239TIP3    H258209   5.919   6.476  10.963  0.2218 -0.5679  0.9755
12240TIP3   OH258210   5.441   1.821  16.794 -0.1168  0.7456 -0.3965
12240TIP3    H158211   5.512   1.880  16.819  0.8165 -0.6070  0.2483
12240TIP3    H258212   5.446   1.750  16.858 -0.5112 -0.5883 -1.8002
12241TIP3   OH258213   5.271   0.581   2.099 -0.1142 -0.3418  0.2713
12241TIP3    H158214   5.346   0.624   2.140  2.3151 -2.3846 -1.6657
12241TIP3    H258215   5.292   0.581   2.005 -2.2675 -1.5130 -0.2809
12242TIP3   OH258216   1.426   5.681  16.444 -0.4325 -0.2707  0.1947
12242TIP3    H158217   1.506   5.656  16.490 -0.2446 -2.6011 -1.2436
12242TIP3    H258218   1.359   5.686  16.511  0.4120 -0.7536  1.0919
12243TIP3   OH258219   2.562   0.410  11.476  0.0565 -0.4270 -0.2491
12243TIP3    H158220   2.517   0.380  11.397  1.3732  0.1321 -1.2496
12243TIP3    H258221   2.519   0.493  11.498  0.3818 -0.0446 -1.0185
12244TIP3   OH258222   5.966   0.574  13.342 -0.1393 -0.2398  0.1210
12244TIP3    H158223   5.960   0.530  13.257  0.3891 -0.0920  0.0076
12244TIP3    H258224   6.042   0.631  13.335 -0.6243  0.4494  0.3862
12245TIP3   OH258225   3.001   6.373   1.428 -0.1635 -0.3092 -0.1889
12245TIP3    H158226   3.070   6.323   1.384  0.5121 -0.7472  1.2828
12245TIP3    H258227   2.929   6.311   1.439  0.3805 -0.7699  0.9446
12246TIP3   OH258228   6.752   2.546  11.603 -0.0100 -0.3976 -0.4169
12246TIP3    H158229   6.658   2.556  11.588  0.1345  0.2525 -0.9290
12246TIP3    H258230   6.760   2.466  11.655 -0.8625 -0.3276 -0.1737
12247TIP3   OH258231   2.560   4.870  12.475 -0.4323  0.2255 -0.3217
12247TIP3    H158232   2.557   4.898  12.566  0.2857 -0.4677 -0.0775
12247TIP3    H258233   2.496   4.799  12.470  0.9862 -1.1247  0.1469
12248TIP3   OH258234   2.622   4.141  11.788  0.4950 -0.7180 -0.6246
12248TIP3    H158235   2.717   4.156  11.787  0.1433  2.2363 -1.8240
12248TIP3    H258236   2.613   4.046  11.786  3.4000 -1.1566  0.9012
12249TIP3   OH258237   4.130   0.568  14.793 -0.3460 -0.0491 -1.2239
12249TIP3    H158238   4.058   0.630  14.805  0.9318  1.5561 -1.4672
12249TIP3    H258239   4.187   0.584  14.868  0.3778 -0.3884 -1.6941
12250TIP3   OH258240   3.668   6.167   3.593 -0.5089  0.2649  0.0077
12250TIP3    H158241   3.734   6.189   3.658  0.6299  0.2263 -1.0816
12250TIP3    H258242   3.668   6.242   3.532 -1.4374  0.2410 -0.0469
12251TIP3   OH258243   6.311   5.274   1.552 -0.5129 -0.3881 -0.3603
12251TIP3    H158244   6.387   5.265   1.496 -0.5303 -2.6357 -0.1055
12251TIP3    H258245   6.325   5.357   1.598  1.1053 -0.1159 -1.2701
12252TIP3   OH258246   4.870   5.776  16.668 -0.2613 -0.1486 -0.1571
12252TIP3    H158247   4.823   5.858  16.686 -1.1506 -0.5750 -0.4872
12252TIP3    H258248   4.865   5.766  16.572  0.3480 -0.2994 -0.1795
12253TIP3   OH258249   0.873   5.904  13.410 -0.0072 -0.6306  0.0326
12253TIP3    H158250   0.797   5.865  13.366 -1.2534  1.2205  0.4219
12253TIP3    H258251   0.851   5.902  13.503  0.9081 -1.0488  0.2463
12254TIP3   OH258252   5.361   4.549  13.301 -0.7552 -0.0759  0.2901
12254TIP3    H158253   5.420   4.567  13.374  1.7669 -0.7263 -1.4509
12254TIP3    H258254   5.344   4.634  13.262  3.5273 -0.1313 -2.3264
12255TIP3   OH258255   5.290   5.389   5.558 -0.0599  0.1907 -0.0499
12255TIP3    H158256   5.227   5.419   5.493 -0.4440 -0.5919 -0.0503
12255TIP3    H258257   5.376   5.403   5.517 -0.3140 -0.8510 -0.9895
12256TIP3   OH258258   4.482   4.776   1.445 -0.1479 -0.1136  0.4026
12256TIP3    H158259   4.483   4.680   1.454  4.0596 -0.2960 -0.0452
12256TIP3    H258260   4.458   4.791   1.354  0.2001 -0.8487  0.1805
12257TIP3   OH258261   2.705   3.849   3.503  0.3663 -0.0287  0.7564
12257TIP3    H158262   2.659   3.888   3.428 -0.9225 -1.9412  0.4552
12257TIP3    H258263   2.656   3.880   3.579 -0.1966 -0.4367  0.5724
12258TIP3   OH258264   0.733   4.632  16.243 -0.4429  0.1244 -0.2929
12258TIP3    H158265   0.664   4.595  16.298  0.3349  0.4876  0.9660
12258TIP3    H258266   0.788   4.682  16.303  1.5239 -0.9994 -1.0708
12259TIP3   OH258267   6.401   0.279   5.897 -0.6189 -0.1704  0.5005
12259TIP3    H158268   6.337   0.220   5.936  1.8108 -1.8632  2.2268
12259TIP3    H258269   6.435   0.231   5.821  1.2616 -1.0972  1.8283
12260TIP3   OH258270   3.684   1.233   5.209  0.0376 -0.5789  0.2019
12260TIP3    H158271   3.766   1.214   5.255  0.8063 -1.5078 -1.4479
12260TIP3    H258272   3.666   1.325   5.228  1.9389 -0.1030 -0.0497
12261TIP3   OH258273   0.283   5.287  15.687  0.0662  0.6740  0.1319
12261TIP3    H158274   0.369   5.317  15.658 -0.7427  2.4433 -0.5372
12261TIP3    H258275   0.277   5.316  15.778 -0.7975  2.8432 -0.5754
12262TIP3   OH258276   4.284   3.297  11.333  0.0067  0.1255  0.0146
12262TIP3    H158277   4.248   3.225  11.281  0.4214 -0.0375 -0.0528
12262TIP3    H258278   4.363   3.323  11.285  0.3692  0.0063  0.5332
12263TIP3   OH258279   4.092   5.596  14.461  0.4745  0.3367 -0.1660
12263TIP3    H158280   4.105   5.602  14.366 -1.2318  0.5554 -0.4209
12263TIP3    H258281   4.180   5.587  14.497  1.0618 -1.2970 -1.8701
12264TIP3   OH258282   6.241   6.423   2.484 -0.0873  0.0096  0.0078
12264TIP3    H158283   6.302   6.436   2.556 -0.0141  0.8333 -0.1989
12264TIP3    H258284   6.155   6.438   2.523 -0.1574 -0.9545  0.2516
12265TIP3   OH258285   2.659   4.291  16.435 -0.4422 -0.8583 -0.1354
12265TIP3    H158286   2.602   4.326  16.366  0.8941 -1.1151 -1.4127
12265TIP3    H258287   2.684   4.204  16.403  0.4076 -0.8700  0.5403
12266TIP3   OH258288   4.713   5.347  14.398 -0.4701  0.5912 -0.5045
12266TIP3    H158289   4.781   5.373  14.460  0.6215  0.6065 -1.6672
12266TIP3    H258290   4.745   5.377  14.313 -1.6029 -0.0304 -1.1771
12267TIP3   OH258291   5.410   0.262  14.954  0.0033  0.2597  0.3288
12267TIP3    H158292   5.422   0.290  14.864 -2.6933 -3.2785 -1.3677
12267TIP3    H258293   5.316   0.266  14.968  0.3172  0.2828  2.8825
12268TIP3   OH258294   1.679   2.926   2.414  0.1371 -0.3733 -0.6139
12268TIP3    H158295   1.774   2.927   2.399  0.0882 -0.8398 -0.9791
12268TIP3    H258296   1.645   2.996   2.358  0.0725 -1.4053 -1.9126
12269TIP3   OH258297   0.364   1.542  11.702 -0.2110  0.2968 -0.2827
12269TIP3    H158298   0.390   1.634  11.704 -2.4780  0.9638  0.4540
12269TIP3    H258299   0.293   1.538  11.638  1.0857 -1.3379 -1.7247
12270TIP3   OH258300   4.864   1.966   0.075  0.1267 -0.2120 -0.6420
12270TIP3    H158301   4.955   1.997   0.077  0.4545 -1.1463  0.7597
12270TIP3    H258302   4.850   1.939  -0.016  2.1012 -2.3234 -0.4496
12271TIP3   OH258303   4.184   5.056  13.472 -0.6185  0.2868 -0.2525
12271TIP3    H158304   4.090   5.043  13.486 -0.6103  0.2568 -0.2266
12271TIP3    H258305   4.211   5.114  13.543 -0.5601  0.0657 -0.0950
12272TIP3   OH258306   2.342   5.383  11.472  0.6004  0.7583 -0.4621
12272TIP3    H158307   2.391   5.374  11.391  0.0571  0.1465 -0.7285
12272TIP3    H258308   2.251   5.388  11.445  0.2791 -0.9314  0.1658
12273TIP3   OH258309   2.736   6.630  11.608 -0.4041 -0.0584  0.1971
12273TIP3    H158310   2.647   6.611  11.640 -0.2190 -0.1246  0.6799
12273TIP3    H258311   2.724   6.702  11.546 -0.9306 -0.7683 -0.5567
12274TIP3   OH258312   6.168   5.275  13.140 -0.2146  0.1205 -0.5116
12274TIP3    H158313   6.101   5.250  13.204 -0.5910 -1.2443 -1.4005
12274TIP3    H258314   6.157   5.213  13.068  2.1509 -0.2968 -0.5962
12275TIP3   OH258315   4.745   1.299  15.417 -0.0469 -0.5535  0.0286
12275TIP3    H158316   4.805   1.250  15.362 -0.0413  0.3585 -0.8031
12275TIP3    H258317   4.682   1.337  15.356 -0.6408 -0.3573  0.7524
12276TIP3   OH258318   1.506   5.325  15.586 -0.2009 -0.5892 -0.3151
12276TIP3    H158319   1.460   5.407  15.566 -0.0719 -0.7925 -1.5310
12276TIP3    H258320   1.548   5.300  15.504  1.5579 -0.7632  0.5769
12277TIP3   OH258321   3.070   0.145   0.431  0.4674 -0.3393  0.4885
12277TIP3    H158322   3.033   0.059   0.452  0.9536 -0.5452  0.5146
12277TIP3    H258323   2.995   0.198   0.406 -0.1453 -0.1060  2.6419
12278TIP3   OH258324   3.227   2.229   4.062 -0.5465 -0.2097  0.4103
12278TIP3    H158325   3.278   2.224   3.981 -2.8430  1.1247 -1.2353
12278TIP3    H258326   3.280   2.286   4.119  1.4533 -1.7489  0.2042
12279TIP3   OH258327   3.745   0.620  15.964  0.4302  0.1159 -0.8056
12279TIP3    H158328   3.763   0.708  15.933 -0.7629  1.3835  1.7918
12279TIP3    H258329   3.797   0.612  16.044  0.8766 -1.7473 -1.2248
12280TIP3   OH258330   4.681   2.814  13.247  0.0287  0.4508 -0.1315
12280TIP3    H158331   4.695   2.885  13.310 -1.4251 -0.7563  1.7017
12280TIP3    H258332   4.687   2.735  13.300  0.5584 -0.7598 -1.9141
12281TIP3   OH258333   2.795   1.213  11.436  0.2814 -0.1290  0.1988
12281TIP3    H158334   2.760   1.128  11.409  0.3604 -0.0375 -0.2061
12281TIP3    H258335   2.727   1.252  11.490  0.3958 -0.6082  0.7057
12282TIP3   OH258336   1.207   1.515   5.285 -0.0217 -0.5682  0.0419
12282TIP3    H158337   1.118   1.488   5.308  0.7639 -2.2129  1.3211
12282TIP3    H258338   1.241   1.558   5.363 -0.1965  1.5511 -0.9728
12283TIP3   OH258339   1.369   4.012  15.756  0.1087  0.4872  0.2405
12283TIP3    H158340   1.305   4.033  15.823 -1.6279 -0.8562 -0.9220
12283TIP3    H258341   1.376   4.092  15.704 -2.3797  0.0206 -0.9436
12284TIP3   OH258342   4.546   5.362   5.498 -0.5261 -0.8837  0.1444
12284TIP3    H158343   4.454   5.341   5.481 -0.7163  0.1822 -0.2671
12284TIP3    H258344   4.544   5.408   5.582 -0.1535 -2.2700  0.9231
12285TIP3   OH258345   1.916   3.894   2.159 -0.0568  0.2341 -1.2347
12285TIP3    H158346   1.968   3.924   2.084  0.4976 -2.3944 -2.0037
12285TIP3    H258347   1.947   3.948   2.231  0.6515  1.6735 -2.5455
12286TIP3   OH258348   3.964   5.847  14.523 -0.3792  1.2054  0.7624
12286TIP3    H158349   3.989   5.757  14.502  2.5735  2.1864 -0.4843
12286TIP3    H258350   3.888   5.838  14.581 -0.2556 -2.0395  0.6168
12287TIP3   OH258351   2.380   5.688   1.804 -0.5099 -0.3114  0.0959
12287TIP3    H158352   2.447   5.639   1.852  0.0396  0.1658 -0.1765
12287TIP3    H258353   2.321   5.620   1.770 -0.6481 -0.6800  1.0441
12288TIP3   OH258354   3.204   5.447  13.732  0.1343 -0.4918 -0.2595
12288TIP3    H158355   3.297   5.449  13.711  0.6264 -0.6326  1.6764
12288TIP3    H258356   3.183   5.537  13.756  0.2118 -0.7692  0.9140
12289TIP3   OH258357   1.132   5.899   3.630  0.0994  0.0025  0.7537
12289TIP3    H158358   1.080   5.966   3.585 -1.1876 -1.2857  0.2381
12289TIP3    H258359   1.175   5.851   3.560  2.0527  1.0430  1.1799
12290TIP3   OH258360   3.414   2.344  14.854 -0.2873 -0.1516 -0.0348
12290TIP3    H158361   3.395   2.278  14.787  0.6019 -0.2629 -0.1857
12290TIP3    H258362   3.501   2.377  14.832  0.2900 -0.6312  1.4094
12291TIP3   OH258363   5.609   5.263  15.526 -0.0963 -0.1081 -0.5240
12291TIP3    H158364   5.611   5.357  15.509  0.5120  0.1320  0.8089
12291TIP3    H258365   5.537   5.231  15.472 -1.2059  1.3365  0.0327
12292TIP3   OH258366   4.134   4.568  10.788 -0.0347 -0.6150 -0.1458
12292TIP3    H158367   4.169   4.594  10.702 -0.4837  0.2407 -0.0774
12292TIP3    H258368   4.087   4.486  10.771  1.9347 -1.7955 -0.2517
12293TIP3   OH258369   5.920   1.673  11.440  0.8614 -0.6538 -0.0159
12293TIP3    H158370   5.869   1.627  11.507  0.3840 -0.2931 -0.1220
12293TIP3    H258371   6.008   1.636  11.446  1.5387  1.1176  2.5291
12294TIP3   OH258372   5.755   2.439   2.961 -0.1461 -0.5798 -0.7935
12294TIP3    H158373   5.664   2.450   2.931 -0.3494  0.5268  0.1460
12294TIP3    H258374   5.805   2.498   2.905 -0.1666 -0.3932 -0.6174
12295TIP3   OH258375   5.982   4.020   5.781 -0.1465 -0.4069  0.1998
12295TIP3    H158376   6.017   4.010   5.692 -1.5144  0.9587 -0.5457
12295TIP3    H258377   5.983   4.114   5.796  3.7637 -0.6804  3.2782
12296TIP3   OH258378   1.525   1.943  14.672 -0.3706  0.5846 -0.2591
12296TIP3    H158379   1.515   2.020  14.729  0.1673  0.2869  0.2521
12296TIP3    H258380   1.526   1.979  14.583  1.7486  1.3886  0.0364
12297TIP3   OH258381   3.157   2.409  14.668  0.0686  0.6489 -0.6592
12297TIP3    H158382   3.182   2.491  14.709 -0.5108  1.1044 -1.1942
12297TIP3    H258383   3.121   2.435  14.583  0.9045 -0.2390 -1.3034
12298TIP3   OH258384   3.233   0.847   5.016 -0.3077 -0.0676 -0.4125
12298TIP3    H158385   3.239   0.942   5.003  0.5547  0.0218  0.5323
12298TIP3    H258386   3.219   0.837   5.111 -0.5114 -0.8866 -0.5242
12299TIP3   OH258387   3.608   4.333   2.768 -0.7041 -0.3041 -0.5357
12299TIP3    H158388   3.539   4.320   2.833 -0.4448  0.1692 -0.1657
12299TIP3    H258389   3.671   4.262   2.786 -0.0884  0.4597  0.4507
12300TIP3   OH258390   1.070   2.327   5.119  0.6973  0.0131 -0.1938
12300TIP3    H158391   1.120   2.259   5.164 -1.1564 -0.9971  0.4349
12300TIP3    H258392   1.132   2.365   5.056  2.0608 -1.5945  0.1118
12301TIP3   OH258393   5.206   3.839   2.432 -0.7000 -0.0468  0.5166
12301TIP3    H158394   5.218   3.934   2.436  1.5493 -0.3248  2.0223
12301TIP3    H258395   5.282   3.807   2.384 -0.9492 -1.1587  0.8295
12302TIP3   OH258396   5.504   2.526  10.908 -0.1805 -0.3634 -0.0950
12302TIP3    H158397   5.460   2.610  10.896  0.4988 -0.2275 -1.9018
12302TIP3    H258398   5.575   2.527  10.844  1.1451 -1.4497  1.3091
12303TIP3   OH258399   5.825   5.953   0.217  0.4980 -0.2333 -0.6102
12303TIP3    H158400   5.769   5.993   0.152  0.3682  0.4835 -0.0642
12303TIP3    H258401   5.910   5.945   0.174  0.6498  1.0576 -0.5765
12304TIP3   OH258402   5.863   4.291  11.363 -0.6729 -0.2512  0.4187
12304TIP3    H158403   5.947   4.249  11.383 -0.4878 -0.3483 -0.5039
12304TIP3    H258404   5.866   4.375  11.409 -0.5249 -0.7112  1.2667
12305TIP3   OH258405   2.562   1.412  11.477  0.0833  0.1457  0.0625
12305TIP3    H158406   2.511   1.382  11.401 -2.8875  0.4103  1.7697
12305TIP3    H258407   2.533   1.502  11.490  0.5773  0.1172  1.4796
12306TIP3   OH258408   1.858   4.061   5.130 -0.0715  0.1582 -0.1184
12306TIP3    H158409   1.778   4.012   5.148 -0.1211 -0.0523 -0.8638
12306TIP3    H258410   1.879   4.105   5.212  0.0897 -1.2738  0.6296
12307TIP3   OH258411   6.006   3.997  15.848 -0.4051  1.1434 -0.1927
12307TIP3    H158412   6.012   4.091  15.831 -0.3540  1.0299 -0.8204
12307TIP3    H258413   5.923   3.971  15.807  0.2016  0.6796 -1.1577
12308TIP3   OH258414   4.548   5.518   2.124 -0.3079 -0.3303  0.1607
12308TIP3    H158415   4.622   5.539   2.066  0.4205 -1.8267  0.4940
12308TIP3    H258416   4.556   5.579   2.197  0.8227 -0.6800  0.3530
12309TIP3   OH258417   2.846   2.420   3.677 -0.2199 -0.3017 -0.5325
12309TIP3    H158418   2.924   2.379   3.715  0.3366  1.4592  0.3665
12309TIP3    H258419   2.880   2.472   3.604 -0.7669 -0.6723 -1.0541
12310TIP3   OH258420   5.593   6.487   5.259 -0.3784 -0.2120  0.1115
12310TIP3    H158421   5.655   6.447   5.199 -0.3691  1.9429 -1.4167
12310TIP3    H258422   5.507   6.469   5.221 -0.3657  1.2653 -0.7061
12311TIP3   OH258423   6.749   3.093   4.195 -0.0792 -0.2764 -0.1563
12311TIP3    H158424   6.717   3.010   4.231 -2.0531 -0.1351 -1.4214
12311TIP3    H258425   6.747   3.154   4.268  0.7513 -1.1585  0.6271
12312TIP3   OH258426   0.280   0.598  11.665  0.0932 -0.1321 -0.0603
12312TIP3    H158427   0.237   0.655  11.601  1.2081 -1.0319 -1.6779
12312TIP3    H258428   0.329   0.536  11.612  2.1368 -0.1050  1.6750
12313TIP3   OH258429   0.439   5.343   0.210 -0.3441  0.5113  0.6638
12313TIP3    H158430   0.400   5.310   0.291 -0.1299 -0.5149  0.3629
12313TIP3    H258431   0.365   5.373   0.158 -0.9321 -2.2181 -0.2719
12314TIP3   OH258432   0.021   2.479  10.269 -0.4664 -0.3481 -0.4583
12314TIP3    H158433   0.083   2.531  10.219  0.6433  0.0021  1.2243
12314TIP3    H258434  -0.006   2.536  10.341  0.6996 -1.9697  1.3649
12315TIP3   OH258435   2.870   1.247   1.652 -0.5779 -0.0167 -0.3167
12315TIP3    H158436   2.962   1.228   1.673 -0.5013 -0.3098 -0.8873
12315TIP3    H258437   2.820   1.182   1.701 -0.5455  0.7510  0.7611
12316TIP3   OH258438   1.269   5.857   4.821 -0.1549 -0.0651 -1.1055
12316TIP3    H158439   1.254   5.941   4.778  0.0112 -0.5142 -2.0626
12316TIP3    H258440   1.294   5.880   4.911 -2.3104  0.8349 -0.6811
12317TIP3   OH258441   5.085   0.294   5.963  0.1460 -0.2828  0.4259
12317TIP3    H158442   5.074   0.375   5.914  1.2356 -0.2563  0.1816
12317TIP3    H258443   5.171   0.304   6.005 -0.2534 -0.7994  1.3834
12318TIP3   OH258444   2.978   2.425  15.834  0.1884  0.4723  0.0436
12318TIP3    H158445   3.013   2.403  15.748 -0.2796  0.3107 -0.1021
12318TIP3    H258446   3.033   2.375  15.895 -0.2074 -0.2978 -0.2220
12319TIP3   OH258447   3.068   1.909   3.040 -0.3498 -0.6584 -0.3077
12319TIP3    H158448   3.041   1.923   3.130  0.6435 -2.6350  0.3451
12319TIP3    H258449   3.090   1.816   3.035  0.4727 -0.4141 -2.3525
12320TIP3   OH258450   2.579   2.356   2.426 -0.3422 -0.4799  0.2683
12320TIP3    H158451   2.670   2.342   2.402 -0.6393 -0.0583 -1.2494
12320TIP3    H258452   2.529   2.309   2.359 -1.2585  1.7375 -0.7128
12321TIP3   OH258453   2.314   0.402  15.692  0.4122  0.0206 -0.6457
12321TIP3    H158454   2.227   0.418  15.656  0.8246  2.5797 -0.6963
12321TIP3    H258455   2.340   0.318  15.656 -1.1188  0.2688 -2.4694
12322TIP3   OH258456   1.443   1.406  14.784  0.7942  0.1124  0.0158
12322TIP3    H158457   1.371   1.462  14.756 -0.2118 -0.7649  0.7400
12322TIP3    H258458   1.521   1.444  14.744 -0.3738 -0.4035 -2.9809
12323TIP3   OH258459   1.981   2.582  11.964 -0.9441  0.1826 -0.3915
12323TIP3    H158460   2.025   2.503  11.934 -0.7330  0.8732 -2.0527
12323TIP3    H258461   2.036   2.654  11.932 -2.5540  1.0383 -1.4154
12324TIP3   OH258462   2.386   0.679  13.309  0.3343 -0.0633  0.1416
12324TIP3    H158463   2.430   0.599  13.339  1.2829  0.0235 -0.9531
12324TIP3    H258464   2.299   0.649  13.282 -0.0579 -0.3641  1.6171
12325TIP3   OH258465   5.956   1.507   1.827 -0.4562 -0.4464  0.5385
12325TIP3    H158466   5.891   1.518   1.896  0.3186 -0.2240  1.2436
12325TIP3    H258467   6.037   1.483   1.873  0.6260  1.7453 -0.0777
12326TIP3   OH258468   0.964   3.040   4.610 -0.5396 -0.0828 -0.2609
12326TIP3    H158469   0.949   3.126   4.649  0.6020  0.1975 -0.4007
12326TIP3    H258470   0.971   2.981   4.685  0.8708  0.3271 -0.0362
12327TIP3   OH258471   0.811   5.371   5.697  0.0430 -0.9928 -1.0512
12327TIP3    H158472   0.888   5.376   5.753  0.5632  1.8841 -1.8379
12327TIP3    H258473   0.742   5.337   5.754  1.4150 -1.7185  0.2373
12328TIP3   OH258474   3.746   6.282  14.990  0.1397  1.0632 -0.1238
12328TIP3    H158475   3.666   6.332  15.004 -1.4491 -1.2286 -0.4461
12328TIP3    H258476   3.794   6.289  15.073 -0.6777  1.9621  0.2916
12329TIP3   OH258477   1.745   1.198  16.837  0.0101 -0.6777 -0.3186
12329TIP3    H158478   1.811   1.161  16.895  1.5681  0.3448 -1.3525
12329TIP3    H258479   1.663   1.154  16.861  0.6795 -0.6505  2.2598
12330TIP3   OH258480   2.375   2.205  14.761  0.2775 -0.3469  0.2377
12330TIP3    H158481   2.463   2.199  14.798  0.6928 -0.4786 -0.7453
12330TIP3    H258482   2.317   2.210  14.837  1.1681  0.2276  0.8970
12331TIP3   OH258483   4.022   3.047  11.651  0.3039 -0.0654  0.3261
12331TIP3    H158484   3.934   3.012  11.633  0.9620 -2.7424  1.8092
12331TIP3    H258485   4.006   3.126  11.704 -1.2029  0.0654 -0.2589
12332TIP3   OH258486   4.981   5.454  13.210  0.1088 -0.0939 -0.8546
12332TIP3    H158487   5.022   5.540  13.202 -1.3031  0.8357  1.1730
12332TIP3    H258488   4.914   5.465  13.277 -0.0801 -2.8048 -0.4790
12333TIP3   OH258489   0.632   1.012  16.202 -0.2115 -0.3260 -0.8511
12333TIP3    H158490   0.616   0.919  16.190  0.3624 -0.3083 -1.9121
12333TIP3    H258491   0.682   1.038  16.125  1.0431  0.5307  0.2042
12334TIP3   OH258492   0.546   1.626  14.287  0.2829  0.5319  0.2739
12334TIP3    H158493   0.539   1.656  14.377  1.7239 -1.3817  1.0934
12334TIP3    H258494   0.615   1.680  14.249  1.8020 -0.6247  1.2769
12335TIP3   OH258495   0.548   3.236  11.315 -0.3039  1.0615  0.4163
12335TIP3    H158496   0.531   3.317  11.364 -1.1877  1.0410  0.1604
12335TIP3    H258497   0.517   3.166  11.373 -0.2019  0.9538  0.3416
12336TIP3   OH258498   4.616   4.740  13.491 -0.0703 -0.1855 -0.6326
12336TIP3    H158499   4.658   4.671  13.440  0.7459  0.1310 -0.4057
12336TIP3    H258500   4.524   4.715  13.494  0.2538 -1.4155 -0.3030
12337TIP3   OH258501   5.321   2.073   6.035  0.1232  0.0831 -0.3487
12337TIP3    H158502   5.248   2.106   5.982  0.9247 -1.4444 -2.5417
12337TIP3    H258503   5.396   2.127   6.010  0.0097  1.0031  1.1708
12338TIP3   OH258504   4.701   4.111   0.447 -0.3885 -0.3445  0.5702
12338TIP3    H158505   4.623   4.089   0.395 -0.0404  0.5860 -0.3972
12338TIP3    H258506   4.772   4.115   0.383  0.2363 -0.0777  1.2662
12339TIP3   OH258507   1.765   0.731  11.264  0.3790  0.1940  0.2268
12339TIP3    H158508   1.833   0.785  11.304  1.2494 -0.6223 -0.1073
12339TIP3    H258509   1.684   0.776  11.285  0.8055 -0.0251  2.6381
12340TIP3   OH258510   4.858   5.508  11.029 -0.6831 -0.4937 -0.4944
12340TIP3    H158511   4.916   5.480  10.959 -0.1145 -1.6357  0.4131
12340TIP3    H258512   4.866   5.604  11.030  1.0263 -0.6099 -0.5325
12341TIP3   OH258513   2.646   4.307  15.756 -0.3798 -0.7469  0.2755
12341TIP3    H158514   2.603   4.391  15.772 -1.4196 -1.1502 -0.2833
12341TIP3    H258515   2.587   4.261  15.696  1.4991 -0.7588 -1.7275
12342TIP3   OH258516   5.727   3.198   5.385  0.2147 -0.5672 -0.0994
12342TIP3    H158517   5.779   3.159   5.314  1.2907 -0.5623  0.6633
12342TIP3    H258518   5.765   3.161   5.465 -0.9623 -0.5503  0.4790
12343TIP3   OH258519   5.790   3.708   2.511  0.3188  0.2268  0.3002
12343TIP3    H158520   5.852   3.779   2.524  0.4870  0.0154  0.6648
12343TIP3    H258521   5.765   3.681   2.600  0.5698 -0.4399  0.1734
12344TIP3   OH258522   6.589   3.102  10.981 -0.1238  0.3746 -0.4246
12344TIP3    H158523   6.557   3.047  11.053  1.9474  0.5764  0.7423
12344TIP3    H258524   6.665   3.055  10.947  1.5784  2.3231  0.4702
12345TIP3   OH258525   2.531   1.410  16.654 -0.1227  0.5187 -0.4327
12345TIP3    H158526   2.574   1.406  16.740  1.6765 -1.4726 -1.3085
12345TIP3    H258527   2.462   1.344  16.659  2.3777 -2.4205 -1.5588
12346TIP3   OH258528   4.430   3.479   5.051 -0.1837  0.2398 -0.0426
12346TIP3    H158529   4.430   3.399   5.103 -0.2918  0.2808  0.0222
12346TIP3    H258530   4.513   3.522   5.072  0.5094 -0.5135 -1.1050
12347TIP3   OH258531   1.822   3.493  12.123  0.0092  0.3703  0.1481
12347TIP3    H158532   1.769   3.562  12.083 -0.6037  0.3055  0.8206
12347TIP3    H258533   1.769   3.414  12.114  0.2895  0.1725  0.2269
12348TIP3   OH258534   1.561   5.089   4.024  0.1258  0.0324  0.6017
12348TIP3    H158535   1.653   5.067   4.009  0.2855  0.4702  0.9293
12348TIP3    H258536   1.544   5.059   4.113  0.1151  0.4785  0.7517
12349TIP3   OH258537   1.602   1.831  13.292 -0.1975 -0.0580 -0.1367
12349TIP3    H158538   1.519   1.878  13.289  0.8206  1.8280 -0.6471
12349TIP3    H258539   1.627   1.821  13.200  0.9803  1.0701  0.0268
12350TIP3   OH258540   3.214   4.001  11.219 -0.5155 -0.7105 -0.4841
12350TIP3    H158541   3.293   3.947  11.212 -0.6154 -0.7766 -1.2237
12350TIP3    H258542   3.204   4.040  11.132 -1.0349 -0.3299 -0.2604
12351TIP3   OH258543   1.343   5.787   4.091  0.3702 -0.1309  0.1629
12351TIP3    H158544   1.371   5.857   4.032 -0.0554 -0.5526 -0.5590
12351TIP3    H258545   1.300   5.832   4.164 -0.0645  0.3617 -0.3859
12352TIP3   OH258546   3.693   2.200  14.621  0.0176  0.2457  0.9894
12352TIP3    H158547   3.601   2.193  14.598  0.2874 -0.9134  0.1862
12352TIP3    H258548   3.693   2.243  14.707 -1.2741  0.0499  1.1047
12353TIP3   OH258549   4.984   0.418  12.178  0.2954  0.2394  0.0309
12353TIP3    H158550   5.046   0.345  12.183 -0.8834 -0.7341  0.9911
12353TIP3    H258551   4.898   0.376  12.173 -0.4347  1.5627  0.8800
12354TIP3   OH258552   0.090   5.593   4.583 -0.5826  0.4295  0.1193
12354TIP3    H158553   0.145   5.671   4.573 -2.8595  1.9626 -1.1174
12354TIP3    H258554   0.017   5.607   4.524 -1.4381 -2.3756  0.3705
12355TIP3   OH258555   6.407   6.220   2.396 -0.0316  1.0427 -0.1753
12355TIP3    H158556   6.378   6.297   2.445  1.8262  1.2519  0.7057
12355TIP3    H258557   6.495   6.244   2.365  0.0357 -0.2252 -1.0296
12356TIP3   OH258558   3.547   0.020   1.632 -0.1072  0.5704  0.3504
12356TIP3    H158559   3.531   0.027   1.538  0.5311 -0.6644  0.1282
12356TIP3    H258560   3.480  -0.040   1.664  0.9933 -0.7606  0.2651
12357TIP3   OH258561   5.857   3.652   0.040  0.2409  0.5889 -0.1094
12357TIP3    H158562   5.882   3.667  -0.051 -0.9685 -1.5170 -0.8698
12357TIP3    H258563   5.771   3.694   0.048  0.6379  1.3408  0.2726
12358TIP3   OH258564   3.124   2.974  14.155  0.0137  0.6361 -0.0720
12358TIP3    H158565   3.125   3.022  14.073  0.7917 -1.0248 -1.0929
12358TIP3    H258566   3.175   2.895  14.137  2.0342  1.1982  2.6310
12359TIP3   OH258567   4.224   0.518  17.120 -0.1489 -0.0012  0.8158
12359TIP3    H158568   4.252   0.465  17.195 -0.1261  0.4517  1.1314
12359TIP3    H258569   4.157   0.465  17.076 -0.9690  0.1881  1.7916
12360TIP3   OH258570   5.879   3.726  10.862 -0.1702  0.0616  0.0727
12360TIP3    H158571   5.861   3.632  10.860  0.8662 -0.1411 -1.5632
12360TIP3    H258572   5.863   3.755  10.772 -0.0313  1.3707  0.4569
12361TIP3   OH258573   6.409   0.489   0.457  0.2799 -0.2903  0.5846
12361TIP3    H158574   6.463   0.426   0.504  1.2694 -0.8928 -1.2728
12361TIP3    H258575   6.369   0.543   0.526  2.6631 -0.2734  2.0454
12362TIP3   OH258576   5.976   1.783  13.407 -0.3199 -0.5188 -0.8483
12362TIP3    H158577   5.923   1.814  13.481  1.4918  1.5591 -0.2834
12362TIP3    H258578   5.922   1.800  13.330 -1.9536 -2.0473 -0.1220
12363TIP3   OH258579   0.555   3.933   0.629  0.2059  0.0591  0.1046
12363TIP3    H158580   0.505   4.011   0.651 -0.3184 -0.4359  0.7298
12363TIP3    H258581   0.534   3.916   0.537  0.4967  0.7708 -0.0985
12364TIP3   OH258582   2.405   6.127   3.488 -0.6032  0.8556  0.2936
12364TIP3    H158583   2.381   6.119   3.396 -1.5238 -0.1762  0.6055
12364TIP3    H258584   2.488   6.081   3.495  0.2947  2.3025 -0.3042
12365TIP3   OH258585   6.785   6.780  14.114 -1.4931  0.4500  0.8612
12365TIP3    H158586   6.814   6.869  14.091 -2.8983  0.4889 -1.0021
12365TIP3    H258587   6.826   6.763  14.199 -1.7717  3.1392  1.6288
12366TIP3   OH258588   0.265   5.016  12.670  0.4511  0.3693  0.0006
12366TIP3    H158589   0.270   4.925  12.700  1.2156  0.3907 -0.0492
12366TIP3    H258590   0.173   5.041  12.683  0.4400 -0.1069  0.8829
12367TIP3   OH258591   6.203   1.758   2.465 -0.1851  0.1449  0.2169
12367TIP3    H158592   6.253   1.834   2.436 -0.8694  0.2777 -0.6615
12367TIP3    H258593   6.111   1.785   2.457 -0.4228 -0.0457  1.9139
12368TIP3   OH258594   2.047   4.101   0.888  0.6876  0.1132  0.6492
12368TIP3    H158595   1.953   4.114   0.872  0.8957  0.9793  0.0473
12368TIP3    H258596   2.064   4.012   0.857  0.4677  0.6879 -1.2680
12369TIP3   OH258597   2.387   3.027  13.549 -0.6728  0.0705  0.0401
12369TIP3    H158598   2.382   3.122  13.538 -2.1661 -0.0092 -0.1759
12369TIP3    H258599   2.408   2.994  13.462 -0.2738  0.1888  0.0890
12370TIP3   OH258600   5.689   0.826   1.553  0.4240  0.0824 -0.2037
12370TIP3    H158601   5.728   0.794   1.472  1.0427 -0.5743  0.3436
12370TIP3    H258602   5.761   0.828   1.616  0.1290  1.3279  0.1379
12371TIP3   OH258603   6.556   0.138   2.602 -0.0590  0.8088  0.1142
12371TIP3    H158604   6.604   0.060   2.630  0.5612  0.5544 -1.4946
12371TIP3    H258605   6.567   0.200   2.674 -0.9122 -0.6977  1.6148
12372TIP3   OH258606   4.793   3.842   0.065  0.0915 -0.2708  0.2248
12372TIP3    H158607   4.703   3.861   0.038  0.5193 -1.0305 -1.9454
12372TIP3    H258608   4.843   3.847  -0.016  1.6847 -1.8500  1.0553
12373TIP3   OH258609   0.684   5.733  13.288 -0.2827  0.1106  0.4762
12373TIP3    H158610   0.603   5.729  13.339 -0.0056  1.4104  1.0646
12373TIP3    H258611   0.715   5.643  13.285 -1.8304 -0.4353  0.0875
12374TIP3   OH258612   0.501   4.871   0.914 -0.0505 -0.0596  0.3270
12374TIP3    H158613   0.529   4.876   0.823 -3.6055 -0.4358 -0.9249
12374TIP3    H258614   0.523   4.957   0.951  2.0013 -0.1162 -0.6111
12375TIP3   OH258615   1.788   3.800  16.307 -0.2032 -0.4936  0.5138
12375TIP3    H158616   1.765   3.858  16.379  1.6075 -0.5266  1.1828
12375TIP3    H258617   1.718   3.736  16.304 -2.2810  1.6503 -0.2434
12376TIP3   OH258618   4.705   5.707  10.721  0.3374 -0.1394  0.1152
12376TIP3    H158619   4.612   5.688  10.733 -0.0602  1.9033  0.6148
12376TIP3    H258620   4.740   5.711  10.810  0.7235 -0.1224 -0.0382
12377TIP3   OH258621   5.590   5.007   0.319  0.3502  1.0244  0.7887
12377TIP3    H158622   5.663   5.069   0.324  0.5528  0.8723 -0.0872
12377TIP3    H258623   5.629   4.923   0.342  0.8479  0.6558 -1.2346
12378TIP3   OH258624   4.776   2.049  15.292 -0.0805 -0.1494 -0.0663
12378TIP3    H158625   4.783   2.142  15.273 -1.1014  0.2717  1.4389
12378TIP3    H258626   4.866   2.023  15.316 -0.5447  1.9597  5.4690
12379TIP3   OH258627   1.082   2.985  11.969 -0.2351 -0.0732  0.2239
12379TIP3    H158628   1.061   2.955  12.057  0.9279  1.7815  1.2013
12379TIP3    H258629   1.001   3.022  11.935 -0.0131  1.9247  1.7373
12380TIP3   OH258630   4.920   6.754  14.689  0.2242 -0.3179  0.1376
12380TIP3    H158631   4.933   6.680  14.629 -0.7950 -0.1614 -0.2911
12380TIP3    H258632   4.982   6.821  14.658  0.7336 -0.7699  0.1633
12381TIP3   OH258633   1.283   4.807   6.432  0.2153 -0.3528  0.2706
12381TIP3    H158634   1.293   4.892   6.474 -2.1665 -0.0818  0.4300
12381TIP3    H258635   1.281   4.827   6.338 -1.7629  0.0387  0.3365
12382TIP3   OH258636   1.710   5.305  16.863 -0.4085 -0.0261 -0.1412
12382TIP3    H158637   1.679   5.355  16.939 -1.6699  0.6091 -1.0337
12382TIP3    H258638   1.630   5.280  16.817  0.2386 -2.0373 -0.2758
12383TIP3   OH258639   2.207   2.924  15.099 -0.4032 -0.2413 -0.2056
12383TIP3    H158640   2.292   2.905  15.139  1.3198  1.6323 -2.6654
12383TIP3    H258641   2.180   2.842  15.058 -0.4078 -1.1673  1.5774
12384TIP3   OH258642   3.997   0.048   2.224 -0.2769 -0.2427 -0.1042
12384TIP3    H158643   3.937   0.007   2.287 -0.2270  0.4684  0.4208
12384TIP3    H258644   3.939   0.091   2.161 -0.3291  0.5559  0.4783
12385TIP3   OH258645   3.740   6.605  15.186  0.7305  0.2295  0.7221
12385TIP3    H158646   3.702   6.691  15.170 -1.5233 -0.8886 -0.5281
12385TIP3    H258647   3.685   6.568  15.256  3.4700  0.7875  3.3734
12386TIP3   OH258648   6.376   3.212   2.364  0.0166  0.2734 -0.0186
12386TIP3    H158649   6.301   3.241   2.416 -1.2806 -1.2121 -0.9951
12386TIP3    H258650   6.409   3.292   2.323 -1.9479  0.7713 -0.7252
12387TIP3   OH258651   2.003   3.780   5.180  0.0139  0.2846 -0.3318
12387TIP3    H158652   2.001   3.874   5.194  2.0134  0.6136 -1.6770
12387TIP3    H258653   2.078   3.750   5.232 -1.8214 -0.9512  1.7305
12388TIP3   OH258654   0.437   4.639  14.193  0.1140 -0.1224 -0.0999
12388TIP3    H158655   0.476   4.561  14.153  0.2027 -0.4827  0.6572
12388TIP3    H258656   0.343   4.626  14.185  0.1362  0.0284 -0.6007
12389TIP3   OH258657   2.605   6.446  13.270  0.2408 -0.5497 -1.0345
12389TIP3    H158658   2.653   6.390  13.332  0.9680  2.2059  1.1137
12389TIP3    H258659   2.670   6.509  13.241 -1.0070  0.4261 -1.7793
12390TIP3   OH258660   3.927   1.894  11.707 -0.2545 -0.1303  0.3508
12390TIP3    H158661   4.011   1.939  11.705  1.4783 -3.1544 -0.1231
12390TIP3    H258662   3.885   1.917  11.624  0.1087  1.3120  0.5449
12391TIP3   OH258663   3.409   0.450  13.329  0.2109  0.0255 -0.1557
12391TIP3    H158664   3.502   0.430  13.326 -0.2008 -2.0232 -3.1592
12391TIP3    H258665   3.377   0.406  13.407  1.6642  0.5574  0.7817
12392TIP3   OH258666   5.395   2.307   2.705  0.5805  0.3026 -1.1381
12392TIP3    H158667   5.459   2.377   2.714  0.6373  0.2548 -1.1685
12392TIP3    H258668   5.413   2.248   2.779 -0.8436  1.4079  0.1684
12393TIP3   OH258669   1.988   1.435  11.640  0.4500  0.2400 -0.0547
12393TIP3    H158670   1.894   1.420  11.631  0.7396 -1.1128 -1.2468
12393TIP3    H258671   2.002   1.524  11.610 -0.4862  0.5853  0.4929
12394TIP3   OH258672   4.535   6.373  15.971 -0.1115  0.2617 -0.1822
12394TIP3    H158673   4.590   6.443  16.006  0.5676  0.3831 -1.4133
12394TIP3    H258674   4.553   6.374  15.877 -3.2720  1.2254 -0.8945
12395TIP3   OH258675   4.169   0.275   2.508  0.1344  0.3853 -0.2703
12395TIP3    H158676   4.175   0.183   2.479 -0.7817  0.5268 -0.9822
12395TIP3    H258677   4.095   0.276   2.569  0.7021  0.4952  0.4231
12396TIP3   OH258678   1.948   0.475   4.173  0.0535 -0.1657 -0.2589
12396TIP3    H158679   1.885   0.448   4.239  0.3052  1.2232  0.6032
12396TIP3    H258680   1.906   0.455   4.089 -0.8164 -0.7796  0.3084
12397TIP3   OH258681   4.601   4.466  16.249 -0.2860 -0.7336  0.2991
12397TIP3    H158682   4.515   4.428  16.261 -1.2244  1.2377  0.2058
12397TIP3    H258683   4.646   4.452  16.332 -1.3003 -0.3677  0.9281
12398TIP3   OH258684   3.325   5.230   4.924 -0.1191 -0.1683 -0.0141
12398TIP3    H158685   3.259   5.281   4.877  0.4917 -1.0047 -1.8529
12398TIP3    H258686   3.291   5.141   4.924 -0.1444 -0.1862  1.2717
12399TIP3   OH258687   5.488   4.282  10.497 -0.3968  0.4241 -0.0290
12399TIP3    H158688   5.481   4.193  10.530 -2.0863  0.2140 -0.8370
12399TIP3    H258689   5.569   4.283  10.446 -0.2747 -0.5940  0.1262
12400TIP3   OH258690   6.367   4.887  12.138  0.3181 -0.4200 -0.3958
12400TIP3    H158691   6.391   4.957  12.198  0.9347  0.5340 -1.7046
12400TIP3    H258692   6.380   4.806  12.188  0.0291  0.3619  0.9873
12401TIP3   OH258693   5.188   0.501   0.961  0.0119  0.7775 -0.3783
12401TIP3    H158694   5.266   0.509   1.016  0.0662 -2.7230  0.2637
12401TIP3    H258695   5.221   0.505   0.871  0.1362  4.7343 -0.3078
12402TIP3   OH258696   2.266   6.013   2.009  0.7245 -0.3008  0.4568
12402TIP3    H158697   2.316   6.085   2.047  0.7150 -0.1524  0.1899
12402TIP3    H258698   2.316   5.988   1.932  0.4470 -0.2307  0.2536
12403TIP3   OH258699   4.325   6.818  14.641  0.4416 -0.4245 -0.2941
12403TIP3    H158700   4.293   6.774  14.720  0.9719  0.5297  0.4756
12403TIP3    H258701   4.416   6.788  14.632  1.1010  1.1745  0.7579
12404TIP3   OH258702   1.988   1.085  13.535  0.2684  0.4191  0.5240
12404TIP3    H158703   2.020   1.086  13.444  0.7470  2.4787  0.6697
12404TIP3    H258704   1.894   1.099  13.527  0.2865  0.4372  0.3281
12405TIP3   OH258705   5.769   4.846   3.082 -0.5020  0.4174  0.2482
12405TIP3    H158706   5.824   4.889   3.016 -0.1952  0.1826  0.3456
12405TIP3    H258707   5.828   4.784   3.125 -0.8551  0.1423  0.3375
12406TIP3   OH258708   6.221   1.405  14.018 -0.7395  0.2952 -0.2511
12406TIP3    H158709   6.265   1.472  14.070  0.4993 -0.3842 -0.3869
12406TIP3    H258710   6.162   1.455  13.961 -2.7570  0.9984  2.3048
12407TIP3   OH258711   0.673   1.559  13.932 -0.2020  0.2006 -0.5133
12407TIP3    H158712   0.681   1.646  13.972 -2.2849  0.4892 -0.6070
12407TIP3    H258713   0.744   1.555  13.868  0.2483  1.6163 -0.1418
12408TIP3   OH258714   4.444   1.237  13.626  0.1492 -0.6352 -0.1802
12408TIP3    H158715   4.459   1.332  13.633 -1.5988 -0.3743  0.4341
12408TIP3    H258716   4.463   1.203  13.713 -0.1377 -0.6996 -0.1405
12409TIP3   OH258717   3.833   5.568  15.226  0.8176 -0.1506 -0.0528
12409TIP3    H158718   3.908   5.623  15.250  0.0964  0.4070  0.9957
12409TIP3    H258719   3.825   5.507  15.300  0.4985 -0.4821 -0.3642
12410TIP3   OH258720   4.907   3.929  15.388  0.7266  0.4528 -0.3714
12410TIP3    H158721   4.935   3.974  15.308 -0.6739  0.2240 -1.0156
12410TIP3    H258722   4.951   3.976  15.458  1.3607  1.1621 -1.2188
12411TIP3   OH258723   5.746   6.689  16.368  1.2107 -0.1786 -0.3180
12411TIP3    H158724   5.822   6.632  16.376 -0.7341 -2.9552 -0.2989
12411TIP3    H258725   5.696   6.652  16.296 -1.3809 -0.0304  1.2846
12412TIP3   OH258726   4.639   2.352   6.504  0.5970 -0.3825 -0.1900
12412TIP3    H158727   4.680   2.363   6.418 -0.9539  1.7454 -0.7278
12412TIP3    H258728   4.583   2.275   6.493  0.5516 -0.2456 -1.0566
12413TIP3   OH258729   4.158   0.472  16.741 -0.3674 -0.4023  0.1506
12413TIP3    H158730   4.121   0.431  16.819 -0.2775  2.0415  1.5823
12413TIP3    H258731   4.083   0.491  16.685 -0.3899 -2.5897 -0.6404
12414TIP3   OH258732   5.686   5.155   6.397  0.2758 -0.0769 -0.0527
12414TIP3    H158733   5.650   5.172   6.484  1.3908  2.0238  0.0671
12414TIP3    H258734   5.730   5.236   6.373  2.9408 -1.6947 -1.1449
12415TIP3   OH258735   4.303   5.658  11.518 -0.7335 -0.0390  0.2441
12415TIP3    H158736   4.226   5.600  11.520 -1.4231  0.8574  0.8076
12415TIP3    H258737   4.284   5.724  11.585 -0.4301  1.3908 -1.0119
12416TIP3   OH258738   0.007   6.731  16.333  0.1685  0.0324 -0.4569
12416TIP3    H158739   0.043   6.778  16.408  0.7173 -1.3422  0.1847
12416TIP3    H258740   0.062   6.759  16.259  2.1266 -1.4263  0.3642
12417TIP3   OH258741   5.120   3.273   0.712 -0.1150  0.2590  0.3697
12417TIP3    H158742   5.085   3.358   0.687 -1.2299 -0.6315 -1.2340
12417TIP3    H258743   5.209   3.292   0.742  0.3572  1.7862 -1.7623
12418TIP3   OH258744   3.647   1.050   0.356 -0.6426 -0.0679  0.1751
12418TIP3    H158745   3.687   1.042   0.270 -1.4204 -0.6979 -0.1480
12418TIP3    H258746   3.716   1.027   0.417 -0.2258 -0.1146 -0.3082
12419TIP3   OH258747   0.711   4.142  14.318 -0.2977  0.0993 -0.3546
12419TIP3    H158748   0.772   4.086  14.271  0.7023 -0.0328  1.0154
12419TIP3    H258749   0.753   4.157  14.403 -2.0736  0.1808  0.5655
12420TIP3   OH258750   5.061   3.219  14.784  0.1300 -0.5745 -0.8613
12420TIP3    H158751   4.999   3.273  14.833 -0.7352 -0.1280 -2.3838
12420TIP3    H258752   5.029   3.221  14.694  0.8911 -2.4981 -1.2203
12421TIP3   OH258753   1.133   1.521   2.357 -0.0517  0.0667  0.7312
12421TIP3    H158754   1.050   1.474   2.363 -0.5612  0.9031  0.4111
12421TIP3    H258755   1.130   1.564   2.271  0.2938  0.8901  1.1244
12422TIP3   OH258756   2.585   3.727  13.646 -0.1968  0.7119  0.3330
12422TIP3    H158757   2.509   3.724  13.588 -0.2474  3.1265  0.1409
12422TIP3    H258758   2.657   3.754  13.588  0.1526  1.3271  1.0413
12423TIP3   OH258759   4.504   5.383   2.881  0.1856  0.2075 -0.1789
12423TIP3    H158760   4.564   5.455   2.900  0.2021  0.0490  0.3696
12423TIP3    H258761   4.444   5.381   2.955  0.0687 -0.2219 -0.2820
12424TIP3   OH258762   1.377   0.831   0.326 -0.4550 -0.1686  0.3697
12424TIP3    H158763   1.331   0.811   0.407 -0.7044  0.0149  0.2769
12424TIP3    H258764   1.461   0.866   0.354  0.2680 -1.9808  0.5163
12425TIP3   OH258765   4.282   5.496   6.345  0.2462 -0.4178  0.1775
12425TIP3    H158766   4.264   5.523   6.435  1.8711  0.3711  0.3064
12425TIP3    H258767   4.203   5.519   6.296 -0.8254 -1.2561  1.4521
12426TIP3   OH258768   5.544   3.026   3.403 -0.4201  0.0191  0.5441
12426TIP3    H158769   5.569   3.071   3.322  0.9439  0.5641  1.2386
12426TIP3    H258770   5.520   3.097   3.463 -0.9562 -0.3530  0.7714
12427TIP3   OH258771   0.585   2.361  16.226  0.1083  0.3454  0.4150
12427TIP3    H158772   0.509   2.338  16.173  0.3876  1.0000 -0.2840
12427TIP3    H258773   0.660   2.325  16.177  0.3787  1.0627  0.2900
12428TIP3   OH258774   2.308   1.550   1.173  0.1278 -0.4967 -0.0404
12428TIP3    H158775   2.355   1.631   1.191  1.0060 -0.9293 -0.3769
12428TIP3    H258776   2.290   1.513   1.260 -1.6668  0.8011  0.2157
12429TIP3   OH258777   2.220   0.388   1.172 -0.0111  0.0084 -0.3520
12429TIP3    H158778   2.311   0.417   1.178  0.3177 -0.6153 -1.9049
12429TIP3    H258779   2.169   0.468   1.186  0.8469  1.0287 -2.4825
12430TIP3   OH258780   3.585   4.461   1.573  0.0791 -0.3645 -0.5455
12430TIP3    H158781   3.642   4.536   1.588 -0.3365  0.2264 -1.8411
12430TIP3    H258782   3.560   4.432   1.661 -0.2373  1.3737 -0.0363
12431TIP3   OH258783   6.383   3.228   3.962 -0.3460 -0.3035  0.2043
12431TIP3    H158784   6.305   3.208   4.015  0.9485  1.6324  3.1583
12431TIP3    H258785   6.437   3.149   3.967 -0.9296 -0.6904  0.5013
12432TIP3   OH258786   2.155   1.194   2.546 -0.0549  0.1412 -0.3921
12432TIP3    H158787   2.151   1.098   2.550 -0.4957  0.1034 -1.3015
12432TIP3    H258788   2.248   1.214   2.550 -0.0063 -0.2542  0.8715
12433TIP3   OH258789   5.768   0.366  11.047 -0.0543  0.0681  0.0550
12433TIP3    H158790   5.718   0.284  11.039 -0.1062  0.1113 -0.0726
12433TIP3    H258791   5.824   0.367  10.969  0.4691 -0.1955  0.4221
12434TIP3   OH258792   2.197   2.386   1.602 -0.3860  0.0604  0.0254
12434TIP3    H158793   2.203   2.462   1.659 -0.4903  0.2739 -0.2520
12434TIP3    H258794   2.111   2.392   1.561 -0.4336 -0.2564  0.0732
12435TIP3   OH258795   2.344   2.903  16.552 -0.2117 -0.0790  0.1555
12435TIP3    H158796   2.422   2.952  16.526 -0.4396 -0.0013 -0.4049
12435TIP3    H258797   2.273   2.943  16.501 -0.6977  0.1512  0.9904
12436TIP3   OH258798   4.710   6.550   5.155  0.7267 -0.6974 -0.1741
12436TIP3    H158799   4.689   6.458   5.172  0.5713 -0.6496 -0.1090
12436TIP3    H258800   4.785   6.569   5.212 -0.3142 -0.2979  1.0913
12437TIP3   OH258801   0.783   5.237  15.652 -1.0210  0.0939  0.0709
12437TIP3    H158802   0.859   5.249  15.595 -0.6779  0.2349  0.5518
12437TIP3    H258803   0.716   5.294  15.615 -0.5200  0.8510  0.3054
12438TIP3   OH258804   2.470   4.067   3.954 -0.4047  0.1482  0.0670
12438TIP3    H158805   2.397   4.020   3.994  0.1892 -2.3293 -1.5430
12438TIP3    H258806   2.541   4.061   4.018 -1.2916  1.8352  1.2777
12439TIP3   OH258807   3.742   1.804  11.916 -0.3972 -0.5368  0.1634
12439TIP3    H158808   3.797   1.847  11.852 -1.8791  0.2176 -0.6471
12439TIP3    H258809   3.803   1.771  11.983  0.7932  4.0328  1.6568
12440TIP3   OH258810   5.531   1.629   3.431 -0.3490 -0.0443  0.4104
12440TIP3    H158811   5.619   1.611   3.396 -0.3216 -0.3228  0.6170
12440TIP3    H258812   5.547   1.689   3.505 -0.3175 -0.2196  0.5464
12441TIP3   OH258813   1.096   6.782  15.443 -0.2251  0.2468  0.4364
12441TIP3    H158814   1.124   6.725  15.514 -2.1413 -0.4586  0.6840
12441TIP3    H258815   1.058   6.858  15.486 -1.2890 -0.1285  0.1939
12442TIP3   OH258816   2.516   2.309   6.652  0.0782  0.3529  0.0895
12442TIP3    H158817   2.552   2.262   6.576 -1.1253 -0.8377  0.2269
12442TIP3    H258818   2.463   2.379   6.613  0.3837  0.4564 -0.1481
12443TIP3   OH258819   2.114   5.330  13.612 -0.1566 -0.1635 -0.2678
12443TIP3    H158820   2.119   5.419  13.575 -2.8353  0.0174 -0.3879
12443TIP3    H258821   2.069   5.279  13.544  1.3780 -1.6539 -0.2094
12444TIP3   OH258822   5.171   0.772  17.122  0.2388 -0.6627  0.3012
12444TIP3    H158823   5.205   0.858  17.147 -0.9784 -0.5135  1.5306
12444TIP3    H258824   5.221   0.710  17.176  0.4074 -0.6702  0.1419
12445TIP3   OH258825   2.520   5.889   0.742 -0.4562 -0.0923  0.2693
12445TIP3    H158826   2.442   5.943   0.731  0.9065  2.0416  0.4060
12445TIP3    H258827   2.512   5.851   0.829 -1.5670 -0.3299  0.0717
12446TIP3   OH258828   1.506   4.633   4.786  0.1240  0.0927 -0.0808
12446TIP3    H158829   1.464   4.630   4.700  0.7039 -0.5154 -0.3553
12446TIP3    H258830   1.593   4.670   4.769  0.5160 -0.7173  0.1165
12447TIP3   OH258831   6.546   4.325   2.464  0.3818  0.8968  0.2703
12447TIP3    H158832   6.601   4.259   2.506 -0.5764  0.5440  1.0273
12447TIP3    H258833   6.594   4.407   2.474  2.0492  0.1993 -1.5417
12448TIP3   OH258834   4.793   4.185   2.791 -0.3573 -0.0332 -0.4484
12448TIP3    H158835   4.809   4.202   2.884  0.3463  0.2650 -0.6185
12448TIP3    H258836   4.878   4.196   2.750 -0.6808 -0.0868 -1.1428
12449TIP3   OH258837   6.562   3.757   4.260  0.3719 -0.1906 -0.3733
12449TIP3    H158838   6.583   3.683   4.317  1.4931 -0.4368 -1.0764
12449TIP3    H258839   6.466   3.754   4.251  0.0870  0.2044  1.9191
12450TIP3   OH258840   4.972   0.642   5.385  0.0991 -0.2320  0.4334
12450TIP3    H158841   4.946   0.729   5.353  1.8338 -0.1156 -0.8263
12450TIP3    H258842   5.000   0.658   5.476  1.3342  0.7822 -0.0746
12451TIP3   OH258843   4.374   4.537  13.505 -0.3948 -1.1599 -0.0701
12451TIP3    H158844   4.355   4.624  13.470  1.6786  0.1487  1.8180
12451TIP3    H258845   4.291   4.489  13.497 -1.3872  0.6965 -1.8296
12452TIP3   OH258846   3.735   5.265  12.524 -0.0752 -0.0345  0.2989
12452TIP3    H158847   3.795   5.314  12.579  1.1650 -1.5395  0.3446
12452TIP3    H258848   3.791   5.217  12.463 -1.3056 -0.3200 -0.6643
12453TIP3   OH258849   3.632   0.881  15.171 -0.1491 -0.5494 -0.3406
12453TIP3    H158850   3.714   0.833  15.164 -0.5777 -1.3652  0.0358
12453TIP3    H258851   3.598   0.885  15.082  1.0978  1.2945 -0.7981
12454TIP3   OH258852   5.645   5.322   1.762  0.1018 -0.2557  0.4074
12454TIP3    H158853   5.709   5.338   1.692 -0.0245 -1.9495 -0.1373
12454TIP3    H258854   5.576   5.386   1.745  0.4424 -0.1195 -0.5630
12455TIP3   OH258855   2.603   1.135  16.088  0.0229 -0.0577 -0.2522
12455TIP3    H158856   2.513   1.128  16.120 -0.9557  1.1759 -2.4915
12455TIP3    H258857   2.638   1.046  16.095 -1.3407 -0.5598  0.6702
12456TIP3   OH258858   3.024   0.856   6.201 -0.2538  0.6431  0.6481
12456TIP3    H158859   2.966   0.903   6.142  2.6513  2.4731 -0.9980
12456TIP3    H258860   3.024   0.766   6.168 -0.1780  1.2060 -0.9736
12457TIP3   OH258861   5.465   5.949   5.533 -0.2801  0.2950 -0.1680
12457TIP3    H158862   5.479   6.039   5.503  1.5896  0.1144  0.0506
12457TIP3    H258863   5.454   5.958   5.628  2.2753  0.1445  0.2113
12458TIP3   OH258864   5.069   5.598   3.442  0.3655  0.2707 -0.0017
12458TIP3    H158865   4.986   5.644   3.428 -1.8953 -3.7590 -1.4845
12458TIP3    H258866   5.065   5.570   3.534 -0.5774 -0.8548 -0.3502
12459TIP3   OH258867   4.513   2.754  16.543 -0.4902  0.0885  0.1535
12459TIP3    H158868   4.480   2.665  16.529  1.7107 -0.9855  1.3106
12459TIP3    H258869   4.545   2.754  16.632 -0.1324  1.9846  0.0687
12460TIP3   OH258870   5.688   3.660  12.384  0.2485  0.1549  0.1770
12460TIP3    H158871   5.601   3.620  12.381 -0.8742  2.4301  0.0530
12460TIP3    H258872   5.696   3.705  12.300  0.8484  1.3013  0.8237
12461TIP3   OH258873   6.646   5.879   2.586  0.0859  0.1957  0.8010
12461TIP3    H158874   6.635   5.899   2.679 -0.2968 -2.4298  1.3758
12461TIP3    H258875   6.707   5.806   2.583  2.9846  2.4123 -1.2989
12462TIP3   OH258876   4.220   3.540   5.456 -0.2170 -0.2969  0.4438
12462TIP3    H158877   4.127   3.543   5.480 -0.4568  0.3456 -0.5433
12462TIP3    H258878   4.223   3.565   5.364  1.1066  1.5910  0.9201
12463TIP3   OH258879   4.221   1.763  10.922  0.1369  0.4904 -0.1099
12463TIP3    H158880   4.251   1.832  10.981 -2.0066  1.4628 -0.0908
12463TIP3    H258881   4.297   1.706  10.912  1.2711  1.5867  1.7059
12464TIP3   OH258882   4.890   2.576   0.238 -0.1816 -0.2236  0.0582
12464TIP3    H158883   4.931   2.564   0.323 -1.3414 -0.7252  0.5584
12464TIP3    H258884   4.856   2.665   0.240  3.1312  1.2552 -1.3808
12465TIP3   OH258885   3.464   1.218  13.240 -0.1873  0.0309  0.7574
12465TIP3    H158886   3.385   1.165  13.227  2.3566 -3.7727 -1.3335
12465TIP3    H258887   3.526   1.158  13.280  2.0508  2.4891  1.2129
12466TIP3   OH258888   2.195   1.184  12.698  1.0501 -0.1487  0.0226
12466TIP3    H158889   2.185   1.178  12.793  2.3290  1.3488  0.2820
12466TIP3    H258890   2.220   1.096  12.671  2.4634 -0.1913  1.3324
12467TIP3   OH258891   5.075   5.591   4.624  0.4238  0.0999  0.1348
12467TIP3    H158892   5.100   5.540   4.547 -0.0260  0.5876 -0.3442
12467TIP3    H258893   5.084   5.682   4.597 -1.5821  0.2999  0.0114
12468TIP3   OH258894   0.838   6.728  15.607 -0.1532  0.3163 -0.4520
12468TIP3    H158895   0.900   6.655  15.608 -1.3923 -0.7911  1.7266
12468TIP3    H258896   0.876   6.791  15.669 -1.0489 -0.2924  0.7595
12469TIP3   OH258897   1.674   5.086   6.037 -0.2851 -0.9330 -0.3357
12469TIP3    H158898   1.627   5.040   6.106  0.9517 -2.7473 -0.6351
12469TIP3    H258899   1.624   5.167   6.024 -1.0062 -0.9067  2.0828
12470TIP3   OH258900   5.567   3.548   5.470  0.2491 -0.1952 -0.3723
12470TIP3    H158901   5.603   3.552   5.381  2.3291  0.0173  0.4081
12470TIP3    H258902   5.577   3.637   5.504  3.5688 -1.0860  1.4615
12471TIP3   OH258903   2.924   4.430  15.083 -0.0038 -0.3083 -0.3002
12471TIP3    H158904   2.952   4.514  15.049 -1.3142  0.9590  1.5147
12471TIP3    H258905   3.004   4.387  15.112  0.6302  0.5729 -0.7214
12472TIP3   OH258906   0.152   1.992  12.632 -0.7585 -0.3937  0.3439
12472TIP3    H158907   0.218   1.943  12.583 -0.8584  0.2984 -0.5070
12472TIP3    H258908   0.189   2.080  12.641 -0.8948 -0.4172  1.2199
12473TIP3   OH258909   4.559   0.203   2.438  0.3130  0.2578 -0.0816
12473TIP3    H158910   4.582   0.139   2.371 -0.4589 -0.2529  0.1298
12473TIP3    H258911   4.544   0.151   2.517  0.2052  0.7540  0.2295
12474TIP3   OH258912   3.195   4.397  15.668  0.5433  0.1626 -0.2824
12474TIP3    H158913   3.102   4.384  15.649  0.9799 -0.6910 -2.0838
12474TIP3    H258914   3.199   4.409  15.763 -1.2895 -0.7501 -0.0430
12475TIP3   OH258915   3.032   1.312   6.014 -0.1528  0.2254  0.3596
12475TIP3    H158916   2.948   1.267   6.027  0.3740 -1.5322 -1.7087
12475TIP3    H258917   3.018   1.399   6.050 -2.4469 -0.4146  1.2310
12476TIP3   OH258918   1.943   1.203   4.035  0.4305 -0.3208 -0.8484
12476TIP3    H158919   2.005   1.254   3.984  2.8298 -1.5956  0.6098
12476TIP3    H258920   1.990   1.179   4.115 -1.5983 -2.1978 -0.0780
12477TIP3   OH258921   1.548   3.498   2.437 -0.2120  0.0916  0.2648
12477TIP3    H158922   1.571   3.575   2.489 -0.6640  1.5079 -1.5350
12477TIP3    H258923   1.595   3.510   2.355  0.8207 -2.3077  0.4501
12478TIP3   OH258924   6.384   5.025   4.775 -0.0433 -0.2287 -0.0429
12478TIP3    H158925   6.433   5.091   4.725  0.8895 -0.3142  0.7336
12478TIP3    H258926   6.428   4.943   4.756 -0.4354 -0.4465 -0.0241
12479TIP3   OH258927   2.499   2.295   3.318 -0.5386  0.3373 -0.5237
12479TIP3    H158928   2.533   2.371   3.365 -2.2530  0.4647  0.5900
12479TIP3    H258929   2.450   2.332   3.245  0.4184  0.1952 -1.2676
12480TIP3   OH258930   3.144   5.320   4.758 -0.4873 -0.4682 -0.0723
12480TIP3    H158931   3.064   5.295   4.804 -0.0908 -1.7338 -0.0467
12480TIP3    H258932   3.125   5.302   4.666 -1.3739  2.3030 -0.5424
12481TIP3   OH258933   5.883   2.240   5.716 -0.9685  0.2602 -0.2139
12481TIP3    H158934   5.874   2.330   5.686 -0.5576 -0.1941 -1.7571
12481TIP3    H258935   5.971   2.236   5.753 -0.5277  0.1933 -1.2522
12482TIP3   OH258936   0.788   6.112   5.158 -0.1876  0.3541 -0.0937
12482TIP3    H158937   0.722   6.148   5.099 -0.2816  1.3543  0.5949
12482TIP3    H258938   0.844   6.058   5.102  0.1464  1.8349 -1.2297
12483TIP3   OH258939   4.581   1.484  13.731  0.3553 -0.1548 -0.3802
12483TIP3    H158940   4.660   1.438  13.757 -0.2317  0.6783  3.4886
12483TIP3    H258941   4.560   1.540  13.806 -0.6669  4.1923 -3.4740
12484TIP3   OH258942   1.520   2.250  16.301 -0.1729 -0.6346  0.5180
12484TIP3    H158943   1.484   2.184  16.361  0.2346 -0.4551  0.9601
12484TIP3    H258944   1.474   2.233  16.219 -0.0290 -1.5212  0.6008
12485TIP3   OH258945   1.089   0.767   0.239  0.1565  0.0617 -0.6957
12485TIP3    H158946   1.133   0.812   0.168  1.2869  0.2292  0.0802
12485TIP3    H258947   1.140   0.687   0.252  0.6143  0.5438  0.6103
12486TIP3   OH258948   0.659   5.719   4.320 -0.6194 -0.2630 -0.3917
12486TIP3    H158949   0.707   5.797   4.346 -1.9039  0.0975  1.0156
12486TIP3    H258950   0.588   5.712   4.383  0.0766 -3.2142  0.2310
12487TIP3   OH258951   3.486   6.179   1.319  0.3502  0.5574  0.6615
12487TIP3    H158952   3.520   6.264   1.289  1.2747 -0.4777 -1.3874
12487TIP3    H258953   3.557   6.117   1.302 -1.0337 -0.9744  0.1504
12488TIP3   OH258954   1.378   3.669  11.291 -0.0748  0.3078  0.3861
12488TIP3    H158955   1.308   3.642  11.350  0.2202 -0.4933  0.3820
12488TIP3    H258956   1.459   3.644  11.336  0.1333 -1.2339 -0.7639
12489TIP3   OH258957   0.951   2.690  12.452 -0.0001 -0.3504 -0.0421
12489TIP3    H158958   0.952   2.594  12.444  1.2402 -0.6397  2.6097
12489TIP3    H258959   0.860   2.712  12.466 -0.4270 -1.0074 -1.5217
12490TIP3   OH258960   0.114   0.132  14.578 -0.5429  0.3280 -0.5812
12490TIP3    H158961   0.051   0.103  14.644 -0.3087 -1.6924 -1.1667
12490TIP3    H258962   0.068   0.199  14.528 -1.8993 -0.4260 -0.3844
12491TIP3   OH258963   0.900   1.679  16.367 -0.3662  0.2166 -0.0408
12491TIP3    H158964   0.837   1.669  16.295  0.4865 -0.1969 -0.7431
12491TIP3    H258965   0.901   1.774  16.383 -1.0206  0.2512 -0.1531
12492TIP3   OH258966   6.123   6.280   5.766  0.2018  0.0800  0.3465
12492TIP3    H158967   6.166   6.257   5.848  0.3540  0.4972  0.3868
12492TIP3    H258968   6.195   6.294   5.704  0.1189  0.5242  0.3458
12493TIP3   OH258969   3.855   5.464   0.889 -0.0744 -0.3990  0.3187
12493TIP3    H158970   3.920   5.465   0.960 -0.2855 -1.7043  0.5585
12493TIP3    H258971   3.892   5.521   0.822  1.3869 -1.1650  0.4257
12494TIP3   OH258972   6.433   2.415   3.075 -0.1180 -0.1672  0.9166
12494TIP3    H158973   6.450   2.433   3.167  0.7784 -0.5532  0.8382
12494TIP3    H258974   6.408   2.499   3.038  1.1350  0.3439  1.1727
12495TIP3   OH258975   3.578   3.956  16.321  0.1646 -0.4430  0.0160
12495TIP3    H158976   3.502   3.995  16.278  0.6283 -0.1051 -0.5118
12495TIP3    H258977   3.598   4.016  16.393  1.0995  0.5203 -1.0165
12496TIP3   OH258978   3.302   6.153  11.457  0.2379 -0.4925  0.3577
12496TIP3    H158979   3.295   6.098  11.535  1.8611 -0.5551  0.4837
12496TIP3    H258980   3.238   6.223  11.472  0.2893 -0.6866  1.5856
12497TIP3   OH258981   4.182   5.747  13.900  0.0486 -0.1429 -0.1442
12497TIP3    H158982   4.116   5.681  13.921 -0.0912 -0.0425 -0.2663
12497TIP3    H258983   4.152   5.786  13.818  1.4580 -1.7192 -1.4885
12498TIP3   OH258984   5.121   4.933   2.869 -0.5048 -0.3928 -0.3035
12498TIP3    H158985   5.060   4.966   2.935 -1.2141 -1.3194 -0.4583
12498TIP3    H258986   5.100   4.983   2.790  0.6130  0.9943  0.2445
12499TIP3   OH258987   6.479   1.397  13.489 -0.5698  0.1670 -0.1914
12499TIP3    H158988   6.487   1.351  13.406 -0.6649  3.0390 -1.9133
12499TIP3    H258989   6.559   1.376  13.537 -0.3544 -1.2539 -1.1201
12500TIP3   OH258990   5.751   2.437  15.897  1.2569  0.3284  0.4987
12500TIP3    H158991   5.679   2.451  15.959  0.8760 -1.5737  0.5399
12500TIP3    H258992   5.759   2.342  15.891  1.5035  0.4599 -2.1395
12501TIP3   OH258993   5.252   3.013   2.030  0.4386 -0.3147 -0.2497
12501TIP3    H158994   5.207   3.085   1.985  0.4720  0.6049  1.1182
12501TIP3    H258995   5.187   2.944   2.036 -0.2215  0.3131  0.0630
12502TIP3   OH258996   0.997   5.272  15.000 -0.2579  0.4079 -0.5815
12502TIP3    H158997   1.053   5.305  14.930 -0.0534 -0.8350 -1.0108
12502TIP3    H258998   1.054   5.217  15.053 -0.7591  0.2038 -0.2492
12503TIP3   OH258999   1.673   4.347   5.771  0.2534  0.0662  0.6974
12503TIP3    H159000   1.752   4.298   5.747 -0.1202  0.0601 -0.5808
12503TIP3    H259001   1.622   4.285   5.823 -0.9454 -1.5761 -2.2015
12504TIP3   OH259002   2.742   0.086  14.416  0.2492 -0.0145 -0.0288
12504TIP3    H159003   2.714   0.140  14.490  1.9642 -0.8639  1.3295
12504TIP3    H259004   2.823   0.045  14.447  0.9115 -0.5562 -2.3336
12505TIP3   OH259005   3.594   6.507  16.344 -0.4240 -0.4772 -0.1516
12505TIP3    H159006   3.509   6.538  16.374 -1.1385 -2.0624 -0.4356
12505TIP3    H259007   3.576   6.471  16.257  0.7648  0.1578 -0.6805
12506TIP3   OH259008   2.498   5.893   4.957  0.5988  0.4807  1.0415
12506TIP3    H159009   2.524   5.802   4.971  1.0203  0.5740  0.8746
12506TIP3    H259010   2.402   5.890   4.955  0.6204 -0.2018 -0.4543
12507TIP3   OH259011   5.658   1.964  12.891  0.1608 -0.5150  0.4458
12507TIP3    H159012   5.595   1.996  12.956 -0.1523 -0.2249  0.0071
12507TIP3    H259013   5.690   2.043  12.848 -0.1325 -0.7416 -0.2054
12508TIP3   OH259014   3.726   1.614   0.005 -0.1080  0.0701 -0.7020
12508TIP3    H159015   3.718   1.545   0.072  2.2445 -1.1369 -1.5715
12508TIP3    H259016   3.782   1.680   0.046 -0.8198  0.6030 -0.5648
12509TIP3   OH259017   5.277   3.604   0.723 -0.0680 -0.1439 -0.2852
12509TIP3    H159018   5.202   3.653   0.692  0.9898  0.8842 -1.3535
12509TIP3    H259019   5.311   3.561   0.645  1.2790  0.5763 -0.1267
12510TIP3   OH259020   4.665   5.202  13.225  0.4521  0.2087  0.4139
12510TIP3    H159021   4.595   5.226  13.285  0.2422  1.4241 -0.2866
12510TIP3    H259022   4.620   5.160  13.151  0.6041 -0.2247  0.5605
12511TIP3   OH259023   4.351   1.677   2.925  0.6837 -0.0291 -0.5161
12511TIP3    H159024   4.320   1.666   2.835 -0.5659  3.3114 -0.6315
12511TIP3    H259025   4.274   1.657   2.979  1.0974 -0.8503 -0.2045
12512TIP3   OH259026   6.132   6.249   2.234 -0.1856 -0.3136  0.8746
12512TIP3    H159027   6.209   6.260   2.290  0.0782 -0.6681  0.5925
12512TIP3    H259028   6.136   6.157   2.206  0.9695  0.3797 -1.5487
12513TIP3   OH259029   4.995   3.280   1.560  0.0654  0.0629  0.2853
12513TIP3    H159030   4.996   3.251   1.651  0.0997 -0.6571  0.0591
12513TIP3    H259031   5.037   3.366   1.562 -0.1434  0.1559  0.9799
12514TIP3   OH259032   4.436   6.403   0.752 -0.1698 -0.5525 -0.0247
12514TIP3    H159033   4.389   6.345   0.692  1.6336 -0.3148 -1.7954
12514TIP3    H259034   4.400   6.490   0.734 -0.1478 -0.5892 -0.2501
12515TIP3   OH259035   5.454   4.071   5.776  0.0732 -0.4846  0.2292
12515TIP3    H159036   5.363   4.045   5.769 -0.2442  0.7776 -0.8084
12515TIP3    H259037   5.503   3.989   5.779 -1.0977 -1.1742  1.1575
12516TIP3   OH259038   5.411   5.304  15.909 -0.7831 -0.3248 -0.3173
12516TIP3    H159039   5.488   5.250  15.926 -1.3716 -1.5398 -1.3456
12516TIP3    H259040   5.356   5.292  15.986  0.3815  1.2177  0.8110
12517TIP3   OH259041   2.936   1.030   5.823  0.3097  0.8261  0.2145
12517TIP3    H159042   2.908   1.118   5.798  0.7706  1.2050  1.0138
12517TIP3    H259043   2.937   1.031   5.918 -0.0027 -0.1521  0.2438
12518TIP3   OH259044   4.047   0.110   2.697  0.2017  0.4279  0.4033
12518TIP3    H159045   4.041   0.164   2.776 -0.6252 -0.7834  1.1981
12518TIP3    H259046   3.957   0.102   2.666  0.5333  0.9952 -0.7613
12519TIP3   OH259047   0.384   0.294   2.652 -0.0389 -0.1331 -0.0247
12519TIP3    H159048   0.415   0.213   2.693 -0.5290  0.0302  0.6877
12519TIP3    H259049   0.446   0.311   2.582  0.9147 -0.3286  0.7586
12520TIP3   OH259050   1.003   1.426  14.044  0.0403 -0.1001 -0.3227
12520TIP3    H159051   0.948   1.408  13.968  0.3386 -0.1601 -0.5259
12520TIP3    H259052   1.024   1.519  14.036 -1.5561  0.4025  0.7669
12521TIP3   OH259053   1.861   5.200   0.028 -0.6774 -0.2262  0.1882
12521TIP3    H159054   1.814   5.175  -0.052 -0.4100 -0.7636  0.1947
12521TIP3    H259055   1.929   5.261  -0.003 -1.3299  0.5126  0.1720
12522TIP3   OH259056   3.012   5.033   1.742 -0.5585  0.0804  0.3205
12522TIP3    H159057   3.066   5.112   1.744 -1.2751  0.5703  0.7282
12522TIP3    H259058   3.013   5.006   1.650  0.8839 -0.2859  0.4172
12523TIP3   OH259059   2.014   5.637  16.627 -0.4372  0.6507  0.0931
12523TIP3    H159060   2.002   5.715  16.681 -0.1370  1.2622 -0.6992
12523TIP3    H259061   1.933   5.587  16.638 -0.8543  1.3386  0.1847
12524TIP3   OH259062   5.269   1.600  12.480  0.4216 -0.1724 -0.0717
12524TIP3    H159063   5.265   1.592  12.385 -1.2826 -1.2021  0.0518
12524TIP3    H259064   5.181   1.578  12.511  0.9082  0.2088  1.7463
12525TIP3   OH259065   4.841   5.804   1.058  0.3506 -0.7168 -0.0688
12525TIP3    H159066   4.830   5.840   0.970 -0.0307  0.3817  0.4241
12525TIP3    H259067   4.932   5.823   1.080 -0.1842  1.1467  0.6951
12526TIP3   OH259068   0.111   2.177   4.597  0.7763  0.1656 -0.1780
12526TIP3    H159069   0.206   2.165   4.591  0.6310 -2.1049  0.8973
12526TIP3    H259070   0.075   2.106   4.543 -0.3213  0.7447 -0.2281
12527TIP3   OH259071   4.872   2.792  12.967  0.7196  0.6470  0.3362
12527TIP3    H159072   4.863   2.887  12.971  1.0665  0.6473  1.3327
12527TIP3    H259073   4.782   2.759  12.966  0.5888  0.9915 -0.6063
12528TIP3   OH259074   6.588   2.514  14.128 -0.1342  0.9835 -0.1317
12528TIP3    H159075   6.532   2.460  14.184  1.3013 -0.8861 -0.4074
12528TIP3    H259076   6.627   2.578  14.187  0.0353  0.1427  0.6816
12529TIP3   OH259077   5.381   5.260   2.133  0.4551 -0.0147 -0.1772
12529TIP3    H159078   5.426   5.328   2.082 -0.6833  0.5215 -0.4940
12529TIP3    H259079   5.344   5.306   2.208 -2.3739  0.2395 -1.6138
12530TIP3   OH259080   0.533   5.226   0.536  0.4712 -0.2448  0.4648
12530TIP3    H159081   0.588   5.176   0.476 -1.3004 -1.3627 -0.3103
12530TIP3    H259082   0.444   5.212   0.504 -0.4299  0.1020  2.6396
12531TIP3   OH259083   1.444   5.640   5.311  0.2182  0.4118 -0.2299
12531TIP3    H159084   1.369   5.652   5.252  0.9149 -0.5817 -1.3631
12531TIP3    H259085   1.425   5.557   5.356 -0.9437  1.7888  1.9829
12532TIP3   OH259086   0.136   1.620   5.108 -0.2462 -0.0949  0.4527
12532TIP3    H159087   0.216   1.670   5.124  0.4343 -1.2680  0.8631
12532TIP3    H259088   0.167   1.531   5.090 -1.3424 -0.1451 -1.4492
12533TIP3   OH259089   1.964   1.643  11.266 -0.2897  0.8096 -0.3647
12533TIP3    H159090   1.985   1.580  11.197  0.0231  1.3012 -0.7230
12533TIP3    H259091   1.983   1.728  11.227  0.7057  1.0563  0.6180
12534TIP3   OH259092   0.714   3.746  16.054  0.3145  0.2350 -0.8248
12534TIP3    H159093   0.798   3.726  16.095  1.0751  0.6877 -2.0953
12534TIP3    H259094   0.710   3.686  15.979 -2.0549 -2.1716  1.0271
12535TIP3   OH259095   1.496   5.760  16.788 -0.2325 -0.2678 -0.8777
12535TIP3    H159096   1.431   5.734  16.854 -1.2051  1.0235 -1.3053
12535TIP3    H259097   1.495   5.855  16.789 -0.5364 -0.2001 -3.0067
12536TIP3   OH259098   5.282   2.861  12.575 -0.3910 -0.0666  0.5233
12536TIP3    H159099   5.237   2.777  12.569 -1.1858  0.3285  0.8602
12536TIP3    H259100   5.360   2.850  12.519 -0.6794 -0.8924  0.2664
12537TIP3   OH259101   2.002   5.695   5.664 -0.4044  0.4294 -1.2394
12537TIP3    H159102   1.913   5.702   5.698 -0.7673 -0.7287 -1.8736
12537TIP3    H259103   2.036   5.613   5.701  0.4208  0.8776 -0.9726
12538TIP3   OH259104   2.063   6.484  14.047 -0.2952 -0.4132  0.2694
12538TIP3    H159105   2.023   6.570  14.049 -0.7523 -0.6262  0.8759
12538TIP3    H259106   2.015   6.434  14.113 -0.7843 -1.4624 -0.8345
12539TIP3   OH259107   2.555   0.329  16.474  0.3811  0.1521  0.0618
12539TIP3    H159108   2.587   0.238  16.473 -1.4946 -0.6757 -3.9265
12539TIP3    H259109   2.561   0.358  16.383 -1.5476  3.1357  0.7459
12540TIP3   OH259110   1.361   1.190  13.264 -0.4759 -0.3029 -0.2713
12540TIP3    H159111   1.274   1.168  13.230  0.1445 -1.3611 -1.2270
12540TIP3    H259112   1.398   1.106  13.291  0.7149 -0.0362 -1.0088
12541TIP3   OH259113   5.894   1.237  12.478  0.2581 -0.0763  0.0339
12541TIP3    H159114   5.845   1.318  12.491  0.6506  0.3489 -1.0661
12541TIP3    H259115   5.985   1.264  12.467  0.8708 -0.8847  2.3989
12542TIP3   OH259116   1.603   5.881   4.382  0.0198 -0.1760 -0.8126
12542TIP3    H159117   1.572   5.795   4.353  0.8345 -0.9940  0.6333
12542TIP3    H259118   1.690   5.889   4.343 -0.5226  0.5577 -1.9364
12543TIP3   OH259119   1.559   1.881  15.656 -0.1851 -0.0043  0.6951
12543TIP3    H159120   1.546   1.976  15.658  0.0659  0.0652 -0.4623
12543TIP3    H259121   1.471   1.845  15.641 -0.1097  0.1124 -0.0579
12544TIP3   OH259122   5.498   1.342   1.064  0.2682  0.4315 -0.6682
12544TIP3    H159123   5.407   1.315   1.081  0.6550 -0.2402  0.4471
12544TIP3    H259124   5.496   1.438   1.071 -1.0288  0.8162 -4.2246
12545TIP3   OH259125   1.358   4.456   5.438 -0.2186 -0.0740  0.1524
12545TIP3    H159126   1.448   4.432   5.460 -0.4528  0.1730  1.4492
12545TIP3    H259127   1.354   4.448   5.343  0.5833 -2.1154  0.2367
12546TIP3   OH259128   0.090   0.475  15.331 -0.8063  0.1711  0.8103
12546TIP3    H159129   0.173   0.436  15.356  0.0395  0.8660 -0.7647
12546TIP3    H259130   0.078   0.549  15.391  0.0690  0.4724  0.6271
12547TIP3   OH259131   3.193   1.369  10.593 -0.5905  0.4504 -0.1370
12547TIP3    H159132   3.220   1.291  10.543  1.5162  1.6028 -0.9243
12547TIP3    H259133   3.253   1.438  10.564  0.2000  1.4303  3.3604
12548TIP3   OH259134   1.952   0.095  14.250  0.2088 -0.6712 -0.2977
12548TIP3    H159135   1.922   0.148  14.324  1.6635  0.0724 -0.2081
12548TIP3    H259136   2.041   0.069  14.274  0.6378 -0.5558 -1.7056
12549TIP3   OH259137   0.058   5.635  10.576 -0.3399  0.9342 -0.3973
12549TIP3    H159138  -0.009   5.703  10.585 -0.6398  0.7201 -0.9761
12549TIP3    H259139   0.009   5.555  10.560  0.0174  0.5853  0.2580
12550TIP3   OH259140   6.706   5.950  15.220  0.6130 -0.0453  1.0802
12550TIP3    H159141   6.767   6.020  15.245 -1.3886  2.0694  0.4567
12550TIP3    H259142   6.708   5.889  15.293  2.2068  0.8007  1.8076
12551TIP3   OH259143   5.980   0.157   4.616 -0.3456 -0.2248 -0.4418
12551TIP3    H159144   5.961   0.202   4.534  0.3639  1.4555  0.2637
12551TIP3    H259145   5.905   0.176   4.673  0.0523  0.2611 -0.0700
12552TIP3   OH259146   4.183   6.320   3.096 -0.4925 -0.1019  0.2977
12552TIP3    H159147   4.262   6.355   3.138 -1.3196  1.2887  0.7535
12552TIP3    H259148   4.168   6.236   3.138  1.2697 -0.8472 -0.4612
12553TIP3   OH259149   0.320   6.639   4.743  0.0239 -0.0765 -0.1528
12553TIP3    H159150   0.288   6.614   4.829  1.7443 -0.0557  0.5329
12553TIP3    H259151   0.287   6.728   4.730 -0.8455 -0.3434  0.1427
12554TIP3   OH259152   5.291   2.200   0.315  0.1555 -0.2454  0.6969
12554TIP3    H159153   5.300   2.257   0.392  1.3066 -0.7732  0.9738
12554TIP3    H259154   5.231   2.247   0.257 -1.1576 -0.0654  2.1273
12555TIP3   OH259155   4.797   4.963  12.444  0.0177 -0.3354  0.2149
12555TIP3    H159156   4.875   4.913  12.467  0.0616 -0.1873  0.3862
12555TIP3    H259157   4.766   4.998  12.527  1.1263  1.6039 -0.1302
12556TIP3   OH259158   5.138   1.394   4.584 -0.0710 -0.0857  0.0462
12556TIP3    H159159   5.228   1.423   4.575  1.0491 -2.9574  0.7638
12556TIP3    H259160   5.102   1.398   4.495  0.5099  1.6695 -0.1454
12557TIP3   OH259161   1.457   4.573  12.148 -0.1173  0.1646  0.1036
12557TIP3    H159162   1.517   4.537  12.083 -0.1611  0.9307 -0.3645
12557TIP3    H259163   1.503   4.564  12.231  0.6402  0.7391 -0.2522
12558TIP3   OH259164   3.185   3.201   5.436 -0.0559 -1.0267  0.2444
12558TIP3    H159165   3.140   3.117   5.449 -2.2797 -0.1524 -1.1783
12558TIP3    H259166   3.123   3.254   5.385  1.7368  1.0964  0.1076
12559TIP3   OH259167   3.754   1.744  12.664 -0.5653 -0.0763  0.0525
12559TIP3    H159168   3.783   1.723  12.575  0.3961 -1.1904  0.5922
12559TIP3    H259169   3.666   1.780  12.653  0.4899  2.2588 -1.5610
12560TIP3   OH259170   0.029   6.617   6.171 -0.1488  0.6233  0.7379
12560TIP3    H159171   0.104   6.575   6.213 -1.3757 -0.7466  1.6625
12560TIP3    H259172  -0.030   6.638   6.243 -1.2398  0.4274 -0.0813
12561TIP3   OH259173   1.820   1.683   5.048 -0.1902 -0.5224  0.0972
12561TIP3    H159174   1.802   1.623   5.121 -0.9985 -1.3117 -0.7321
12561TIP3    H259175   1.734   1.707   5.014  0.1307  0.8871  0.2097
12562TIP3   OH259176   0.532   3.841  12.106  0.0330  0.1894 -0.2293
12562TIP3    H159177   0.522   3.756  12.149 -1.0660  1.2053  1.6583
12562TIP3    H259178   0.471   3.838  12.033 -0.3978 -0.4367  0.1429
12563TIP3   OH259179   2.360   4.181  13.097 -0.0396  0.1161 -0.3789
12563TIP3    H159180   2.356   4.110  13.032 -0.5100 -1.9449  1.7436
12563TIP3    H259181   2.284   4.235  13.078  0.2398  0.0177 -1.9687
12564TIP3   OH259182   0.524   5.312  16.636  0.2391  0.6582 -0.4705
12564TIP3    H159183   0.556   5.227  16.666  1.1407  0.9332 -0.6229
12564TIP3    H259184   0.444   5.327  16.688  0.8738  0.3888  0.6221
12565TIP3   OH259185   4.622   3.062   5.046 -0.4233 -0.9204 -0.2027
12565TIP3    H159186   4.659   3.055   4.958 -1.0995 -2.3247 -0.4091
12565TIP3    H259187   4.629   3.154   5.069 -1.1445 -0.3558 -2.1385
12566TIP3   OH259188   1.363   1.408   1.517  0.3043 -0.1444  0.1425
12566TIP3    H159189   1.454   1.431   1.535  0.3824 -1.2515  1.2609
12566TIP3    H259190   1.361   1.390   1.423  1.3752 -0.7450  0.2242
12567TIP3   OH259191   3.123   1.277   5.653 -0.0298 -0.9186 -0.8329
12567TIP3    H159192   3.047   1.228   5.685  0.4648 -1.2887 -0.2149
12567TIP3    H259193   3.114   1.364   5.693 -0.8319 -0.5157 -1.8201
12568TIP3   OH259194   0.552   3.104  14.971 -0.1329 -0.0555  0.9358
12568TIP3    H159195   0.565   3.018  14.931  1.7390  0.0258  1.3129
12568TIP3    H259196   0.507   3.086  15.054  1.1344 -0.7810  1.4846
12569TIP3   OH259197   3.163   0.102   4.990 -0.1831  0.1631  0.1106
12569TIP3    H159198   3.073   0.123   5.018 -0.7857 -0.8954 -0.9440
12569TIP3    H259199   3.170   0.140   4.902  0.4646  0.3682  0.2453
12570TIP3   OH259200   6.018   2.383  13.207 -0.7657  0.1265 -0.7222
12570TIP3    H159201   6.043   2.309  13.151  0.5930 -1.1038  1.3687
12570TIP3    H259202   5.985   2.342  13.287  1.4233  1.6649  1.0972
12571TIP3   OH259203   1.905   0.018  15.158  0.2296 -0.0186  0.1926
12571TIP3    H159204   1.996  -0.011  15.166 -0.4265 -2.3151 -0.1540
12571TIP3    H259205   1.853  -0.056  15.189 -1.5525  1.0985 -0.0035
12572TIP3   OH259206   1.883   5.620   6.009 -0.6803  0.0724 -0.3295
12572TIP3    H159207   1.842   5.561   6.072 -0.1411  0.3225  0.2743
12572TIP3    H259208   1.886   5.570   5.927 -1.5900 -0.1754 -0.2165
12573TIP3   OH259209   1.457   3.625   3.369  0.1606  0.1168 -0.2404
12573TIP3    H159210   1.459   3.529   3.372 -0.0968  0.0294 -1.9898
12573TIP3    H259211   1.367   3.647   3.343  0.2310  0.8345  0.0899
12574TIP3   OH259212   0.147   4.731  13.296 -0.1520 -0.0611  0.2799
12574TIP3    H159213   0.144   4.827  13.295  1.7475  0.0758  1.7573
12574TIP3    H259214   0.107   4.707  13.379  1.6927 -0.3439  1.1408
12575TIP3   OH259215   0.570   0.848   3.742  0.2437 -0.4503 -0.5692
12575TIP3    H159216   0.576   0.797   3.823  0.4756  1.7916  0.8933
12575TIP3    H259217   0.660   0.874   3.723  0.3440 -1.7975 -2.1749
12576TIP3   OH259218   0.848   6.407  13.205 -0.3694 -0.6810  0.0411
12576TIP3    H159219   0.943   6.415  13.213 -0.1995  0.5535 -2.1961
12576TIP3    H259220   0.813   6.486  13.247 -0.2833 -0.4316 -0.3421
12577TIP3   OH259221   4.436   0.251  15.937  0.5558 -0.2007  0.7600
12577TIP3    H159222   4.477   0.307  16.003  1.0626  1.2615 -0.7089
12577TIP3    H259223   4.470   0.163  15.955  0.1494  0.0196  2.8165
12578TIP3   OH259224   4.343   2.094   3.713 -0.4601 -0.3748 -0.4241
12578TIP3    H159225   4.372   2.179   3.747 -0.7653 -0.5335  0.2494
12578TIP3    H259226   4.250   2.089   3.735 -0.4279 -0.9186 -0.3867
12579TIP3   OH259227   0.314   0.145   1.123  0.2395  0.6509  0.5043
12579TIP3    H159228   0.264   0.081   1.175 -1.3302  0.8834 -0.6659
12579TIP3    H259229   0.290   0.230   1.160 -0.5395  0.7865 -0.2833
12580TIP3   OH259230   0.193   4.106  11.953  0.0179 -0.0292  0.6177
12580TIP3    H159231   0.268   4.160  11.975  0.0170 -0.2684  1.2462
12580TIP3    H259232   0.126   4.131  12.016 -0.1374 -0.4257  0.6166
12581TIP3   OH259233   2.650   4.809  16.051  0.2585 -0.1718  0.0181
12581TIP3    H159234   2.610   4.787  16.135 -0.6334 -0.7307 -0.5304
12581TIP3    H259235   2.580   4.854  16.003  0.4529 -0.7069 -0.7742
12582TIP3   OH259236   3.682   4.749   1.380 -0.1242 -0.5144  0.3912
12582TIP3    H159237   3.754   4.796   1.339 -1.3267  0.0501 -1.1613
12582TIP3    H259238   3.673   4.788   1.467  0.7408  0.1337  0.1926
12583TIP3   OH259239   6.765   0.310   3.357  0.1041 -0.6435  0.4114
12583TIP3    H159240   6.742   0.224   3.320 -0.6556  0.1412 -1.0415
12583TIP3    H259241   6.846   0.295   3.405  0.0977 -2.1287  0.0066
12584TIP3   OH259242   3.573   4.988   3.998 -0.3868  0.0231 -0.6877
12584TIP3    H159243   3.660   4.980   3.958  0.4365  0.3019  0.9573
12584TIP3    H259244   3.546   4.897   4.013 -0.5674 -0.0767 -1.5312
12585TIP3   OH259245   5.388   6.777  11.377 -0.3498 -0.0091 -0.1965
12585TIP3    H159246   5.466   6.772  11.322 -1.0522  0.9934 -1.3546
12585TIP3    H259247   5.412   6.839  11.446 -0.4240  1.1311 -1.1517
12586TIP3   OH259248   0.259   6.313   5.982  0.1557 -0.1317 -0.5003
12586TIP3    H159249   0.287   6.405   5.981 -1.0448  0.2899  0.9737
12586TIP3    H259250   0.284   6.282   6.069  3.6204 -2.2789 -2.0598
12587TIP3   OH259251   6.574   2.989  14.037 -0.0758  0.0539  0.4424
12587TIP3    H159252   6.481   2.980  14.059  0.1206 -0.3693  1.1176
12587TIP3    H259253   6.618   2.998  14.122  0.4672  0.6149  0.1129
12588TIP3   OH259254   6.193   1.124  14.032  0.3197 -0.0061 -0.4907
12588TIP3    H159255   6.223   1.110  14.122  2.1185  2.0891 -0.6936
12588TIP3    H259256   6.176   1.218  14.027 -0.1423 -0.1500 -2.2639
12589TIP3   OH259257   6.453   3.496  13.700 -0.1856 -0.3859  0.2729
12589TIP3    H159258   6.536   3.457  13.673  0.3299 -0.1143  1.4039
12589TIP3    H259259   6.393   3.422  13.707 -0.0814 -0.5692 -0.6792
12590TIP3   OH259260   5.037   2.948  12.246 -0.6356 -0.0790 -0.1632
12590TIP3    H159261   5.127   2.975  12.261 -1.0386  0.4401  1.5266
12590TIP3    H259262   5.042   2.854  12.229  0.3397  0.2072 -1.6745
12591TIP3   OH259263   1.442   6.311   3.120  0.6279  0.0926 -0.7310
12591TIP3    H159264   1.421   6.239   3.180 -1.7033  2.6050  1.7717
12591TIP3    H259265   1.385   6.297   3.045  0.4036 -0.8093 -0.4181
12592TIP3   OH259266   5.482   1.049  16.735  0.2505 -0.0666 -0.2196
12592TIP3    H159267   5.473   1.030  16.828 -1.5006  2.2221  0.1682
12592TIP3    H259268   5.547   1.120  16.731 -0.6777  0.7909 -0.5615
12593TIP3   OH259269   4.440   6.215   4.158  0.3197  0.4677 -0.0741
12593TIP3    H159270   4.473   6.301   4.183 -0.3030  0.3445  1.2611
12593TIP3    H259271   4.488   6.193   4.078  0.1242  2.2685 -0.7298
12594TIP3   OH259272   1.867   5.616  17.061  0.2540 -0.0290  0.1569
12594TIP3    H159273   1.946   5.590  17.109  0.1678 -0.5120  0.0344
12594TIP3    H259274   1.900   5.667  16.987  0.4130  0.3243  0.4665
12595TIP3   OH259275   6.658   4.570  15.969  0.6212  0.3794 -0.1287
12595TIP3    H159276   6.579   4.529  16.006  1.7845 -0.8285  1.1299
12595TIP3    H259277   6.706   4.497  15.928  1.3438  1.0044 -0.4178
12596TIP3   OH259278   3.703   2.299   4.431  0.1522 -0.4347 -0.6227
12596TIP3    H159279   3.680   2.384   4.467  0.5420 -1.8436  3.4545
12596TIP3    H259280   3.619   2.256   4.415 -0.1394 -0.6957  1.3170
12597TIP3   OH259281   1.382   1.184   3.834 -0.2154  0.8264  0.3045
12597TIP3    H159282   1.474   1.159   3.846 -0.1167  0.9424 -0.1965
12597TIP3    H259283   1.333   1.118   3.884  0.1384  0.7688  0.5805
12598TIP3   OH259284   6.251   5.903  13.351 -0.8700 -0.0261  0.4015
12598TIP3    H159285   6.263   5.991  13.388 -0.3613 -0.2997  0.8925
12598TIP3    H259286   6.340   5.871  13.334 -1.0597 -0.3814  0.0525
12599TIP3   OH259287   0.839   5.535  15.149  0.6689  0.6232  0.3049
12599TIP3    H159288   0.782   5.477  15.200  2.0503 -0.5215  0.6069
12599TIP3    H259289   0.832   5.502  15.059 -0.1412  1.3204  0.0995
12600TIP3   OH259290   0.831   4.942  11.010  0.1769 -0.3380 -0.6538
12600TIP3    H159291   0.842   5.031  11.043 -0.0134 -0.4256 -0.3414
12600TIP3    H259292   0.813   4.890  11.089  0.0499 -0.6107 -0.8610
12601TIP3   OH259293   1.372   0.891   0.820  0.1173 -0.0441 -0.1227
12601TIP3    H159294   1.435   0.958   0.794 -1.7542  1.8221 -0.1098
12601TIP3    H259295   1.389   0.817   0.762  1.6114  0.7995 -0.7924
12602TIP3   OH259296   3.729   0.371   4.443  0.3086 -0.3240 -0.3817
12602TIP3    H159297   3.791   0.438   4.473 -1.8687  0.4615  2.9034
12602TIP3    H259298   3.778   0.289   4.450  1.5533  0.4375  0.2528
12603TIP3   OH259299   2.259   5.060  10.369  0.6644  0.1835 -0.5146
12603TIP3    H159300   2.222   5.098  10.289  0.1384  1.1545  0.1573
12603TIP3    H259301   2.315   5.130  10.404  1.8981 -0.6907 -0.6749
12604TIP3   OH259302   4.065   4.591  12.126  0.3580 -0.3390 -0.3536
12604TIP3    H159303   4.019   4.612  12.207  0.2715 -0.8945 -0.2531
12604TIP3    H259304   4.116   4.669  12.106  1.0958 -0.5231  0.7265
12605TIP3   OH259305   6.611   6.384   2.259 -0.1000 -0.1407  0.0231
12605TIP3    H159306   6.645   6.352   2.176 -0.5349 -1.7411  0.4219
12605TIP3    H259307   6.683   6.368   2.321 -0.0304  0.4028  0.0823
12606TIP3   OH259308   1.405   6.738  14.860  0.2954 -0.6349  0.0301
12606TIP3    H159309   1.495   6.769  14.849 -0.5380  1.3996 -1.6686
12606TIP3    H259310   1.380   6.769  14.948  1.0185 -0.5983  0.2328
12607TIP3   OH259311   0.769   4.679   3.215 -0.6870  0.3257 -0.7375
12607TIP3    H159312   0.823   4.650   3.288  0.3269  0.5405 -1.3787
12607TIP3    H259313   0.830   4.685   3.141 -1.3479  1.7015 -1.2110
12608TIP3   OH259314   3.271   5.603   4.069 -0.0841  0.3830 -0.7264
12608TIP3    H159315   3.317   5.527   4.104  0.0903  1.5273  1.7656
12608TIP3    H259316   3.341   5.664   4.045 -0.1645  1.4119  1.3901
12609TIP3   OH259317   1.779   6.413   1.658  0.0412  0.0683 -0.2398
12609TIP3    H159318   1.691   6.427   1.694 -1.0816  0.5917 -2.9231
12609TIP3    H259319   1.821   6.499   1.662 -0.4364  0.3479 -0.9801
12610TIP3   OH259320   6.015   0.503   5.268 -0.2554  0.8285 -0.1630
12610TIP3    H159321   5.964   0.422   5.266  0.0812  0.6185 -1.7767
12610TIP3    H259322   6.106   0.474   5.270 -0.1371  1.2018  1.1430
12611TIP3   OH259323   5.998   2.368  13.812 -0.2164 -0.2248  0.1948
12611TIP3    H159324   6.066   2.392  13.750  0.9714 -0.2290  1.4404
12611TIP3    H259325   5.924   2.340  13.758  0.9220 -0.6365 -1.2013
12612TIP3   OH259326   6.367   2.559  13.475 -0.2450 -1.0825  0.2752
12612TIP3    H159327   6.361   2.651  13.451  0.3390 -0.7411  1.3356
12612TIP3    H259328   6.349   2.511  13.394 -0.8957 -0.0478 -0.2113
12613TIP3   OH259329   2.176   5.877  10.646 -0.2276  0.1350  0.4999
12613TIP3    H159330   2.228   5.903  10.722  0.6668  0.9321 -0.3539
12613TIP3    H259331   2.086   5.874  10.679  0.3477 -1.7016  2.1276
12614TIP3   OH259332   0.449   2.470  13.136 -0.6836 -0.1605  0.0062
12614TIP3    H159333   0.487   2.413  13.203 -0.3931 -1.2016 -1.0264
12614TIP3    H259334   0.412   2.410  13.071 -1.8065  0.8366 -0.3064
12615TIP3   OH259335   3.347   0.601   4.931 -0.1252  0.1747  0.0478
12615TIP3    H159336   3.405   0.566   4.998 -0.2247  0.3785  0.2438
12615TIP3    H259337   3.306   0.677   4.972 -1.5272 -0.7229  0.3870
12616TIP3   OH259338   1.574   1.770   0.768  0.0325  0.3780  0.1522
12616TIP3    H159339   1.618   1.796   0.849 -2.6050  0.4894  1.6675
12616TIP3    H259340   1.616   1.687   0.744  1.6240  0.8980  0.9685
12617TIP3   OH259341   4.669   1.041  12.032  0.3733 -0.2345 -0.2326
12617TIP3    H159342   4.607   0.974  12.059  1.0809 -0.1308  1.8329
12617TIP3    H259343   4.749   0.992  12.010  0.0399 -0.2516 -1.5131
12618TIP3   OH259344   4.401   6.147  12.313 -0.3707 -0.2831 -0.8583
12618TIP3    H159345   4.321   6.127  12.265 -0.0871 -0.5196 -1.2373
12618TIP3    H259346   4.390   6.102  12.397 -0.7205 -0.1489 -0.8321
12619TIP3   OH259347   4.213   6.435  11.671 -0.3969  0.2285  0.0758
12619TIP3    H159348   4.181   6.518  11.705 -0.7371 -0.2931  1.0796
12619TIP3    H259349   4.233   6.383  11.749 -1.3896 -1.0882 -0.5024
12620TIP3   OH259350   2.142   3.038   0.729 -0.3801 -0.6263  0.1784
12620TIP3    H159351   2.154   3.094   0.806 -1.2727 -2.3306  1.6270
12620TIP3    H259352   2.227   3.041   0.685 -0.2011  1.3225  0.5278
12621TIP3   OH259353   5.482   2.616  11.628 -0.3039 -0.1992  0.0794
12621TIP3    H159354   5.541   2.580  11.694  0.7277  0.9551 -0.1786
12621TIP3    H259355   5.443   2.539  11.587  0.0954 -0.9652  1.0823
12622TIP3   OH259356   6.835   3.127   4.984  0.3824  0.0775  0.0556
12622TIP3    H159357   6.921   3.092   4.964 -0.9633 -2.9002 -1.0024
12622TIP3    H259358   6.811   3.178   4.907  1.2463  1.1360  0.4624
12623TIP3   OH259359   2.665   6.275   5.119 -0.2159 -0.1532 -0.3128
12623TIP3    H159360   2.706   6.304   5.038  1.6531 -0.2243  0.5434
12623TIP3    H259361   2.636   6.355   5.162 -0.7389 -0.0760 -0.8080
12624TIP3   OH259362   0.753   1.891  13.324  0.1043 -0.3574  0.6086
12624TIP3    H159363   0.665   1.917  13.351  0.1078 -0.6706  0.9140
12624TIP3    H259364   0.740   1.814  13.269  0.1434 -0.0570  0.1683
12625TIP3   OH259365   3.956   2.098  13.894  0.0721 -0.6100 -0.7504
12625TIP3    H159366   3.993   2.023  13.941  1.7374  0.6779  0.1175
12625TIP3    H259367   3.872   2.114  13.937  1.0000 -0.2417  1.0172
12626TIP3   OH259368   2.839   4.364  13.486  0.1309 -0.3831 -0.4847
12626TIP3    H159369   2.751   4.328  13.481  0.1598 -0.3881 -1.0426
12626TIP3    H259370   2.833   4.434  13.551 -0.3289 -0.2696 -0.6450
12627TIP3   OH259371   1.724   4.107  16.563 -0.5855  0.2020  0.6758
12627TIP3    H159372   1.746   4.016  16.582 -2.4522 -0.1298  1.4813
12627TIP3    H259373   1.804   4.156  16.582  0.8115 -1.3611 -0.8726
12628TIP3   OH259374   6.032   0.581  14.171  0.5855 -0.4777  0.2299
12628TIP3    H159375   6.074   0.507  14.215 -1.2224 -1.6391  0.1166
12628TIP3    H259376   5.994   0.632  14.242 -0.1299 -0.9369  0.1845
12629TIP3   OH259377   0.494   3.590  14.077  0.0078 -0.0260 -0.3117
12629TIP3    H159378   0.475   3.679  14.048  0.2486 -0.3782 -1.5946
12629TIP3    H259379   0.558   3.602  14.148 -0.5971  0.8544  0.1091
12630TIP3   OH259380   6.673   6.315  11.494  0.3909 -0.3240  0.1818
12630TIP3    H159381   6.663   6.305  11.588  1.0772  2.9134  0.7315
12630TIP3    H259382   6.592   6.282  11.456 -1.0934  0.8711  2.1722
12631TIP3   OH259383   6.026   6.714   5.385  0.1622  0.2088 -0.2444
12631TIP3    H159384   6.083   6.790   5.372 -0.5552  0.7396 -0.3708
12631TIP3    H259385   6.054   6.651   5.318 -0.3149  1.0151 -1.2378
12632TIP3   OH259386   6.682   6.604  11.836 -0.1416  0.1138  0.4342
12632TIP3    H159387   6.630   6.682  11.856 -1.3506 -1.1061  2.4262
12632TIP3    H259388   6.764   6.638  11.800 -0.0897  2.4005  2.4057
12633TIP3   OH259389   3.336   5.776  11.355  0.0107 -0.0551  0.6690
12633TIP3    H159390   3.334   5.795  11.449  0.3470  1.5027  0.3765
12633TIP3    H259391   3.411   5.824  11.322 -0.3489 -0.2569 -0.4807
12634TIP3   OH259392   0.107   0.330  11.583  0.4053  0.3024 -0.4056
12634TIP3    H159393   0.187   0.336  11.635  1.5680  2.5656 -2.2882
12634TIP3    H259394   0.108   0.408  11.528 -3.4661  0.7817 -0.0688
12635TIP3   OH259395   5.344   3.054   4.785  0.1254  0.0627  0.8200
12635TIP3    H159396   5.299   2.979   4.825 -1.1304 -1.3550 -2.8156
12635TIP3    H259397   5.276   3.120   4.775  0.4655  0.4652  1.1354
12636TIP3   OH259398   1.000   5.663   3.703  0.2283  0.2227 -0.1367
12636TIP3    H159399   1.037   5.752   3.705 -1.6308  1.0677 -1.0452
12636TIP3    H259400   0.918   5.671   3.752 -0.1352 -0.9083 -0.5427
12637TIP3   OH259401   3.529   1.673  15.311  0.7239 -0.0531 -0.0042
12637TIP3    H159402   3.510   1.659  15.404  1.8144 -1.6994  0.0122
12637TIP3    H259403   3.454   1.635  15.265  0.3846  0.3886  0.1662
12638TIP3   OH259404   3.747   4.145  15.099 -0.0329 -0.2990  0.0502
12638TIP3    H159405   3.731   4.171  15.008 -0.1059  1.3573  0.4901
12638TIP3    H259406   3.731   4.051  15.101 -1.3693 -0.1373 -1.3634
12639TIP3   OH259407   6.181   6.582   4.422 -0.1523  0.5407 -0.2950
12639TIP3    H159408   6.179   6.526   4.345  0.9555 -2.6428  1.7973
12639TIP3    H259409   6.097   6.627   4.421 -1.7625 -2.2456 -1.4044
12640TIP3   OH259410   3.638   4.628   3.495 -0.2334 -0.2891  0.0145
12640TIP3    H159411   3.670   4.647   3.583  2.9820 -1.4834 -0.7552
12640TIP3    H259412   3.621   4.533   3.495 -1.8284 -0.0426 -0.2605
12641TIP3   OH259413   0.461   1.811   2.329  0.3092  0.0385 -0.0340
12641TIP3    H159414   0.401   1.736   2.325  1.1162 -0.6712  0.8166
12641TIP3    H259415   0.404   1.885   2.352 -0.4118 -0.4195 -0.3060
12642TIP3   OH259416   4.791   1.788  17.015  0.7620  0.5125 -0.2242
12642TIP3    H159417   4.791   1.838  16.933 -0.4550 -0.1114 -0.6257
12642TIP3    H259418   4.704   1.804  17.053  0.7718 -0.3935  0.2058
12643TIP3   OH259419   0.613   0.434   5.300  0.2999  0.1264 -0.3263
12643TIP3    H159420   0.645   0.355   5.344  0.8761 -0.4171 -1.6842
12643TIP3    H259421   0.525   0.410   5.269 -0.6621  0.9382  1.5857
12644TIP3   OH259422   0.770   6.277  12.974  0.3193  0.4922 -0.1081
12644TIP3    H159423   0.676   6.264  12.968  0.3466 -0.7722  1.6376
12644TIP3    H259424   0.783   6.323  13.057  1.2731  0.1137 -0.0279
12645TIP3   OH259425   6.727   5.663   3.953  0.4340  0.8741  0.0497
12645TIP3    H159426   6.698   5.742   3.907 -1.1923  0.8718  1.0022
12645TIP3    H259427   6.648   5.611   3.963  1.5710 -1.2542 -1.1583
12646TIP3   OH259428   4.772   1.183   3.684 -0.1365 -0.4907 -0.1546
12646TIP3    H159429   4.821   1.111   3.724 -1.2082 -2.0934 -1.6025
12646TIP3    H259430   4.755   1.244   3.756  0.9398 -1.5945  1.0734
12647TIP3   OH259431   1.492   0.033  15.951 -0.0410 -0.2644 -0.2052
12647TIP3    H159432   1.493   0.069  16.040 -2.0603  0.5560 -0.4748
12647TIP3    H259433   1.414  -0.022  15.948  0.2982 -0.7026 -1.3268
12648TIP3   OH259434   2.244   0.932   2.498  0.0110 -0.2898 -0.2165
12648TIP3    H159435   2.274   0.869   2.564 -0.5165  1.6971  2.0426
12648TIP3    H259436   2.323   0.979   2.471  0.0694 -0.3692 -0.1847
12649TIP3   OH259437   4.947   4.438  15.111 -0.5389  0.5834  0.1116
12649TIP3    H159438   4.966   4.529  15.135  0.0918  0.4513  0.1225
12649TIP3    H259439   4.854   4.427  15.133 -0.5952  1.1934  0.2043
12650TIP3   OH259440   3.684   3.055   2.748 -0.0724  0.7848  0.0372
12650TIP3    H159441   3.606   3.025   2.702  1.3704 -0.0498 -2.0215
12650TIP3    H259442   3.751   3.062   2.680  1.8216  0.9088  1.8065
12651TIP3   OH259443   1.562   0.659  11.646  0.4051 -0.1596  0.0313
12651TIP3    H159444   1.551   0.615  11.561  1.6368 -0.8888  0.2145
12651TIP3    H259445   1.538   0.592  11.710  0.6726 -0.0210  0.2769
12652TIP3   OH259446   1.227   4.991   1.672  0.0123 -0.2395  0.0587
12652TIP3    H159447   1.168   4.916   1.665 -1.5338  0.9809 -0.4907
12652TIP3    H259448   1.266   4.999   1.585  1.4488 -1.3267  0.5391
12653TIP3   OH259449   4.521   2.165  14.389 -0.5542  0.3724 -0.1354
12653TIP3    H159450   4.448   2.183  14.449 -0.6364  1.1186 -0.4481
12653TIP3    H259451   4.580   2.240  14.400 -0.1533  0.0940 -0.3663
12654TIP3   OH259452   0.298   3.148   0.838  0.6083 -0.1893 -0.3920
12654TIP3    H159453   0.211   3.133   0.875  0.6277 -1.4706 -0.8223
12654TIP3    H259454   0.286   3.220   0.777  0.3380  1.1794  1.2060
12655TIP3   OH259455   6.322   6.219  14.660 -0.0119  0.1588  0.1350
12655TIP3    H159456   6.381   6.153  14.697 -1.7266 -0.4464  2.0141
12655TIP3    H259457   6.375   6.299  14.654  1.4443 -0.7695  0.0755
12656TIP3   OH259458   2.989   1.230   0.141 -0.0587 -0.0425 -0.3450
12656TIP3    H159459   2.963   1.175   0.215  1.2636 -1.6092 -0.9708
12656TIP3    H259460   3.075   1.264   0.166 -0.2983  0.6933 -0.5107
12657TIP3   OH259461   1.036   2.198   2.073 -0.1236 -0.2740 -0.2880
12657TIP3    H159462   1.124   2.231   2.059 -0.2404 -0.4444 -1.5396
12657TIP3    H259463   1.035   2.169   2.164  0.5224  1.4827  0.3250
12658TIP3   OH259464   0.778   2.889  10.443  0.1503 -0.0100 -0.3837
12658TIP3    H159465   0.720   2.815  10.459 -1.1491  1.0805  0.1066
12658TIP3    H259466   0.803   2.919  10.531  0.6830  0.1382 -0.5784
12659TIP3   OH259467   6.205   5.175  13.863 -0.4448  0.1142 -0.0510
12659TIP3    H159468   6.160   5.138  13.939  0.3284 -1.2484 -0.2147
12659TIP3    H259469   6.239   5.098  13.816 -2.2013  0.7644 -2.6380
12660TIP3   OH259470   1.060   1.448   2.805  0.2102 -0.3524  0.5295
12660TIP3    H159471   1.049   1.543   2.809  0.9080 -0.2058 -0.6157
12660TIP3    H259472   1.002   1.421   2.733 -0.9584 -0.9803  1.6595
12661TIP3   OH259473   5.631   4.350   0.132 -0.1009  0.1057  0.0025
12661TIP3    H159474   5.668   4.422   0.081 -1.3270  0.4678 -0.3927
12661TIP3    H259475   5.708   4.304   0.167  0.7668  2.4868  1.5461
12662TIP3   OH259476   1.301   2.849   2.234 -0.0828  0.4983 -0.3156
12662TIP3    H159477   1.278   2.808   2.151  0.9341  0.1365 -0.4318
12662TIP3    H259478   1.244   2.805   2.298 -0.5458  0.4566 -0.7470
12663TIP3   OH259479   4.777   4.934   3.986 -0.0079  0.4707 -0.3237
12663TIP3    H159480   4.688   4.932   3.949 -0.6765  1.3369  1.1346
12663TIP3    H259481   4.801   5.027   3.983  0.5044  0.3532  0.0876
12664TIP3   OH259482   4.431   4.847  10.552 -0.3566 -0.0882 -0.0945
12664TIP3    H159483   4.423   4.926  10.498  0.6726  0.9703  1.2339
12664TIP3    H259484   4.398   4.874  10.638 -0.2851 -1.2086  0.2948
12665TIP3   OH259485   1.905   6.737   3.791  0.4800  0.3271 -0.2659
12665TIP3    H159486   1.882   6.648   3.766  0.3538 -0.8571  3.5439
12665TIP3    H259487   1.973   6.726   3.858  0.3933  3.0948  0.3822
12666TIP3   OH259488   3.392   6.319  15.592 -0.4317  0.4104 -0.4416
12666TIP3    H159489   3.431   6.262  15.526 -1.3903  0.7796 -1.3550
12666TIP3    H259490   3.354   6.258  15.656 -0.0822  0.0446 -0.5791
12667TIP3   OH259491   1.472   0.428   5.542 -0.0487 -0.0483 -0.6327
12667TIP3    H159492   1.501   0.380   5.620  0.5036 -0.5222 -1.1320
12667TIP3    H259493   1.393   0.474   5.572  1.7093  2.0662  1.0166
12668TIP3   OH259494   6.614   2.744   5.606 -0.5702  0.0357 -0.5106
12668TIP3    H159495   6.528   2.739   5.648 -0.3243  2.1423  0.3879
12668TIP3    H259496   6.619   2.665   5.552 -2.6908 -0.5881  0.0965
12669TIP3   OH259497   6.261   6.082  16.871  0.2568 -0.0059 -0.2377
12669TIP3    H159498   6.257   6.167  16.828 -1.3377 -0.0939 -0.3496
12669TIP3    H259499   6.210   6.024  16.814  2.4472 -1.4043 -0.8772
12670TIP3   OH259500   5.256   2.819  13.569 -0.4658 -0.1788  0.1225
12670TIP3    H159501   5.171   2.777  13.556  0.1891 -1.0568 -1.7044
12670TIP3    H259502   5.245   2.907  13.535 -1.3186  0.6025  2.2563
12671TIP3   OH259503   5.632   5.817   2.802  0.1030 -0.2636  0.4943
12671TIP3    H159504   5.642   5.910   2.782  0.5487 -0.1640  1.1357
12671TIP3    H259505   5.597   5.815   2.891 -0.9391 -0.7035  0.1020
12672TIP3   OH259506   3.063   5.019  13.968 -0.2334 -0.1903  0.4218
12672TIP3    H159507   3.044   5.110  13.988 -3.1018 -0.8232  1.1344
12672TIP3    H259508   3.060   4.975  14.053 -1.1552 -1.2510 -0.1331
12673TIP3   OH259509   2.390   4.325  16.790 -0.5211 -0.5344 -0.4839
12673TIP3    H159510   2.471   4.376  16.785  0.0272 -1.4733 -1.5377
12673TIP3    H259511   2.326   4.386  16.826  0.7069  0.1420  0.6738
12674TIP3   OH259512   1.856   6.135   0.021  0.6260 -0.1315 -0.2097
12674TIP3    H159513   1.819   6.054  -0.015 -0.3460  0.6251 -0.9420
12674TIP3    H259514   1.948   6.133  -0.007  0.4423 -0.6512 -0.7958
12675TIP3   OH259515   2.700   4.331  10.881  0.2698 -0.4041 -0.3367
12675TIP3    H159516   2.620   4.366  10.842  0.3544 -0.5544 -0.6532
12675TIP3    H259517   2.726   4.396  10.946 -1.0792 -1.1939  1.0296
12676TIP3   OH259518   6.220   0.388   6.282  0.5544 -0.3197 -0.2665
12676TIP3    H159519   6.127   0.405   6.294 -0.5874 -4.2233 -1.9384
12676TIP3    H259520   6.260   0.410   6.366 -1.4658  3.1618 -0.0560
12677TIP3   OH259521   1.524   2.384   2.392  0.1005  0.2459  0.1624
12677TIP3    H159522   1.558   2.465   2.431  0.0525  0.0111  0.7106
12677TIP3    H259523   1.459   2.353   2.456  0.1585 -0.2531 -0.0178
12678TIP3   OH259524   6.355   1.301  11.091 -0.0542  0.5594 -0.5893
12678TIP3    H159525   6.302   1.312  11.012  1.4282  0.5357 -1.6404
12678TIP3    H259526   6.366   1.390  11.125  1.7325  1.0030 -2.1283
12679TIP3   OH259527   3.115   1.269  15.340 -1.0625  0.0713 -0.3874
12679TIP3    H159528   3.051   1.214  15.385 -0.7428 -0.1103 -0.1431
12679TIP3    H259529   3.082   1.277  15.251 -3.0021  2.4255  0.4324
12680TIP3   OH259530   1.677   0.359  13.192  0.2101 -0.6958 -0.0103
12680TIP3    H159531   1.694   0.351  13.098  1.0831 -0.3763  0.1108
12680TIP3    H259532   1.751   0.316  13.234 -0.0485 -0.6164  0.5362
12681TIP3   OH259533   5.333   4.531  11.616  0.0075  0.1600  0.2533
12681TIP3    H159534   5.247   4.572  11.608  0.9305  1.9461 -1.8195
12681TIP3    H259535   5.352   4.499  11.528  0.7370 -1.8436  1.1010
12682TIP3   OH259536   6.079   2.832  11.510  0.5123  0.2687 -0.2298
12682TIP3    H159537   6.085   2.810  11.417 -1.8472  0.8612 -0.5647
12682TIP3    H259538   6.035   2.757  11.550  0.0929  0.6999  0.1235
12683TIP3   OH259539   0.420   1.437  13.861  0.1116  0.0457 -0.3933
12683TIP3    H159540   0.496   1.492  13.877  0.0864 -0.0655  0.1130
12683TIP3    H259541   0.345   1.490  13.887 -0.0159  0.2657 -1.1681
12684TIP3   OH259542   2.663   4.895  12.756  0.0952 -0.2824 -0.3055
12684TIP3    H159543   2.710   4.888  12.839  0.1469 -0.9676 -0.3930
12684TIP3    H259544   2.702   4.971  12.713  1.5690 -1.2089 -0.6692
12685TIP3   OH259545   6.540   3.974  13.266 -0.4684  0.5517  0.1121
12685TIP3    H159546   6.609   3.911  13.285  0.1305  1.5955  1.5500
12685TIP3    H259547   6.460   3.932  13.297 -0.3198 -0.1612 -0.4487
12686TIP3   OH259548   4.557   4.405   6.187 -0.2626 -0.1928 -0.2867
12686TIP3    H159549   4.611   4.483   6.201 -1.1570  0.6879 -1.5447
12686TIP3    H259550   4.473   4.427   6.226 -0.1196 -1.0535  0.5195
12687TIP3   OH259551   1.948   0.664   4.637  0.9310  0.5013 -0.4086
12687TIP3    H159552   1.931   0.689   4.547  0.1574  1.2216 -0.0750
12687TIP3    H259553   1.893   0.722   4.689 -0.1863 -1.2346  0.4541
12688TIP3   OH259554   5.862   5.871   3.979 -0.2820 -0.9653 -0.1661
12688TIP3    H159555   5.834   5.858   3.888 -0.8797 -0.8764  0.0017
12688TIP3    H259556   5.783   5.856   4.031 -0.3429  0.5993  0.2304
12689TIP3   OH259557   3.750   2.900   0.576  0.2582 -0.1025  0.9126
12689TIP3    H159558   3.686   2.965   0.605 -0.9958  0.0990 -1.9151
12689TIP3    H259559   3.762   2.843   0.652 -1.2889  1.3752  2.3745
12690TIP3   OH259560   1.405   3.557   4.489 -0.2315 -0.4185  0.3037
12690TIP3    H159561   1.338   3.616   4.453 -0.3322 -0.3362  0.6202
12690TIP3    H259562   1.389   3.474   4.445  0.7891  0.1405 -1.1683
12691TIP3   OH259563   6.672   1.943   5.024 -0.0673  0.2804 -0.3959
12691TIP3    H159564   6.763   1.970   5.028 -0.2054  0.8135 -0.7414
12691TIP3    H259565   6.671   1.872   4.959  0.1716 -0.0317 -0.0586
12692TIP3   OH259566   4.404   5.613  13.727 -0.3660 -0.0185  0.3136
12692TIP3    H159567   4.309   5.607  13.719 -0.5997  1.5695  1.4806
12692TIP3    H259568   4.422   5.596  13.820  0.6632 -1.7375 -0.1415
12693TIP3   OH259569   4.309   4.424   2.118 -0.5005  0.4675 -0.2329
12693TIP3    H159570   4.279   4.514   2.107 -0.8736  0.4628  0.6906
12693TIP3    H259571   4.282   4.400   2.206  2.9673  0.7499  1.0633
12694TIP3   OH259572   0.747   4.806  14.748 -0.2627 -0.1704  0.1112
12694TIP3    H159573   0.774   4.873  14.811  1.1686  0.3796 -1.0371
12694TIP3    H259574   0.712   4.855  14.674 -1.6318 -0.8076  0.3029
12695TIP3   OH259575   1.275   4.590  16.669  0.1471 -0.0011 -0.4398
12695TIP3    H159576   1.297   4.527  16.737  2.2424  1.1798  0.0448
12695TIP3    H259577   1.274   4.675  16.713 -1.0489  0.5249 -1.3931
12696TIP3   OH259578   3.798   1.665  14.033 -0.1017 -0.2455 -0.1257
12696TIP3    H159579   3.731   1.597  14.024 -1.4299  1.1909 -1.5304
12696TIP3    H259580   3.839   1.669  13.947  0.5406  0.1629  0.1968
12697TIP3   OH259581   5.895   4.700   1.146  0.2678 -0.0363 -0.0914
12697TIP3    H159582   5.840   4.669   1.218  0.2752  0.2879  0.0578
12697TIP3    H259583   5.835   4.745   1.087 -0.3468 -3.0580 -1.9965
12698TIP3   OH259584   6.319   4.201   5.318 -0.3752 -0.0380  0.2888
12698TIP3    H159585   6.289   4.288   5.344  0.9408  0.4765  0.1464
12698TIP3    H259586   6.305   4.146   5.395  0.6510  0.7747  1.0725
12699TIP3   OH259587   6.403   0.904  15.835  0.1352 -0.3026 -0.0206
12699TIP3    H159588   6.370   0.979  15.785 -1.9771  1.4666  3.5504
12699TIP3    H259589   6.480   0.937  15.881  1.0482 -1.3556 -0.7406
12700TIP3   OH259590   3.621   4.973  11.376  0.2218  0.6201 -0.2157
12700TIP3    H159591   3.710   4.985  11.344  0.4605  1.0322  0.5638
12700TIP3    H259592   3.615   4.879  11.396  0.6440  0.6670  0.1659
12701TIP3   OH259593   3.070   6.633  12.504 -0.2587  0.8513 -0.5198
12701TIP3    H159594   3.055   6.541  12.526 -0.3803  1.2924  1.4224
12701TIP3    H259595   3.001   6.654  12.441 -1.9294  0.3033  1.0416
12702TIP3   OH259596   2.240   0.411  13.324  0.6254  0.1826  0.6298
12702TIP3    H159597   2.198   0.386  13.407 -0.4094 -0.8919 -0.1820
12702TIP3    H259598   2.332   0.391  13.337  0.3108 -0.9840  1.1631
12703TIP3   OH259599   0.703   0.540  17.080 -0.0283 -0.1227  0.2075
12703TIP3    H159600   0.750   0.545  17.163  1.4224  1.7439 -0.6435
12703TIP3    H259601   0.726   0.454  17.044  1.8245  0.2544  0.3816
12704TIP3   OH259602   4.116   1.022   1.147  0.0475 -0.3985  0.5314
12704TIP3    H159603   4.206   1.020   1.181 -0.1844 -0.3696  1.1624
12704TIP3    H259604   4.064   0.980   1.216 -0.3285 -1.0454 -0.1304
12705TIP3   OH259605   0.529   2.786  10.194  0.4063 -0.8090  0.0493
12705TIP3    H159606   0.566   2.809  10.108  0.7523 -0.0508  0.3905
12705TIP3    H259607   0.565   2.851  10.254 -3.5216  1.7773 -0.0180
12706TIP3   OH259608   5.470   3.276   4.083  0.2266  0.2652  0.4243
12706TIP3    H159609   5.431   3.200   4.126 -0.6833  0.7196  0.4198
12706TIP3    H259610   5.443   3.350   4.137  0.4776  0.6634  0.0026
12707TIP3   OH259611   4.741   2.404   6.262 -0.0699  0.7296  0.4996
12707TIP3    H159612   4.754   2.324   6.212 -1.8474  1.4129 -1.2035
12707TIP3    H259613   4.778   2.473   6.206  0.3932  1.2488  1.4150
12708TIP3   OH259614   1.315   4.458   6.527 -0.3498 -0.1927  0.1755
12708TIP3    H159615   1.248   4.407   6.575 -0.8212  0.9049  0.7109
12708TIP3    H259616   1.367   4.391   6.482 -2.2793 -1.0594 -0.9056
12709TIP3   OH259617   5.147   6.421  12.017  0.3436 -0.5684 -0.7050
12709TIP3    H159618   5.060   6.380  12.011 -0.4827  0.6675  1.4862
12709TIP3    H259619   5.195   6.364  12.077  0.2078  0.0434 -0.0098
12710TIP3   OH259620   2.881   6.821  10.725  0.2104 -0.0526  0.0728
12710TIP3    H159621   2.841   6.793  10.642  1.0007  1.4534 -0.8580
12710TIP3    H259622   2.811   6.868  10.770 -0.2309 -0.8986  0.3068
12711TIP3   OH259623   6.515   3.635   0.330 -0.3684  0.6575  0.2469
12711TIP3    H159624   6.603   3.653   0.363  0.9765 -0.5357 -2.3671
12711TIP3    H259625   6.486   3.559   0.379  0.8304 -0.0051 -0.0284
12712TIP3   OH259626   5.992   5.442  13.525  0.0374 -0.1306 -0.4501
12712TIP3    H159627   6.072   5.453  13.577  0.1993  1.1806 -0.9268
12712TIP3    H259628   5.968   5.532  13.500 -2.2251 -0.3519  0.6288
12713TIP3   OH259629   6.491   3.398   1.087 -0.1343 -0.0676 -0.1809
12713TIP3    H159630   6.402   3.397   1.051  0.3276  0.0076 -1.3740
12713TIP3    H259631   6.495   3.476   1.142 -0.5219  0.4679 -0.8979
12714TIP3   OH259632   1.478   5.228  15.837  0.3273  0.3499 -0.2515
12714TIP3    H159633   1.472   5.266  15.749 -1.6191 -1.6393 -1.0922
12714TIP3    H259634   1.390   5.242  15.874  0.7986  0.1948  0.9544
12715TIP3   OH259635   2.461   0.147  12.084  0.3767  0.7789 -1.0392
12715TIP3    H159636   2.431   0.074  12.139 -0.0611  0.7942 -1.2563
12715TIP3    H259637   2.381   0.191  12.058  0.6989  2.7461  0.9889
12716TIP3   OH259638   0.914   2.676  13.452  0.1989 -0.2450  0.3719
12716TIP3    H159639   0.950   2.611  13.512 -1.8105  0.0470  1.9925
12716TIP3    H259640   0.897   2.629  13.371  0.2104 -1.3700  1.0135
12717TIP3   OH259641   1.734   5.264   3.713 -0.1181 -0.0325 -0.4711
12717TIP3    H159642   1.647   5.237   3.742 -0.0176  0.7531  0.6593
12717TIP3    H259643   1.752   5.343   3.764  0.9235  0.2805 -1.2917
12718TIP3   OH259644   4.273   4.133   0.113 -0.1470  0.1462  0.1083
12718TIP3    H159645   4.251   4.059   0.170 -1.4523  0.5211  0.1359
12718TIP3    H259646   4.368   4.138   0.115 -0.1305  0.8538  3.2163
12719TIP3   OH259647   2.089   1.491   4.612  0.0989 -0.1379  0.2918
12719TIP3    H159648   2.041   1.529   4.686 -2.8169 -0.9914 -1.0294
12719TIP3    H259649   2.077   1.397   4.621  0.8619 -0.3279 -0.5491
12720TIP3   OH259650   4.035   0.934   2.092  0.0608 -0.1232 -0.2151
12720TIP3    H159651   3.976   0.931   2.167  0.9347  3.5056  0.7855
12720TIP3    H259652   3.978   0.952   2.017 -0.4270  0.2414  0.2383
12721TIP3   OH259653   6.129   2.521  16.627 -0.3420 -0.0551  0.3606
12721TIP3    H159654   6.209   2.492  16.585 -0.0212  0.1138  0.8462
12721TIP3    H259655   6.059   2.485  16.573  0.0489 -1.0296  0.4776
12722TIP3   OH259656   6.552   3.232   3.510  0.1628 -0.2203 -0.0949
12722TIP3    H159657   6.627   3.292   3.507 -0.0134 -0.0262 -0.6693
12722TIP3    H259658   6.496   3.266   3.580 -1.6029  2.2850 -2.5313
12723TIP3   OH259659   3.762   0.111  14.849  0.5844 -0.5079  0.2505
12723TIP3    H159660   3.718   0.162  14.781  1.5609 -0.7133 -0.5536
12723TIP3    H259661   3.698   0.043  14.873 -0.4178  0.5646  0.7655
12724TIP3   OH259662   6.581   4.561   1.034 -0.3488 -0.1998  0.2154
12724TIP3    H159663   6.542   4.483   0.994 -1.8421 -0.0722  1.3418
12724TIP3    H259664   6.520   4.587   1.103  1.4012  0.4463  1.6303
12725TIP3   OH259665   5.292   4.454   3.227  0.0812 -0.1436 -0.3872
12725TIP3    H159666   5.354   4.492   3.164 -1.3303  0.8933 -1.1874
12725TIP3    H259667   5.274   4.366   3.192  2.1864 -1.0857  0.6653
12726TIP3   OH259668   4.534   4.896   3.852 -0.2783  0.2801 -0.2159
12726TIP3    H159669   4.482   4.820   3.880  0.9467 -0.5491 -0.1171
12726TIP3    H259670   4.514   4.905   3.759  0.8454 -1.2721 -0.6603
12727TIP3   OH259671   3.643   3.324   0.580 -0.0037 -0.1325 -0.6193
12727TIP3    H159672   3.608   3.345   0.666  0.9010 -1.5000  0.1249
12727TIP3    H259673   3.645   3.407   0.533 -1.9482  0.3868  0.1220
12728TIP3   OH259674   0.734   1.665  11.264 -0.9544  0.5240  0.4153
12728TIP3    H159675   0.675   1.679  11.190 -0.2710  1.0393 -0.0396
12728TIP3    H259676   0.680   1.683  11.341 -1.9847 -1.0750  0.1190
12729TIP3   OH259677   2.976   3.708  10.370 -0.6168 -0.1289  0.4105
12729TIP3    H159678   2.953   3.616  10.382  1.5039 -0.6851  0.4665
12729TIP3    H259679   3.060   3.718  10.414  0.2039  1.3274 -1.3393
12730TIP3   OH259680   3.508   2.419   4.994 -0.4149 -0.0552  0.1354
12730TIP3    H159681   3.446   2.464   5.050 -1.8197 -1.5926 -0.1181
12730TIP3    H259682   3.455   2.362   4.939  1.1079 -0.3340 -1.1409
12731TIP3   OH259683   6.222   2.184  12.751  0.0475  0.0189 -0.4545
12731TIP3    H159684   6.230   2.101  12.798  1.1789  0.4985  0.2315
12731TIP3    H259685   6.311   2.205  12.724  0.0238  1.6851  0.5915
12732TIP3   OH259686   2.284   0.988   2.195 -0.6673  0.1116 -0.4940
12732TIP3    H159687   2.302   1.016   2.285 -0.9413  3.0325 -1.2521
12732TIP3    H259688   2.361   1.015   2.145 -0.7799 -0.9165 -1.2547
12733TIP3   OH259689   3.610   0.638   5.449 -0.4955  0.1377 -0.5243
12733TIP3    H159690   3.612   0.628   5.544 -0.8995  1.4392 -0.3595
12733TIP3    H259691   3.674   0.574   5.417  0.3961  0.3874  0.6843
12734TIP3   OH259692   4.177   5.316  15.352 -0.1841  0.6746  0.1148
12734TIP3    H159693   4.249   5.255  15.369 -0.1659  1.3301  2.8797
12734TIP3    H259694   4.221   5.396  15.322  0.0588  0.4727 -0.0820
12735TIP3   OH259695   0.094   2.772  12.271 -0.2928 -0.1542 -0.1318
12735TIP3    H159696   0.036   2.697  12.283  0.2859 -0.5925 -0.0739
12735TIP3    H259697   0.172   2.737  12.229  0.7870  0.0557  1.6073
12736TIP3   OH259698   4.429   2.849  13.451  0.3226 -0.0119  0.4943
12736TIP3    H159699   4.520   2.847  13.480  0.3840  0.5683  0.3575
12736TIP3    H259700   4.383   2.791  13.512  0.6829  0.1398  0.9160
12737TIP3   OH259701   3.817   5.838   5.255  0.2275 -0.3504 -0.1799
12737TIP3    H159702   3.860   5.753   5.258 -1.0803 -1.0237  1.6040
12737TIP3    H259703   3.731   5.820   5.217 -0.3261  0.0215  0.8646
12738TIP3   OH259704   0.895   0.061   3.638 -0.8265  0.4902 -0.6281
12738TIP3    H159705   0.841   0.138   3.656 -2.1346 -0.3303 -0.8827
12738TIP3    H259706   0.984   0.087   3.663 -1.2233  2.0961 -0.7982
12739TIP3   OH259707   6.160   3.752   5.322  0.1445  0.5161  0.0057
12739TIP3    H159708   6.133   3.660   5.318  0.0366  0.5731 -2.0897
12739TIP3    H259709   6.256   3.750   5.324  0.1789  0.3238 -1.0415
12740TIP3   OH259710   6.807   2.206   3.651  0.2050 -0.0759 -0.1494
12740TIP3    H159711   6.889   2.198   3.698 -0.3466 -3.0923  0.4630
12740TIP3    H259712   6.833   2.217   3.559  1.3628 -2.5411 -0.1825
12741TIP3   OH259713   5.459   1.067  12.148  0.3139  0.2869  0.8111
12741TIP3    H159714   5.553   1.083  12.153  0.3783  0.3218 -0.2232
12741TIP3    H259715   5.435   1.094  12.059 -0.6248  0.0286  0.9729
12742TIP3   OH259716   4.064   2.295  11.744 -0.0573  0.6231 -0.0010
12742TIP3    H159717   4.010   2.317  11.667  0.9406  1.2941 -0.5358
12742TIP3    H259718   4.085   2.380  11.783  1.4755  0.4570 -0.4165
12743TIP3   OH259719   1.396   0.649  15.604  0.6014  0.0171 -0.2844
12743TIP3    H159720   1.414   0.666  15.697 -1.5061 -1.0668  0.3862
12743TIP3    H259721   1.342   0.722  15.576 -0.2417 -0.5263 -0.1279
12744TIP3   OH259722   1.297   5.398  16.404 -0.7679  0.1086  0.1973
12744TIP3    H159723   1.358   5.333  16.439  1.7254  1.5849 -1.0886
12744TIP3    H259724   1.308   5.474  16.461  0.2741  1.1199 -1.2626
12745TIP3   OH259725   4.497   3.486   3.754  0.0227 -0.0517  0.0107
12745TIP3    H159726   4.575   3.538   3.773  0.0842 -0.6672  1.5689
12745TIP3    H259727   4.529   3.396   3.748 -0.2383 -0.0734 -1.6865
12746TIP3   OH259728   6.581   0.146   3.199 -0.3983  0.3145  0.1973
12746TIP3    H159729   6.501   0.189   3.227 -0.9519  0.8229 -1.9825
12746TIP3    H259730   6.583   0.064   3.248 -1.6842  0.7677  1.0479
12747TIP3   OH259731   6.670   5.852  14.966 -0.3931 -0.0075  0.2866
12747TIP3    H159732   6.684   5.885  15.055  1.2045  0.9737 -0.2990
12747TIP3    H259733   6.757   5.831  14.934 -1.1144 -2.1932 -0.4034
12748TIP3   OH259734   0.243   4.538   3.422 -0.1870  0.3813  0.0769
12748TIP3    H159735   0.215   4.572   3.507 -4.4905 -4.0785  0.9003
12748TIP3    H259736   0.182   4.578   3.360 -1.5797 -1.3787  0.2410
12749TIP3   OH259737   6.536   0.636   3.400  0.4081  0.3823 -0.0757
12749TIP3    H159738   6.476   0.562   3.397  1.6503 -0.6540 -0.1805
12749TIP3    H259739   6.542   0.659   3.493  1.3711 -0.8090  0.1728
12750TIP3   OH259740   5.122   1.712  13.275 -0.2696  0.0227  0.0152
12750TIP3    H159741   5.136   1.697  13.182 -0.1376 -1.5259  0.2490
12750TIP3    H259742   5.195   1.767  13.302 -0.6902  1.0587 -0.9204
12751TIP3   OH259743   1.822   4.881   2.725 -0.1028 -0.4590  0.1628
12751TIP3    H159744   1.799   4.793   2.695  1.6199 -0.5934 -0.8967
12751TIP3    H259745   1.741   4.930   2.718 -1.3147 -2.1506  1.5897
12752TIP3   OH259746   4.158   2.207  13.502 -0.1840  0.1441 -0.1863
12752TIP3    H159747   4.101   2.284  13.501 -0.0254  0.2860  0.7109
12752TIP3    H259748   4.100   2.135  13.526 -0.1879  0.1157 -0.2834
12753TIP3   OH259749   0.636   2.354  14.307 -0.1196 -0.0267 -0.3016
12753TIP3    H159750   0.667   2.289  14.243 -1.5754 -0.5479 -0.5272
12753TIP3    H259751   0.544   2.368  14.283  0.1273  2.0566 -0.1788
12754TIP3   OH259752   4.652   4.615   0.767  0.1669  0.0792 -0.0977
12754TIP3    H159753   4.614   4.667   0.696 -0.6715 -0.3966 -0.0134
12754TIP3    H259754   4.681   4.534   0.724  0.0534 -0.0302  0.0312
12755TIP3   OH259755   5.349   4.973   4.322  0.1632  0.2786 -0.4024
12755TIP3    H159756   5.341   4.956   4.416  1.4975  2.7580  0.2714
12755TIP3    H259757   5.285   4.915   4.281  1.0069 -2.4552  1.8110
12756TIP3   OH259758   5.511   1.664  13.343  1.0840  0.1283 -0.1604
12756TIP3    H159759   5.580   1.600  13.362 -0.1451 -1.0074  0.6097
12756TIP3    H259760   5.445   1.615  13.295  0.7427  1.1728 -0.7728
12757TIP3   OH259761   2.413   3.319  14.675 -0.3221  0.1178 -0.9614
12757TIP3    H159762   2.426   3.261  14.750  1.1735  1.2461 -0.2906
12757TIP3    H259763   2.460   3.276  14.603  2.5088  1.3315  0.0149
12758TIP3   OH259764   0.451   3.337  14.766 -0.2627  0.0085  0.1695
12758TIP3    H159765   0.446   3.293  14.850 -0.2441 -0.6532 -0.1744
12758TIP3    H259766   0.443   3.267  14.701  1.3776  0.3049 -0.3883
12759TIP3   OH259767   6.028   0.151  14.916  0.0410 -1.2135  0.5351
12759TIP3    H159768   6.038   0.127  14.824 -1.4815 -0.3295  0.1050
12759TIP3    H259769   5.980   0.078  14.955 -0.6415 -0.9187  0.2634
12760TIP3   OH259770   2.642   0.478   1.719 -0.2432  0.3362  0.1206
12760TIP3    H159771   2.558   0.518   1.698  0.0448  1.1359  0.4652
12760TIP3    H259772   2.625   0.384   1.718 -0.7992  0.4300 -1.2354
12761TIP3   OH259773   3.058   1.551  15.480  0.1448  0.6910 -0.8327
12761TIP3    H159774   2.969   1.542  15.513 -0.1802 -0.0916 -1.8740
12761TIP3    H259775   3.077   1.468  15.436  2.8750 -0.7745  2.6803
12762TIP3   OH259776   1.702   4.812   1.258 -0.4517 -0.4577 -0.7891
12762TIP3    H159777   1.796   4.806   1.276 -0.5859 -0.3054 -0.0190
12762TIP3    H259778   1.690   4.901   1.225 -0.2736 -0.5997 -1.2541
12763TIP3   OH259779   1.333   3.208  16.097 -0.5028  0.5676 -0.1189
12763TIP3    H159780   1.238   3.214  16.110 -0.5505  0.2465 -0.3073
12763TIP3    H259781   1.371   3.239  16.179 -0.7860 -0.2665  0.3342
12764TIP3   OH259782   4.943   6.212   0.092 -0.4053  0.1532 -0.0336
12764TIP3    H159783   4.972   6.242   0.178  1.9981  2.1784 -1.4070
12764TIP3    H259784   4.966   6.119   0.090  0.4016  0.3044  1.1561
12765TIP3   OH259785   1.314   0.619  11.985  0.1966  0.2350 -0.2550
12765TIP3    H159786   1.224   0.587  11.982  0.5886 -1.1600  1.3912
12765TIP3    H259787   1.311   0.695  12.042 -0.3682  2.0260 -2.5033
12766TIP3   OH259788   0.030   2.504   3.443 -0.5152  0.3387  0.1643
12766TIP3    H159789  -0.013   2.539   3.364  1.3059  0.4709 -0.8178
12766TIP3    H259790   0.021   2.574   3.508 -3.1981 -0.2747  0.5717
12767TIP3   OH259791   4.944   3.399   3.742  0.0121 -0.3156 -0.6487
12767TIP3    H159792   4.916   3.350   3.664  2.3383 -2.5950 -0.2074
12767TIP3    H259793   4.894   3.360   3.813 -0.0262 -0.2246 -0.6257
12768TIP3   OH259794   1.943   5.223   4.004  0.6729  0.3318  0.2297
12768TIP3    H159795   2.011   5.270   4.054  1.0246 -0.5217  0.5684
12768TIP3    H259796   1.978   5.220   3.914  1.4954 -0.8161  0.5591
12769TIP3   OH259797   0.118   4.217   1.112  0.3110  0.6414  0.6991
12769TIP3    H159798   0.175   4.265   1.052 -2.2149  3.1714  0.0732
12769TIP3    H259799   0.053   4.176   1.054  0.2798 -0.4883  1.5072
12770TIP3   OH259800   2.712   3.913  16.732 -0.1605  0.5412  0.0974
12770TIP3    H159801   2.679   3.858  16.802 -0.0759  1.7837  1.1461
12770TIP3    H259802   2.737   3.852  16.662  0.4479 -0.7762  1.4331
12771TIP3   OH259803   1.057   2.901  12.251 -0.5595 -0.4358 -0.6834
12771TIP3    H159804   1.130   2.849  12.215  0.2428 -0.1665  0.4970
12771TIP3    H259805   1.028   2.852  12.328  0.1857  0.8059  0.4312
12772TIP3   OH259806   2.057   3.653   2.693 -0.5122  0.2627  0.5499
12772TIP3    H159807   1.971   3.633   2.729  0.1040 -1.6828  1.0936
12772TIP3    H259808   2.115   3.588   2.732  0.7480 -0.0386 -1.6270
12773TIP3   OH259809   5.738   0.365   0.658  0.2349  0.0805  0.6108
12773TIP3    H159810   5.742   0.422   0.734 -0.1923  1.1572 -0.1458
12773TIP3    H259811   5.696   0.418   0.590  1.8326 -0.3681 -0.8105
12774TIP3   OH259812   5.803   3.902  15.713  0.2895  0.1140  0.4153
12774TIP3    H159813   5.750   3.825  15.737  0.0097  0.0098 -0.4973
12774TIP3    H259814   5.774   3.924  15.625 -0.5342  2.0423  1.1034
12775TIP3   OH259815   2.422   0.920  15.851  0.3765 -0.4305  0.0020
12775TIP3    H159816   2.374   1.000  15.831  0.5594 -0.6977 -1.6278
12775TIP3    H259817   2.369   0.850  15.814  1.7148 -0.7739 -1.3640
12776TIP3   OH259818   6.709   3.031  14.909 -0.2592  0.4287  0.5910
12776TIP3    H159819   6.736   3.122  14.895  0.9994  0.5036  2.8952
12776TIP3    H259820   6.688   2.998  14.822 -0.9940  2.9873 -0.2782
12777TIP3   OH259821   6.769   4.051   4.600  0.4799  0.0298  0.1167
12777TIP3    H159822   6.735   4.015   4.518 -0.4853 -2.4457  1.4602
12777TIP3    H259823   6.718   4.131   4.615  1.1281  0.8811 -1.9437
12778TIP3   OH259824   1.231   2.673  14.320  0.0278 -0.2171 -0.4648
12778TIP3    H159825   1.184   2.622  14.385  0.6275  0.5777  0.6294
12778TIP3    H259826   1.298   2.720  14.370 -0.1983  1.2661 -1.4778
12779TIP3   OH259827   6.589   5.505  12.308  0.0762  0.2107 -0.1665
12779TIP3    H159828   6.580   5.596  12.278  0.4213 -0.1126 -1.2938
12779TIP3    H259829   6.671   5.504  12.356  0.3963  0.3630 -0.6992
12780TIP3   OH259830   0.602   2.070  13.513 -0.1945 -0.2783 -0.6152
12780TIP3    H159831   0.689   2.095  13.545 -0.0932  0.1007 -1.1722
12780TIP3    H259832   0.588   1.982  13.547 -0.0012  0.0284  0.2986
12781TIP3   OH259833   4.483   0.131   4.283  0.0518  0.5761  0.0914
12781TIP3    H159834   4.451   0.221   4.288  0.9171  0.8630  0.7294
12781TIP3    H259835   4.573   0.139   4.253  0.8448  0.0961  2.1926
12782TIP3   OH259836   1.428   1.456  10.868 -0.1328  0.2576 -0.2332
12782TIP3    H159837   1.426   1.433  10.776 -0.3291 -1.2096  0.1190
12782TIP3    H259838   1.502   1.408  10.904 -1.0516 -0.5090  0.6985
12783TIP3   OH259839   0.750   1.936  10.630 -0.5859  0.2651 -0.3285
12783TIP3    H159840   0.734   1.842  10.620 -1.5438  0.2942  0.7158
12783TIP3    H259841   0.802   1.944  10.709  2.9332  0.3754 -2.4416
12784TIP3   OH259842   1.554   2.050  12.949  0.4078  0.1651 -0.8398
12784TIP3    H159843   1.629   2.106  12.929  0.5494  0.1182 -0.4553
12784TIP3    H259844   1.515   2.091  13.027  1.2804 -1.0032  0.2553
12785TIP3   OH259845   4.076   0.421   0.976 -0.3146  0.1772 -0.0038
12785TIP3    H159846   4.140   0.467   1.031 -0.7176  0.1559  0.4857
12785TIP3    H259847   3.991   0.452   1.007 -0.5439  0.1471 -0.6044
12786TIP3   OH259848   2.519   1.681   4.063 -0.0977  0.2308  0.0529
12786TIP3    H159849   2.483   1.739   3.996 -0.7421  1.5849  1.5020
12786TIP3    H259850   2.443   1.646   4.108  0.2779 -1.8419 -0.8060
12787TIP3   OH259851   2.905   3.654  16.923 -0.2363 -0.2370 -0.0741
12787TIP3    H159852   2.821   3.621  16.891 -0.2452 -0.2674 -0.0197
12787TIP3    H259853   2.907   3.628  17.015 -1.5672  2.4624  0.8297
12788TIP3   OH259854   5.415   6.585   1.559  0.5614  0.9640 -0.5273
12788TIP3    H159855   5.331   6.598   1.603  0.4001 -0.9712 -0.1487
12788TIP3    H259856   5.460   6.669   1.567 -1.1040  1.8705 -0.2433
12789TIP3   OH259857   6.273   3.747  14.178  0.3586 -0.2130 -0.0119
12789TIP3    H159858   6.328   3.698  14.117 -0.1352 -1.2723  0.3500
12789TIP3    H259859   6.197   3.689  14.192  0.6512 -0.1864  1.8992
12790TIP3   OH259860   2.958   0.281   1.866  0.5600  0.3870  0.3515
12790TIP3    H159861   2.924   0.370   1.856  0.3766  0.3044  0.2274
12790TIP3    H259862   3.033   0.290   1.926  1.4226  0.8440 -0.7492
12791TIP3   OH259863   6.277   5.510  16.295  0.5906 -0.3603 -0.1603
12791TIP3    H159864   6.350   5.452  16.274 -0.8474 -2.3081 -0.1163
12791TIP3    H259865   6.266   5.501  16.390 -0.4572 -1.0735 -0.3338
12792TIP3   OH259866   4.651   6.563   2.475  0.4358  0.2086  0.2807
12792TIP3    H159867   4.567   6.586   2.435  0.1229  0.1119  0.8827
12792TIP3    H259868   4.716   6.604   2.417  0.1323 -1.9867 -1.7802
12793TIP3   OH259869   5.015   5.988   6.866 -0.7226 -0.0093  0.2318
12793TIP3    H159870   5.045   5.966   6.778  0.2274 -0.3313  0.6226
12793TIP3    H259871   4.923   5.961   6.868 -0.4397 -1.0430 -0.3014
12794TIP3   OH259872   6.739   6.811   1.226  0.3642 -0.2425 -0.3196
12794TIP3    H159873   6.696   6.862   1.157 -0.8402 -1.5747 -0.6012
12794TIP3    H259874   6.769   6.876   1.289 -1.4822  0.8032 -0.4594
12795TIP3   OH259875   4.233   3.791   5.614  0.2128 -0.7067  0.1572
12795TIP3    H159876   4.170   3.721   5.631  0.3870 -1.0073 -0.3916
12795TIP3    H259877   4.266   3.817   5.700  1.7417 -2.7734  0.2635
12796TIP3   OH259878   3.286   3.452   5.774  0.0447 -0.3323 -0.6249
12796TIP3    H159879   3.245   3.533   5.806  0.3360 -0.1895 -0.6168
12796TIP3    H259880   3.212   3.394   5.758 -0.0620 -0.9257  1.6525
12797TIP3   OH259881   6.678   4.057  11.091 -0.1377 -0.2166  0.5698
12797TIP3    H159882   6.635   4.139  11.118 -1.4723 -0.8209  0.3650
12797TIP3    H259883   6.711   4.020  11.173 -0.2464  0.1246  0.7706
12798TIP3   OH259884   0.585   3.453  13.825 -0.0321  0.2240 -0.4180
12798TIP3    H159885   0.678   3.469  13.842  0.1071  0.8667 -1.6798
12798TIP3    H259886   0.541   3.477  13.907  0.8769  0.2497  0.0695
12799TIP3   OH259887   5.996   6.841   1.623  0.4870  0.6153 -0.4032
12799TIP3    H159888   6.001   6.817   1.715  1.4207 -2.7061 -1.1993
12799TIP3    H259889   6.088   6.854   1.597  0.1947  2.1259 -0.7809
12800TIP3   OH259890   4.176   6.567  12.104 -0.2547  0.0287 -0.6653
12800TIP3    H159891   4.182   6.512  12.026 -0.8788  1.4447 -1.7484
12800TIP3    H259892   4.226   6.520  12.170  1.3349 -0.6103 -2.2580
12801TIP3   OH259893   4.202   5.001  11.782 -0.1233 -0.7538  0.3794
12801TIP3    H159894   4.213   4.916  11.738  1.2289 -0.8837  0.9246
12801TIP3    H259895   4.286   5.045  11.771 -0.1107 -0.3448  1.8640
12802TIP3   OH259896   0.350   6.167  11.380 -0.1559  0.6048  0.5076
12802TIP3    H159897   0.258   6.147  11.397  0.0522  1.1511  2.5308
12802TIP3    H259898   0.389   6.174  11.467  1.8167  0.3531 -0.3100
12803TIP3   OH259899   3.158   4.416  10.770 -0.4127  0.0109  0.4236
12803TIP3    H159900   3.079   4.435  10.719 -1.2602 -0.7256  1.3873
12803TIP3    H259901   3.213   4.366  10.711 -0.5641  0.7418 -0.3473
12804TIP3   OH259902   5.861   3.485  12.748 -0.0964 -0.1767  0.3678
12804TIP3    H159903   5.954   3.504  12.737 -0.2376 -0.8599 -2.6703
12804TIP3    H259904   5.831   3.551  12.812  1.9900  1.5587 -0.3206
12805TIP3   OH259905   1.553   5.535   3.639  0.2554 -0.0582 -0.7857
12805TIP3    H159906   1.620   5.512   3.575  1.1914 -0.4237  0.3034
12805TIP3    H259907   1.596   5.598   3.697  0.1647 -1.3947  0.8047
12806TIP3   OH259908   6.252   4.392  14.137  0.2156 -0.2492 -0.4531
12806TIP3    H159909   6.224   4.395  14.046 -1.6358  0.1820  0.0942
12806TIP3    H259910   6.279   4.482  14.157  1.1836 -0.4692 -0.7205
12807TIP3   OH259911   4.569   1.592   5.425  0.1941  0.2900  0.2642
12807TIP3    H159912   4.485   1.575   5.467  0.3135  0.6840  0.6737
12807TIP3    H259913   4.553   1.580   5.332 -0.1377 -0.3575  0.3970
12808TIP3   OH259914   6.036   5.001   1.172 -0.2777 -0.0570  0.0070
12808TIP3    H159915   5.985   4.988   1.252  0.4932 -0.5921  0.4256
12808TIP3    H259916   6.059   4.912   1.144 -0.0751  0.1536 -0.5022
12809TIP3   OH259917   6.490   1.034  15.216 -0.5635  0.1816 -0.3727
12809TIP3    H159918   6.411   0.994  15.179 -1.5643  1.5663  0.1794
12809TIP3    H259919   6.561   1.007  15.157 -1.4250 -1.1181 -0.8588
12810TIP3   OH259920   3.275   6.379   5.426 -0.1624 -0.3012 -0.2170
12810TIP3    H159921   3.257   6.285   5.423  0.1263 -0.6491  3.6586
12810TIP3    H259922   3.220   6.411   5.497  1.0951  2.0983 -0.2401
12811TIP3   OH259923   5.124   6.306  14.793 -0.3390  0.5863  0.3852
12811TIP3    H159924   5.076   6.262  14.722 -0.1202 -0.4101  0.8416
12811TIP3    H259925   5.056   6.326  14.858 -0.0864 -1.4099  1.3241
12812TIP3   OH259926   6.237   1.841  10.924 -0.4429 -0.2833  0.4517
12812TIP3    H159927   6.167   1.820  10.862  0.6882 -1.0167 -0.6311
12812TIP3    H259928   6.230   1.935  10.938  0.6598  0.3748 -2.6281
12813TIP3   OH259929   1.893   6.368   5.260  0.9316 -0.3724 -0.0908
12813TIP3    H159930   1.892   6.464   5.267 -0.7817 -0.2768 -1.1541
12813TIP3    H259931   1.972   6.349   5.208  1.7117  0.3815  0.7781
12814TIP3   OH259932   1.537   1.555  11.854  0.2731  0.2218 -0.0272
12814TIP3    H159933   1.488   1.494  11.909  1.2396  1.4708  2.3665
12814TIP3    H259934   1.499   1.545  11.767 -2.1932 -0.9741  1.0934
12815TIP3   OH259935   2.291   3.777  15.143 -0.1263 -0.0605  0.5627
12815TIP3    H159936   2.343   3.728  15.206 -0.8871  1.1718  2.2226
12815TIP3    H259937   2.228   3.826  15.196 -1.0038  0.7998 -1.1732
12816TIP3   OH259938   4.716   1.960   4.510 -0.2050  0.0268  1.0320
12816TIP3    H159939   4.711   2.012   4.429 -0.6511  0.7703  1.5189
12816TIP3    H259940   4.750   2.022   4.575  2.8114 -1.2782  0.8377
12817TIP3   OH259941   5.584   5.157   4.548 -0.0555 -0.1994 -0.1936
12817TIP3    H159942   5.653   5.117   4.495 -0.9220 -0.6334 -1.0330
12817TIP3    H259943   5.605   5.131   4.638  1.9140  1.2502 -0.1772
12818TIP3   OH259944   5.840   5.674   2.916  0.8677  0.2735 -0.0433
12818TIP3    H159945   5.765   5.682   2.858  0.0208 -2.6824  0.4824
12818TIP3    H259946   5.911   5.643   2.860  0.6537 -0.4530  0.0733
12819TIP3   OH259947   0.127   4.637   3.663  0.1979 -0.0508 -0.4155
12819TIP3    H159948   0.127   4.660   3.756  1.3772 -3.4006  0.5779
12819TIP3    H259949   0.040   4.601   3.648  0.3253 -0.4125 -0.3089
12820TIP3   OH259950   2.847   0.337   3.167 -0.5112 -0.1054 -0.1207
12820TIP3    H159951   2.781   0.404   3.185 -1.1247 -0.4166 -1.1066
12820TIP3    H259952   2.900   0.373   3.096  0.3994  0.1429  0.6658
12821TIP3   OH259953   5.115   4.587   3.466  0.0193  0.3043 -0.0484
12821TIP3    H159954   5.147   4.670   3.431 -1.8205 -0.2505 -3.5565
12821TIP3    H259955   5.034   4.609   3.510 -0.1881  0.4408 -0.4960
12822TIP3   OH259956   4.435   2.474  12.775  0.1445 -0.1114 -0.0119
12822TIP3    H159957   4.360   2.527  12.804 -0.8991 -1.8422  0.6079
12822TIP3    H259958   4.438   2.488  12.680 -1.4526 -0.5522 -0.1638
12823TIP3   OH259959   0.602   3.831   3.819  0.0162 -0.2884  0.2608
12823TIP3    H159960   0.581   3.739   3.838  1.1696 -0.8428 -0.9500
12823TIP3    H259961   0.518   3.871   3.799 -0.3786 -1.3862 -0.3827
12824TIP3   OH259962   1.316   0.369  15.775  0.1543  0.1933 -0.2162
12824TIP3    H159963   1.293   0.313  15.848  1.4334 -0.9981 -0.6794
12824TIP3    H259964   1.412   0.374  15.778  0.1646  0.9042 -1.2360
12825TIP3   OH259965   2.332   0.372   1.549  0.7449 -0.4000  0.1310
12825TIP3    H159966   2.392   0.439   1.515  0.4299  0.6931  1.6316
12825TIP3    H259967   2.259   0.372   1.487  1.0579  0.1580 -0.2523
12826TIP3   OH259968   0.585   3.828  14.815  0.4411  0.5919 -0.5691
12826TIP3    H159969   0.536   3.746  14.810  0.4953  0.6143 -2.1140
12826TIP3    H259970   0.547   3.875  14.889 -2.1365  0.7423 -1.8745
12827TIP3   OH259971   0.068   1.222  12.774  0.2864  0.2496 -0.0813
12827TIP3    H159972   0.062   1.127  12.782  2.3720  0.1571  0.9160
12827TIP3    H259973  -0.013   1.254  12.816 -0.3447 -1.0572 -0.2604
12828TIP3   OH259974   5.079   2.817  11.273 -0.3792  0.2917  0.0263
12828TIP3    H159975   5.086   2.728  11.307 -0.5140  0.8200  1.5133
12828TIP3    H259976   4.985   2.838  11.281 -0.4814  0.3073 -1.0470
12829TIP3   OH259977   5.377   1.897   1.933 -0.5430 -0.1011  0.0746
12829TIP3    H159978   5.317   1.839   1.887  0.9275 -1.2780 -0.4178
12829TIP3    H259979   5.444   1.840   1.969  1.5398  1.2945 -1.2892
12830TIP3   OH259980   3.892   5.029   6.775  0.4641 -0.2346  1.0762
12830TIP3    H159981   3.970   5.048   6.826  1.9394 -0.1487 -1.0748
12830TIP3    H259982   3.836   5.105   6.787  1.1554  0.1688  1.8416
12831TIP3   OH259983   5.248   0.488  14.764 -0.5175 -0.1981  0.6166
12831TIP3    H159984   5.334   0.463  14.730 -0.1908  1.5608  0.0580
12831TIP3    H259985   5.236   0.579  14.735 -2.3596 -0.2488  1.0928
12832TIP3   OH259986   4.085   2.031  14.258 -0.8120  0.0015  0.2000
12832TIP3    H159987   4.158   2.015  14.199 -0.3087  0.3793  0.7104
12832TIP3    H259988   4.010   1.989  14.215 -0.6966  1.1972 -1.2433
12833TIP3   OH259989   6.449   2.476  12.789 -0.0359 -0.4368  0.5895
12833TIP3    H159990   6.484   2.557  12.826  0.9744 -0.5622 -0.0487
12833TIP3    H259991   6.374   2.505  12.736  0.0144  0.0240  0.7631
12834TIP3   OH259992   0.400   5.974   2.824  0.3464 -0.0496 -0.3786
12834TIP3    H159993   0.453   6.031   2.879 -0.0459  1.5886 -1.6016
12834TIP3    H259994   0.458   5.953   2.750 -0.3280  0.9007 -1.2015
12835TIP3   OH259995   2.898   0.545   1.000  0.0134 -0.2170 -0.0074
12835TIP3    H159996   2.803   0.543   1.001 -0.0119  0.5021 -0.1757
12835TIP3    H259997   2.924   0.454   0.985 -0.6248 -0.5258  0.7285
12836TIP3   OH259998   4.596   1.930  16.084 -0.3311  0.4366 -0.4698
12836TIP3    H159999   4.615   2.024  16.083 -0.3575  0.4459 -1.3990
12836TIP3    H260000   4.599   1.906  16.176 -1.0911  1.5103 -0.1374
12837TIP3   OH260001   4.013   4.744   1.543 -0.5310  0.4474 -0.3229
12837TIP3    H160002   3.959   4.687   1.598 -1.8327  1.9192 -0.0062
12837TIP3    H260003   3.983   4.725   1.454 -0.4945  0.1768 -0.2802
12838TIP3   OH260004   0.109   1.812  14.863  0.0644  0.6371 -0.0223
12838TIP3    H160005   0.193   1.851  14.838 -0.3257  0.5018 -1.6865
12838TIP3    H260006   0.128   1.719  14.870 -0.0849  0.4951 -1.2150
12839TIP3   OH260007   1.172   3.023  11.415  0.0778  0.1867 -0.7425
12839TIP3    H160008   1.165   2.982  11.328  0.4658 -1.5357 -0.0019
12839TIP3    H260009   1.089   3.001  11.458  0.5806 -0.4346 -0.0827
12840TIP3   OH260010   5.752   6.498   2.542 -0.5150  0.0830  0.3511
12840TIP3    H160011   5.761   6.551   2.621  0.3188  0.0265  0.3125
12840TIP3    H260012   5.685   6.434   2.563  1.7069 -1.8382  2.1520
12841TIP3   OH260013   0.605   0.350   2.484  0.1105 -0.2556 -0.0892
12841TIP3    H160014   0.676   0.365   2.546 -1.1481  2.9382  0.7816
12841TIP3    H260015   0.647   0.352   2.398  1.3086 -0.4181  0.4727
12842TIP3   OH260016   3.737   5.731   2.747 -0.0121 -0.3376  0.1242
12842TIP3    H160017   3.784   5.695   2.673 -0.4010  0.9622 -0.7913
12842TIP3    H260018   3.653   5.685   2.748 -0.8313  1.0086 -1.5267
12843TIP3   OH260019   0.196   0.860   1.983 -0.3557 -0.4207 -0.0581
12843TIP3    H160020   0.200   0.772   2.021 -1.3022 -0.0741  0.9159
12843TIP3    H260021   0.154   0.913   2.051  1.2303  1.0465 -0.1696
12844TIP3   OH260022   1.690   4.538   1.815  0.2304 -0.7468 -0.2560
12844TIP3    H160023   1.604   4.549   1.857  0.4110  0.5681 -0.1810
12844TIP3    H260024   1.750   4.523   1.887  0.5355  1.4802  0.0349
12845TIP3   OH260025   3.806   1.641   0.369  0.5877  0.0826 -0.4366
12845TIP3    H160026   3.854   1.689   0.301  0.1474  0.9110 -0.1783
12845TIP3    H260027   3.778   1.561   0.325 -1.4667  1.4934 -1.9173
12846TIP3   OH260028   1.632   5.467  17.074 -0.4585 -0.2356 -0.2459
12846TIP3    H160029   1.721   5.500  17.084 -0.3726 -0.5948  0.2693
12846TIP3    H260030   1.620   5.408  17.149 -1.1417 -0.1616 -0.2880
12847TIP3   OH260031   2.100   1.934  11.562 -0.6879 -0.2569  0.0718
12847TIP3    H160032   2.118   2.004  11.498  1.5762 -0.3098  0.5498
12847TIP3    H260033   2.037   1.972  11.623 -0.8257  0.7474 -0.6748
12848TIP3   OH260034   6.594   1.237  10.719 -0.2157  0.2404  0.5747
12848TIP3    H160035   6.592   1.318  10.669  2.5358  0.3664  0.5262
12848TIP3    H260036   6.620   1.170  10.655 -1.0366 -0.4449  0.9281
12849TIP3   OH260037   2.418   4.747   4.535  0.2548 -0.2703  0.5999
12849TIP3    H160038   2.355   4.731   4.465 -0.2309  2.1170  0.4094
12849TIP3    H260039   2.365   4.750   4.614 -0.0112  2.0783  0.4001
12850TIP3   OH260040   3.816   3.791  12.581  0.0189 -0.0924 -0.0421
12850TIP3    H160041   3.836   3.755  12.667 -0.9962  0.6504  0.5239
12850TIP3    H260042   3.734   3.838  12.593  1.4311  2.7327 -0.6547
12851TIP3   OH260043   4.953   0.728   5.990 -0.1815 -0.1045 -0.1187
12851TIP3    H160044   5.004   0.752   6.068 -1.0152  0.3201  0.2989
12851TIP3    H260045   4.868   0.702   6.024 -1.2623  2.0795 -1.0351
12852TIP3   OH260046   3.793   5.522  11.533 -0.1484 -0.5728 -0.3097
12852TIP3    H160047   3.879   5.564  11.540 -0.6865  0.3529  1.0065
12852TIP3    H260048   3.732   5.594  11.518 -0.9891 -0.9289  1.1904
12853TIP3   OH260049   1.075   2.134  10.647 -0.1572  0.6879 -0.0917
12853TIP3    H160050   1.070   2.164  10.738 -1.0020  0.0905  0.0665
12853TIP3    H260051   1.056   2.040  10.652 -1.0761  0.8140 -0.9818
12854TIP3   OH260052   4.430   1.863   4.598  0.2500 -0.0899 -0.1930
12854TIP3    H160053   4.435   1.953   4.565 -1.8371 -0.2737 -1.1491
12854TIP3    H260054   4.481   1.865   4.679 -2.0248  2.7181  1.3776
12855TIP3   OH260055   5.523   1.790   5.397 -0.1268 -0.6731  0.3481
12855TIP3    H160056   5.445   1.737   5.414 -0.9514  0.2317 -0.4728
12855TIP3    H260057   5.572   1.742   5.331 -1.6326  0.2347 -1.5367
12856TIP3   OH260058   3.783   3.214   5.830  0.1109 -0.0339 -0.2420
12856TIP3    H160059   3.693   3.245   5.819  0.1967  0.6041  0.6729
12856TIP3    H260060   3.832   3.293   5.853  0.4267 -0.7585  1.7482
12857TIP3   OH260061   1.226   2.767   1.034 -0.0893 -0.2496 -0.6269
12857TIP3    H160062   1.211   2.862   1.037  1.7469  0.0616  2.0858
12857TIP3    H260063   1.266   2.747   1.119 -1.9639 -3.7502 -0.3899
12858TIP3   OH260064   1.188   0.315  14.590 -0.0841  0.0322  0.6693
12858TIP3    H160065   1.202   0.224  14.566  1.6224  0.0236  1.5751
12858TIP3    H260066   1.210   0.320  14.683 -0.3172  1.3329  0.6823
12859TIP3   OH260067   0.574   5.045   2.436  0.3184  0.0364  0.4180
12859TIP3    H160068   0.621   5.127   2.423 -0.1897  0.1225 -1.1668
12859TIP3    H260069   0.489   5.071   2.471  0.0123  0.2447 -0.4533
12860TIP3   OH260070   2.981   3.267   3.235 -0.0781 -0.1033 -0.0184
12860TIP3    H160071   2.998   3.286   3.143  2.2169 -0.4941  0.2572
12860TIP3    H260072   2.928   3.187   3.234 -1.1795  0.6216 -0.9965
12861TIP3   OH260073   3.869   4.650   5.830 -0.0607 -0.2783 -0.0694
12861TIP3    H160074   3.891   4.565   5.867 -0.1749 -0.0438  0.5497
12861TIP3    H260075   3.774   4.658   5.844  0.0372  0.1739  0.3457
12862TIP3   OH260076   1.503   6.670  11.986  0.8923 -0.1118 -0.7444
12862TIP3    H160077   1.534   6.591  12.031 -0.3955 -1.3099 -1.8624
12862TIP3    H260078   1.487   6.733  12.056  1.7231 -0.9266  0.2005
12863TIP3   OH260079   0.587   0.073   2.943 -0.0678  0.2413 -0.0977
12863TIP3    H160080   0.581   0.078   2.848  2.8507 -0.2407 -0.3736
12863TIP3    H260081   0.540  -0.008   2.966 -1.0141  0.5006 -1.0536
12864TIP3   OH260082   4.362   3.330  14.766  0.4093 -0.1076 -0.6255
12864TIP3    H160083   4.436   3.371  14.721 -0.7878  1.0128 -1.6602
12864TIP3    H260084   4.290   3.336  14.703 -0.5597 -1.1888  0.3441
12865TIP3   OH260085   5.772   5.000  12.800  0.2038  0.0150  0.5796
12865TIP3    H160086   5.719   5.058  12.854 -0.3009 -1.1042  1.3399
12865TIP3    H260087   5.723   4.917  12.800  0.9031 -0.4147 -0.4530
12866TIP3   OH260088   5.284   6.328   1.325 -0.3410 -0.2309  0.1539
12866TIP3    H160089   5.266   6.421   1.340  1.7391  0.6373 -2.0284
12866TIP3    H260090   5.235   6.306   1.247  1.2908 -0.1358 -0.9540
12867TIP3   OH260091   4.983   4.338  16.376 -0.2579 -0.1672  0.3924
12867TIP3    H160092   4.932   4.392  16.436 -0.2692 -0.6053  0.7861
12867TIP3    H260093   4.968   4.248  16.406  1.0031 -0.2905  0.7251
12868TIP3   OH260094   4.731   5.446   0.540  0.0253 -0.4331  0.4827
12868TIP3    H160095   4.787   5.418   0.612  0.4094 -1.3139 -0.1389
12868TIP3    H260096   4.647   5.402   0.556 -1.2116  2.3504  2.4566
12869TIP3   OH260097   2.396   6.072  17.112 -0.1830  0.1466 -0.3916
12869TIP3    H160098   2.407   5.978  17.127  0.9385  0.3084 -0.0349
12869TIP3    H260099   2.462   6.094  17.046 -0.5798  0.6398 -0.6297
12870TIP3   OH260100   4.618   1.227  14.108 -0.1499  0.0433  0.3932
12870TIP3    H160101   4.565   1.163  14.156 -0.4629 -0.9453 -1.2016
12870TIP3    H260102   4.625   1.191  14.020  0.4243  1.7907 -0.3143
12871TIP3   OH260103   5.177   3.474   3.347  0.0226  0.1471 -0.2788
12871TIP3    H160104   5.116   3.530   3.299  0.2265  0.0702 -0.6337
12871TIP3    H260105   5.165   3.498   3.438  2.1595  2.8653 -0.6120
12872TIP3   OH260106   2.586   5.501   0.459 -0.7352 -0.0103  0.0764
12872TIP3    H160107   2.627   5.580   0.492  1.1825 -0.4850 -1.0455
12872TIP3    H260108   2.548   5.460   0.537  0.6242  0.6248  1.1251
12873TIP3   OH260109   4.812   2.238  12.572  0.6216 -0.0482 -0.0915
12873TIP3    H160110   4.765   2.315  12.541  1.3595 -0.4643 -2.4854
12873TIP3    H260111   4.883   2.273  12.626  2.2353  1.2436 -2.8116
12874TIP3   OH260112   4.558   5.184  15.914 -0.1232 -0.0245  0.1303
12874TIP3    H160113   4.559   5.136  15.998  0.3068  0.9021  0.6728
12874TIP3    H260114   4.470   5.171  15.880 -0.6520  0.4627  1.2575
12875TIP3   OH260115   0.117   3.839  14.552 -0.1966  0.0877  0.0901
12875TIP3    H160116   0.118   3.752  14.513 -0.9302  0.4152 -0.7107
12875TIP3    H260117   0.031   3.847  14.592 -0.0392  0.3493  0.3851
12876TIP3   OH260118   2.510   2.960  12.924 -0.2070 -0.1443 -0.7318
12876TIP3    H160119   2.462   2.951  13.006 -0.3545 -1.2216 -0.9304
12876TIP3    H260120   2.522   3.055  12.914  1.9818 -0.0426  1.7615
12877TIP3   OH260121   5.159   3.125  15.484 -0.5434 -0.2118 -0.1596
12877TIP3    H160122   5.166   3.045  15.536 -2.3952  0.9498  2.0707
12877TIP3    H260123   5.081   3.169  15.518  0.0357  2.2439 -1.7300
12878TIP3   OH260124   1.716   5.380  14.709  0.5798 -0.0459  0.0208
12878TIP3    H160125   1.806   5.377  14.677  0.0873 -1.6339 -1.3532
12878TIP3    H260126   1.664   5.339  14.640 -1.2214  0.9011  0.7448
12879TIP3   OH260127   5.153   2.167   1.375 -0.0580  0.5565  0.7034
12879TIP3    H160128   5.231   2.221   1.383  1.1264 -1.2636  2.4163
12879TIP3    H260129   5.086   2.226   1.340  2.2344  1.9830 -1.5802
12880TIP3   OH260130   5.784   3.103  14.389 -0.4999 -0.3826 -0.3071
12880TIP3    H160131   5.724   3.032  14.412  0.2588 -1.2997 -1.0730
12880TIP3    H260132   5.734   3.158  14.329 -1.0693 -0.3208  0.2252
12881TIP3   OH260133   1.449   5.248  12.540  0.1002  0.3214 -0.3340
12881TIP3    H160134   1.365   5.221  12.577  0.3960 -0.1183  0.0185
12881TIP3    H260135   1.428   5.277  12.451 -0.6268  1.4628  0.1844
12882TIP3   OH260136   0.302   2.915   0.245 -0.0784  0.2446 -0.6491
12882TIP3    H160137   0.282   2.915   0.338 -0.9942 -0.1021 -0.8303
12882TIP3    H260138   0.397   2.911   0.240 -0.0105  0.6685  0.2664
12883TIP3   OH260139   4.964   2.728   2.878 -0.4334  0.6406  0.0702
12883TIP3    H160140   4.944   2.644   2.836 -0.2068  1.3946 -1.6256
12883TIP3    H260141   5.059   2.738   2.869 -0.5495  1.4101 -0.4520
12884TIP3   OH260142   3.715   0.964  11.245 -0.3925  0.0535  0.0957
12884TIP3    H160143   3.697   1.022  11.171 -0.6127  0.7206  0.6627
12884TIP3    H260144   3.792   0.915  11.218 -1.2405 -0.6719 -1.1219
12885TIP3   OH260145   5.284   0.658   3.808 -0.0864 -0.7197  0.4414
12885TIP3    H160146   5.207   0.653   3.864 -0.7409  0.0236 -0.3614
12885TIP3    H260147   5.358   0.662   3.869 -0.6333 -1.8211  1.2155
12886TIP3   OH260148   5.991   5.434  15.084 -0.5425  0.4545  0.3130
12886TIP3    H160149   5.914   5.477  15.122 -0.7931  0.7458 -0.4957
12886TIP3    H260150   6.034   5.392  15.158 -1.5826  0.1256  0.7547
12887TIP3   OH260151   2.986   0.300  14.338  0.2273 -0.4650 -0.7576
12887TIP3    H160152   3.051   0.229  14.336  1.3565  0.2787  2.7879
12887TIP3    H260153   2.901   0.255  14.336  0.9091 -1.8264 -0.1245
12888TIP3   OH260154   6.559   0.678   0.999  0.2900  0.1805 -0.5372
12888TIP3    H160155   6.532   0.736   1.070  0.2319  1.0696 -1.2675
12888TIP3    H260156   6.625   0.621   1.039 -2.0435 -1.5832  1.0982
12889TIP3   OH260157   5.334   4.091   1.855  0.0023  0.2199  0.1295
12889TIP3    H160158   5.260   4.040   1.888 -0.3485 -0.4697 -1.6461
12889TIP3    H260159   5.323   4.177   1.896 -1.0096 -0.2713  0.9495
12890TIP3   OH260160   1.686   1.341   4.591 -0.1981  1.2441  0.9279
12890TIP3    H160161   1.599   1.332   4.631 -0.1003  0.5010  0.9769
12890TIP3    H260162   1.745   1.352   4.665  0.4893 -3.6075  1.4089
12891TIP3   OH260163   6.078   6.585  11.607  0.0094  0.2053 -0.2348
12891TIP3    H160164   6.004   6.542  11.563 -1.0633  1.2336  0.5125
12891TIP3    H260165   6.109   6.520  11.670 -0.4746 -0.1171 -0.3173
12892TIP3   OH260166   6.674   1.604   5.094 -0.2151 -0.0928 -0.1751
12892TIP3    H160167   6.770   1.602   5.098 -0.0673 -0.1874 -2.3480
12892TIP3    H260168   6.647   1.649   5.173  1.7360  1.6821 -0.4319
12893TIP3   OH260169   2.349   2.732   3.573 -0.0195  0.1002  0.3981
12893TIP3    H160170   2.290   2.782   3.630  1.7135  0.5223  1.9058
12893TIP3    H260171   2.347   2.779   3.490 -1.6894  0.1649  0.4311
12894TIP3   OH260172   5.730   5.371   2.734  0.5344 -0.1103 -0.1232
12894TIP3    H160173   5.719   5.386   2.828  1.1122  1.7207 -0.3213
12894TIP3    H260174   5.733   5.275   2.726  2.2569 -0.3053  1.9319
12895TIP3   OH260175   2.600   6.110  15.722 -0.3449 -0.1729  0.1611
12895TIP3    H160176   2.625   6.032  15.771 -2.8019 -0.7983  0.5485
12895TIP3    H260177   2.589   6.079  15.632 -1.3312 -0.3166  0.3163
12896TIP3   OH260178   0.053   6.320  11.327 -0.5270 -0.0515 -0.5035
12896TIP3    H160179   0.046   6.272  11.245  0.0528  0.0176 -0.5959
12896TIP3    H260180  -0.024   6.293  11.377 -0.4522 -0.7260 -0.7373
12897TIP3   OH260181   2.214   2.114   2.569  0.2427  0.0527  0.4876
12897TIP3    H160182   2.132   2.135   2.525  0.2159  0.5417  0.7702
12897TIP3    H260183   2.248   2.038   2.520 -0.6595 -0.5311  0.7314
12898TIP3   OH260184   5.528   5.340   6.029  0.5698  0.1844  0.6136
12898TIP3    H160185   5.545   5.277   5.958 -1.1734 -0.2248  0.4938
12898TIP3    H260186   5.602   5.400   6.026  0.3637  0.4434 -1.8760
12899TIP3   OH260187   5.969   3.831  13.468 -0.2287  0.0526  0.0165
12899TIP3    H160188   5.957   3.748  13.512 -0.2659  0.0020 -0.0895
12899TIP3    H260189   5.899   3.887  13.503  1.2708  0.8143  1.9366
12900TIP3   OH260190   5.647   5.997   4.535  0.0111 -0.5066 -0.1310
12900TIP3    H160191   5.578   5.931   4.530  0.1341 -0.6083 -0.4863
12900TIP3    H260192   5.699   5.983   4.456 -0.3019  0.3927 -0.5083
12901TIP3   OH260193   5.239   6.802  14.805  0.0334 -0.0711 -0.2522
12901TIP3    H160194   5.229   6.853  14.725  2.3863 -0.5414 -0.9013
12901TIP3    H260195   5.238   6.868  14.875 -0.4542  0.4950 -0.7795
12902TIP3   OH260196   3.289   0.329   4.896 -0.3414 -0.4376 -1.0548
12902TIP3    H160197   3.324   0.303   4.981 -1.1374  0.0366 -0.5757
12902TIP3    H260198   3.334   0.411   4.875 -0.9177  0.0055 -0.5862
12903TIP3   OH260199   5.242   5.396  11.850 -0.7560 -0.8176  0.1491
12903TIP3    H160200   5.284   5.339  11.785  2.9375  1.3627  0.3634
12903TIP3    H260201   5.257   5.351  11.933  1.1117 -0.2093  0.1917
12904TIP3   OH260202   1.370   3.279   0.094  0.5935 -0.5488  0.0357
12904TIP3    H160203   1.357   3.308   0.185 -0.0690 -1.3451  0.2062
12904TIP3    H260204   1.381   3.360   0.044  0.1389 -0.0697  0.7009
12905TIP3   OH260205   0.947   2.823  15.316  0.0680 -0.3825  0.3225
12905TIP3    H160206   0.951   2.818  15.412 -0.9842 -0.1281  0.3948
12905TIP3    H260207   0.963   2.733  15.287 -0.4509 -0.6335  0.7865
12906TIP3   OH260208   1.124   4.626   4.347 -0.7314 -0.2938 -0.0052
12906TIP3    H160209   1.106   4.556   4.410  1.2083  0.1100  1.0658
12906TIP3    H260210   1.143   4.580   4.265 -2.6700 -0.8460 -0.1950
12907TIP3   OH260211   5.972   2.613  15.877  0.1683  0.5330 -0.7364
12907TIP3    H160212   5.921   2.694  15.885 -0.7937 -0.2702  2.6888
12907TIP3    H260213   5.906   2.544  15.878  1.0915 -0.4157 -1.9951
12908TIP3   OH260214   4.864   1.818  13.202 -0.0810 -0.2441 -0.0858
12908TIP3    H160215   4.888   1.818  13.110 -0.7655  1.0747 -0.2865
12908TIP3    H260216   4.936   1.773  13.246 -0.0198 -1.4097 -1.3064
12909TIP3   OH260217   0.820   1.377   0.072 -0.6902 -0.5672  0.6644
12909TIP3    H160218   0.896   1.415   0.028 -1.9521 -0.3848 -1.5131
12909TIP3    H260219   0.747   1.435   0.050 -1.8235 -1.7622  1.0570
12910TIP3   OH260220   4.770   3.467   5.818 -0.2697  0.2130  0.0660
12910TIP3    H160221   4.757   3.494   5.909 -2.2385 -0.3364 -0.0036
12910TIP3    H260222   4.847   3.411   5.820 -0.0567  0.5175  1.3250
12911TIP3   OH260223   0.572   3.347  12.333 -0.0386  0.1701 -0.2944
12911TIP3    H160224   0.620   3.347  12.416 -0.4817  1.0756 -0.0198
12911TIP3    H260225   0.480   3.340  12.359 -0.0751 -1.7834 -0.8225
12912TIP3   OH260226   3.483   0.501   2.542 -0.2686 -0.0351  0.6239
12912TIP3    H160227   3.479   0.559   2.618 -1.8941  0.4406  0.2067
12912TIP3    H260228   3.406   0.445   2.550  0.8622 -1.6970  0.6131
12913TIP3   OH260229   0.410   2.936   1.513 -0.3061 -0.0843  0.3278
12913TIP3    H160230   0.504   2.947   1.527 -0.2139 -0.7647  0.2389
12913TIP3    H260231   0.391   2.847   1.542 -0.9733  0.1437  0.5973
12914TIP3   OH260232   4.621   5.068   2.043  0.2145  0.6575 -0.1328
12914TIP3    H160233   4.652   5.126   1.975  0.5022  0.5937 -0.0555
12914TIP3    H260234   4.611   5.124   2.120 -1.4629  1.0340 -0.5773
12915TIP3   OH260235   2.055   6.822   5.907  0.2706 -0.2038 -0.2320
12915TIP3    H160236   2.073   6.901   5.855  0.0991 -1.0110 -1.5593
12915TIP3    H260237   2.000   6.853   5.979 -0.6987  0.7283 -1.3273
12916TIP3   OH260238   2.973   5.507   4.481 -0.5247 -0.3338 -0.6233
12916TIP3    H160239   2.991   5.568   4.552 -0.7043  0.3627 -1.1713
12916TIP3    H260240   3.001   5.552   4.402 -0.7969 -0.9027 -1.0510
12917TIP3   OH260241   1.737   1.346  10.948 -0.5085  0.2923 -0.2138
12917TIP3    H160242   1.709   1.263  10.986  0.3905  0.1738  0.2023
12917TIP3    H260243   1.764   1.323  10.859  0.4563 -0.0076  0.1450
12918TIP3   OH260244   5.463   6.272  14.254 -0.2989 -0.2581  0.0018
12918TIP3    H160245   5.427   6.294  14.168 -0.2300 -3.7509 -1.0823
12918TIP3    H260246   5.387   6.253  14.308 -0.2986  0.5313  0.2845
12919TIP3   OH260247   2.278   6.718   0.258 -0.6313 -0.2221  0.7722
12919TIP3    H160248   2.272   6.734   0.164 -0.2844  1.8087  1.0295
12919TIP3    H260249   2.369   6.693   0.272 -0.9810 -1.7593  0.4455
12920TIP3   OH260250   2.879   1.730  12.446  0.2295 -0.0097 -0.4124
12920TIP3    H160251   2.943   1.658  12.450  1.9336  1.5123  1.4708
12920TIP3    H260252   2.877   1.755  12.353  0.9601 -1.2826 -0.7962
12921TIP3   OH260253   2.365   6.826  13.281  1.0275  0.2461 -0.0242
12921TIP3    H160254   2.370   6.739  13.241  1.4644  1.2102 -2.2167
12921TIP3    H260255   2.406   6.815  13.367  2.3529 -1.4307 -0.8097
12922TIP3   OH260256   2.269   5.302   4.912  0.1012  0.3717  0.0830
12922TIP3    H160257   2.285   5.379   4.857  0.5538  0.3599  0.1925
12922TIP3    H260258   2.262   5.230   4.850 -0.6905  0.5549 -0.0449
12923TIP3   OH260259   5.395   0.061   2.163 -0.1462 -0.1884  0.2637
12923TIP3    H160260   5.385  -0.024   2.204  0.7559  0.2744  1.4846
12923TIP3    H260261   5.311   0.105   2.178  0.5196  0.3748  2.6062
12924TIP3   OH260262   0.523   4.816   3.673  0.0819  0.2360 -0.4010
12924TIP3    H160263   0.484   4.790   3.757  2.1008 -2.4412 -0.1694
12924TIP3    H260264   0.522   4.736   3.620  1.6479  1.0595 -1.7665
12925TIP3   OH260265   0.832   6.710  15.223 -0.1162  0.6776 -0.2591
12925TIP3    H160266   0.808   6.725  15.131 -1.9745 -0.4458 -0.0175
12925TIP3    H260267   0.917   6.667  15.219 -0.2835  0.4115 -1.4782
12926TIP3   OH260268   4.235   0.111  14.325 -0.3919  0.5840 -0.0186
12926TIP3    H160269   4.225   0.180  14.391 -0.2192  0.6343 -0.0453
12926TIP3    H260270   4.184   0.142  14.250 -0.5262  0.5623  0.0618
12927TIP3   OH260271   6.593   3.704  11.613  0.8084 -0.0795  0.2837
12927TIP3    H160272   6.685   3.725  11.627  0.6064  0.7293  0.4291
12927TIP3    H260273   6.551   3.788  11.593 -0.4551  0.0995  3.1804
12928TIP3   OH260274   1.580   6.416   4.766  0.0650  0.6478  0.1971
12928TIP3    H160275   1.591   6.389   4.675  1.5327 -0.2789  0.6155
12928TIP3    H260276   1.485   6.420   4.778 -0.2089 -1.4975 -0.7498
12929TIP3   OH260277   1.029   0.447  11.799 -0.2008 -0.5139  0.4739
12929TIP3    H160278   0.996   0.532  11.769  1.2128  0.0628  0.4864
12929TIP3    H260279   1.085   0.417  11.728 -0.8900 -1.5884  0.3567
12930TIP3   OH260280   0.750   2.903  13.472  0.4168  0.0215 -0.2055
12930TIP3    H160281   0.794   2.820  13.495  0.2520 -0.2055 -0.7089
12930TIP3    H260282   0.805   2.970  13.512  0.6700 -0.3188  0.0308
12931TIP3   OH260283   6.791   5.794  12.944 -0.0743 -0.5062 -0.6771
12931TIP3    H160284   6.842   5.726  12.899  0.1245  0.6910 -2.3315
12931TIP3    H260285   6.732   5.828  12.877 -0.5062  0.6558  0.2610
12932TIP3   OH260286   2.478   6.041  14.681  0.1081  0.3855  0.0458
12932TIP3    H160287   2.562   6.063  14.722  0.3737 -0.0052 -0.2920
12932TIP3    H260288   2.415   6.047  14.753  0.0375  2.9136 -0.1094
12933TIP3   OH260289   3.124   3.058  13.873 -0.0503 -0.0602  0.5103
12933TIP3    H160290   3.043   3.076  13.920 -0.7836 -1.6692 -0.0675
12933TIP3    H260291   3.096   3.008  13.796  1.2739  1.1979 -0.8542
12934TIP3   OH260292   0.319   1.654  14.133 -0.1172 -0.0827  0.2362
12934TIP3    H160293   0.385   1.634  14.199  1.5467  0.6855 -1.1209
12934TIP3    H260294   0.330   1.747  14.116  0.7149 -0.5674 -2.3300
12935TIP3   OH260295   0.024   1.867   3.735  0.3618  0.3155  0.6608
12935TIP3    H160296  -0.053   1.852   3.682 -0.4479 -1.8058  2.2739
12935TIP3    H260297  -0.004   1.929   3.803 -0.3526 -1.3146  1.9272
12936TIP3   OH260298   2.215   0.986  14.313  0.0831  0.5223  0.2048
12936TIP3    H160299   2.245   0.949  14.230  1.0908  0.5309  0.5563
12936TIP3    H260300   2.234   1.080  14.306  0.5058  0.4672  0.5857
12937TIP3   OH260301   2.101   1.010   1.338  0.3451 -0.1598  0.2214
12937TIP3    H160302   2.169   0.944   1.331  0.9504  0.6113 -2.0543
12937TIP3    H260303   2.021   0.967   1.307 -0.5935 -1.3957  3.8913
12938TIP3   OH260304   2.255   5.492   1.469  0.1406  0.5642 -0.8338
12938TIP3    H160305   2.259   5.401   1.441 -0.4608  0.9678 -2.3254
12938TIP3    H260306   2.346   5.516   1.487  0.2936 -0.3342 -0.3714
12939TIP3   OH260307   6.585   6.284  12.518 -0.3881 -0.1556  0.3433
12939TIP3    H160308   6.642   6.328  12.581 -0.3011  1.0817 -0.5645
12939TIP3    H260309   6.616   6.313  12.433 -1.0064 -1.1829 -0.2589
12940TIP3   OH260310   2.600   0.258   1.450  0.0115 -0.2967 -0.1910
12940TIP3    H160311   2.558   0.279   1.367 -0.7995  2.5109  0.8090
12940TIP3    H260312   2.538   0.201   1.494 -1.7899  1.8536  0.2619
12941TIP3   OH260313   2.205   1.738  11.775  0.2377  0.4093 -0.1535
12941TIP3    H160314   2.187   1.798  11.702  1.7833  0.7103 -0.3086
12941TIP3    H260315   2.164   1.780  11.851 -1.4199  0.0791 -0.8233
12942TIP3   OH260316   1.491   0.151  17.113  0.2402 -0.0132  0.1122
12942TIP3    H160317   1.575   0.124  17.076 -1.2467 -0.1965 -3.5161
12942TIP3    H260318   1.435   0.073  17.106 -0.6777  0.5127  1.1499
12943TIP3   OH260319   6.207   5.356   3.761 -0.7253 -0.0294 -0.1681
12943TIP3    H160320   6.197   5.262   3.750  0.9480 -0.2219 -0.3125
12943TIP3    H260321   6.136   5.381   3.820 -1.8666 -1.1696 -1.0016
12944TIP3   OH260322   2.584   0.574   4.464 -0.0978  0.6186 -0.5109
12944TIP3    H160323   2.651   0.559   4.531 -2.7899 -1.9465  1.8592
12944TIP3    H260324   2.535   0.650   4.495 -1.5746 -0.7908  0.7518
12945TIP3   OH260325   4.240   5.620   2.488  0.2466 -0.3608  0.3233
12945TIP3    H160326   4.157   5.651   2.523 -0.1245  0.6366 -1.3546
12945TIP3    H260327   4.292   5.700   2.476 -0.0340 -0.4805 -2.3068
12946TIP3   OH260328   0.472   0.069   0.652  0.2181 -0.5176  0.0168
12946TIP3    H160329   0.520   0.151   0.663  0.7389 -0.8447  0.2313
12946TIP3    H260330   0.539   0.004   0.635 -0.1409 -0.9987  0.3880
12947TIP3   OH260331   3.009   0.931   5.570 -0.5494 -0.2857  0.2090
12947TIP3    H160332   3.037   0.930   5.661 -1.2743 -0.9972  0.4395
12947TIP3    H260333   2.913   0.937   5.574 -0.4980  3.5965 -0.5630
12948TIP3   OH260334   6.547   0.180   1.456  0.3431  0.1945  0.1824
12948TIP3    H160335   6.541   0.128   1.536 -1.4900 -0.8516 -0.5802
12948TIP3    H260336   6.462   0.169   1.414  0.6612  2.1216 -1.0691
12949TIP3   OH260337   1.264   0.107  16.913 -0.1357  0.3268 -0.1232
12949TIP3    H160338   1.269   0.049  16.989 -2.5463 -0.5433 -0.5533
12949TIP3    H260339   1.322   0.067  16.848  1.0425  0.4500  0.8248
12950TIP3   OH260340   4.205   6.089  14.970  0.4667  0.4532 -0.6932
12950TIP3    H160341   4.187   6.120  14.881  0.7862  2.7923  0.0034
12950TIP3    H260342   4.122   6.052  15.000  0.6414 -1.3802 -2.3034
12951TIP3   OH260343   5.351   0.172  12.755  0.0092 -0.4281  0.2091
12951TIP3    H160344   5.339   0.218  12.838 -2.0065 -0.2532 -0.1342
12951TIP3    H260345   5.381   0.240  12.694 -0.9096 -0.0032  0.2145
12952TIP3   OH260346   0.732   0.612  13.234 -0.1400 -0.0182  0.4773
12952TIP3    H160347   0.821   0.577  13.233 -0.0255  0.2736 -0.1861
12952TIP3    H260348   0.717   0.639  13.325  0.3806 -0.2325  0.6278
12953TIP3   OH260349   3.678   5.530   3.701  0.1072  0.9072  0.3865
12953TIP3    H160350   3.762   5.573   3.717  0.7922 -0.4510  0.5105
12953TIP3    H260351   3.645   5.508   3.788 -1.1151  2.7375  0.4412
12954TIP3   OH260352   6.591   6.404   6.564  0.2765  0.1387  0.0640
12954TIP3    H160353   6.565   6.312   6.562 -2.0760  0.7520 -1.7605
12954TIP3    H260354   6.525   6.447   6.619 -0.2096  1.1038 -1.2199
12955TIP3   OH260355   1.978   2.911   4.760 -1.2455  0.3832 -0.2686
12955TIP3    H160356   1.960   2.891   4.668  2.5650  0.7027 -1.2468
12955TIP3    H260357   2.017   2.998   4.759 -1.3737  0.5172  1.7323
12956TIP3   OH260358   1.156   3.345   5.737 -0.5344  0.6342  0.1732
12956TIP3    H160359   1.084   3.282   5.744 -1.4094  1.7993  2.8337
12956TIP3    H260360   1.220   3.316   5.802  1.3130 -0.1149 -1.8357
12957TIP3   OH260361   2.586   6.475   0.422  0.5541  0.0390  0.0256
12957TIP3    H160362   2.521   6.486   0.353 -0.0460  0.5487  0.6637
12957TIP3    H260363   2.535   6.456   0.501  1.2499 -0.8916  0.2612
12958TIP3   OH260364   4.771   5.247   1.130  0.0137  0.3284 -0.2148
12958TIP3    H160365   4.800   5.338   1.123 -0.5399  0.5939  0.7380
12958TIP3    H260366   4.852   5.196   1.129  0.5614  1.0258  2.0662
12959TIP3   OH260367   1.877   4.931  11.030 -0.0806 -0.1402  0.7527
12959TIP3    H160368   1.783   4.924  11.013 -0.5748 -0.7986  3.3040
12959TIP3    H260369   1.910   4.841  11.022  0.0040 -0.1716  1.3708
12960TIP3   OH260370   3.731   5.700   1.213  0.5778  0.0931 -0.9028
12960TIP3    H160371   3.741   5.659   1.299  0.3122  2.7868  0.5149
12960TIP3    H260372   3.818   5.700   1.175  0.5601 -1.8435 -1.0592
12961TIP3   OH260373   2.665   6.230   4.675 -0.2697 -0.6063  0.1082
12961TIP3    H160374   2.595   6.230   4.740 -0.5605  1.6482 -0.1349
12961TIP3    H260375   2.746   6.224   4.726 -0.4723  1.5956  0.8056
12962TIP3   OH260376   3.861   1.537   0.851  0.2525 -0.2779 -0.0804
12962TIP3    H160377   3.910   1.561   0.773 -0.2312  0.4176 -0.1753
12962TIP3    H260378   3.817   1.617   0.878  1.2192 -0.2395  1.5095
12963TIP3   OH260379   3.747   1.797   1.848  0.3462  0.0092  0.4051
12963TIP3    H160380   3.764   1.821   1.939 -1.5911 -0.9787  1.0891
12963TIP3    H260381   3.718   1.878   1.806 -1.3418 -0.0297  1.4051
12964TIP3   OH260382   0.886   4.904  15.819 -0.0930 -0.3949 -0.4476
12964TIP3    H160383   0.802   4.924  15.778 -1.0998 -0.6496  1.4174
12964TIP3    H260384   0.939   4.869  15.747 -1.3000  0.4536 -1.8243
12965TIP3   OH260385   3.769   4.992  14.507  0.6830  0.1310 -0.1132
12965TIP3    H160386   3.836   5.048  14.546  1.7828  0.0211 -1.7358
12965TIP3    H260387   3.807   4.904  14.508  1.5107  0.3475 -2.8081
12966TIP3   OH260388   6.197   5.495   5.595  0.1384  0.2844 -0.2455
12966TIP3    H160389   6.252   5.542   5.532  2.0666 -0.7477  0.5784
12966TIP3    H260390   6.107   5.510   5.565  0.9031  1.2645 -2.1999
12967TIP3   OH260391   1.789   5.548  13.623  0.1584  0.5007  0.2716
12967TIP3    H160392   1.838   5.482  13.673  1.6533  1.0975 -0.3500
12967TIP3    H260393   1.740   5.497  13.558 -0.0739 -0.1068  0.9040
12968TIP3   OH260394   5.969   3.310  14.486 -0.2580  0.0884  0.3487
12968TIP3    H160395   5.908   3.241  14.460 -0.8426  0.9004 -0.5102
12968TIP3    H260396   6.041   3.303  14.423  0.4176 -0.6809  1.1815
12969TIP3   OH260397   0.603   0.456   1.386  0.2181  1.4188 -0.4894
12969TIP3    H160398   0.602   0.431   1.294  0.9531 -1.9240  0.2838
12969TIP3    H260399   0.562   0.383   1.432 -0.5497  3.1870  1.8449
12970TIP3   OH260400   0.237   3.300  16.707  0.0640 -0.7508 -0.2112
12970TIP3    H160401   0.147   3.332  16.698  0.2315 -0.2906 -0.3020
12970TIP3    H260402   0.289   3.380  16.723  0.3751 -1.0698  0.4315
12971TIP3   OH260403   1.650   3.209   2.419 -0.4546 -0.3426 -0.0579
12971TIP3    H160404   1.604   3.182   2.498 -0.3432 -1.9978 -0.5222
12971TIP3    H260405   1.628   3.301   2.408 -1.1345 -0.3076  1.4328
12972TIP3   OH260406   2.122   5.583  13.514 -0.0702  0.6776 -0.1312
12972TIP3    H160407   2.062   5.657  13.507 -0.1688  0.7744  1.3574
12972TIP3    H260408   2.182   5.594  13.440 -1.3975  1.0098 -1.1878
12973TIP3   OH260409   6.003   2.568  10.813 -0.7300 -0.0770 -0.2973
12973TIP3    H160410   6.093   2.543  10.790 -0.6192 -0.9993  1.0083
12973TIP3    H260411   5.952   2.548  10.735 -0.0280 -0.9347 -0.5544
12974TIP3   OH260412   5.246   5.641  13.307  0.5047 -0.1540 -0.9212
12974TIP3    H160413   5.301   5.710  13.344 -0.8399  0.5672 -0.1963
12974TIP3    H260414   5.305   5.592  13.251  2.4829 -0.8525  1.5728
12975TIP3   OH260415   1.429   3.271  11.775 -0.0970  0.0857 -0.2172
12975TIP3    H160416   1.430   3.334  11.703 -1.2005  1.3279  0.8011
12975TIP3    H260417   1.511   3.287  11.822  1.8377 -2.3798 -2.4630
12976TIP3   OH260418   3.918   2.808   2.255 -0.3713  0.7269 -0.6423
12976TIP3    H160419   3.924   2.880   2.192 -3.5346  0.4425 -1.4006
12976TIP3    H260420   3.953   2.732   2.208  0.9678  1.2742 -0.5875
12977TIP3   OH260421   5.766   4.748   0.531  0.6488  0.0771 -0.1324
12977TIP3    H160422   5.731   4.716   0.447  0.7705  0.3223 -0.2757
12977TIP3    H260423   5.833   4.811   0.507  0.1639  0.7100  0.1541
12978TIP3   OH260424   1.481   3.579   4.127  0.0958  0.1939 -0.1604
12978TIP3    H160425   1.512   3.643   4.191  2.3295 -0.8328 -0.1208
12978TIP3    H260426   1.508   3.494   4.164  0.0634 -0.5248 -1.7167
12979TIP3   OH260427   5.415   2.746  14.721 -0.3207  0.2791  0.0641
12979TIP3    H160428   5.440   2.836  14.699 -0.4975  0.2543 -0.2390
12979TIP3    H260429   5.474   2.722  14.793 -1.3061  1.1767  1.2301
12980TIP3   OH260430   2.355   2.762   3.941 -0.5241  0.4524 -0.0173
12980TIP3    H160431   2.410   2.732   4.012 -1.1681 -2.5862 -0.6719
12980TIP3    H260432   2.414   2.811   3.884  0.4135  1.2532  1.5646
12981TIP3   OH260433   6.562   6.689  16.096  0.2406  0.1841  0.1118
12981TIP3    H160434   6.561   6.784  16.111  1.3709  0.2362 -0.0233
12981TIP3    H260435   6.646   6.673  16.053  1.7578 -1.3018  3.2389
12982TIP3   OH260436   2.091   1.128  11.188  0.4161  0.0494  0.0689
12982TIP3    H160437   2.038   1.170  11.256  0.5880 -0.3887  0.4775
12982TIP3    H260438   2.179   1.128  11.224  0.8383  1.3681 -0.8776
12983TIP3   OH260439   5.178   6.223  13.781  0.3699  0.0415 -0.6983
12983TIP3    H160440   5.106   6.172  13.818 -0.7021 -0.0326 -2.7664
12983TIP3    H260441   5.231   6.159  13.735  0.8397  0.3516 -0.5915
12984TIP3   OH260442   3.406   5.992  12.053  0.6617 -0.0996  0.2828
12984TIP3    H160443   3.358   5.977  11.971  0.9000  1.1656 -0.1089
12984TIP3    H260444   3.496   6.006  12.026  0.5711  1.3075  0.6592
12985TIP3   OH260445   6.429   1.768   2.701 -0.5796 -0.5065 -0.0437
12985TIP3    H160446   6.335   1.765   2.719 -0.2652  1.8906  2.5944
12985TIP3    H260447   6.464   1.689   2.742 -1.2241 -0.3971  0.7359
12986TIP3   OH260448   1.613   4.953   4.710 -0.4526  0.7290  0.3134
12986TIP3    H160449   1.524   4.935   4.680  0.0369  1.7931 -1.9996
12986TIP3    H260450   1.669   4.918   4.641  0.9699  0.0005  1.7633
12987TIP3   OH260451   5.209   2.033   1.628  0.0735  0.4268  0.4794
12987TIP3    H160452   5.157   2.049   1.549  1.1862  0.5454 -0.2543
12987TIP3    H260453   5.270   1.964   1.603  0.4503  0.4727  1.2425
12988TIP3   OH260454   3.511   6.471  14.442 -0.0488  0.4919  0.4348
12988TIP3    H160455   3.440   6.534  14.430 -0.3325  0.0604 -0.2328
12988TIP3    H260456   3.588   6.526  14.459  0.1052  1.1900 -2.0203
12989TIP3   OH260457   1.746   4.355   0.483 -0.1125 -0.2719  0.1680
12989TIP3    H160458   1.812   4.287   0.500  0.2110  0.0853  0.3473
12989TIP3    H260459   1.683   4.345   0.555  0.0590 -0.2293  0.3250
12990TIP3   OH260460   1.480   5.689   1.656  0.1098  0.2163  0.0362
12990TIP3    H160461   1.477   5.619   1.721 -0.2931 -0.1593 -0.3850
12990TIP3    H260462   1.396   5.733   1.665 -0.0234  0.0438 -0.3650
12991TIP3   OH260463   5.120   2.562  16.612 -0.1511  0.2674  0.1245
12991TIP3    H160464   5.033   2.599  16.598  0.0301  0.5629 -0.2165
12991TIP3    H260465   5.174   2.598  16.542 -0.0138 -0.7745 -0.3290
12992TIP3   OH260466   0.317   5.483   0.442 -0.4786 -0.1603  0.1346
12992TIP3    H160467   0.262   5.487   0.520  0.4980  0.8370  0.7934
12992TIP3    H260468   0.296   5.563   0.393  0.5839  0.3928  0.5485
12993TIP3   OH260469   3.342   1.274  11.649  0.2535  0.1914 -0.2032
12993TIP3    H160470   3.265   1.258  11.595 -0.8716  2.0460  0.7562
12993TIP3    H260471   3.310   1.272  11.739  1.0743  2.1233  0.1719
12994TIP3   OH260472   2.966   4.839   2.624  0.3161 -0.0901 -0.0094
12994TIP3    H160473   2.911   4.850   2.702 -1.0687  2.3493 -1.2141
12994TIP3    H260474   2.923   4.891   2.557  3.4003  0.8497 -1.4366
12995TIP3   OH260475   2.387   4.511  13.763  0.4872  0.1817 -0.8127
12995TIP3    H160476   2.479   4.487  13.778  0.6638  0.4397 -1.4355
12995TIP3    H260477   2.391   4.601  13.731 -0.1172  0.8662  0.9010
12996TIP3   OH260478   0.855   0.721   6.095  0.0703  0.2727  0.8435
12996TIP3    H160479   0.774   0.671   6.083 -0.4128  1.2820 -0.3808
12996TIP3    H260480   0.906   0.670   6.158 -0.2274 -1.9629 -0.6159
12997TIP3   OH260481   4.169   3.078  16.763 -0.1660 -0.0618 -0.2561
12997TIP3    H160482   4.153   2.991  16.728 -1.0197 -1.1544  2.5548
12997TIP3    H260483   4.216   3.062  16.845 -1.6627  2.0021  1.0974
12998TIP3   OH260484   2.828   5.735   6.815  0.2175  0.0894  0.4226
12998TIP3    H160485   2.829   5.759   6.908  0.0782  1.9085 -0.0142
12998TIP3    H260486   2.920   5.727   6.791  0.3246  1.3550  0.3295
12999TIP3   OH260487   1.017   3.029   2.291  0.1354 -0.3302  0.5071
12999TIP3    H160488   1.052   3.118   2.286  0.4958 -0.5118 -0.2850
12999TIP3    H260489   1.019   2.997   2.201  0.1357 -1.1874  0.8064
13000TIP3   OH260490   4.406   0.235  11.915  0.1829 -0.3206  0.6216
13000TIP3    H160491   4.474   0.167  11.915  1.0068  0.4644 -0.7680
13000TIP3    H260492   4.334   0.197  11.864  0.7171 -0.0915 -0.3138
13001TIP3   OH260493   5.307   3.861  17.075  0.1575  0.6655  0.1778
13001TIP3    H160494   5.275   3.924  17.139 -0.3200  0.6033 -0.0015
13001TIP3    H260495   5.277   3.776  17.108  0.5021  0.5606  0.2325
13002TIP3   OH260496   0.236   2.983  11.271  0.0131 -0.3416  0.4630
13002TIP3    H160497   0.194   3.063  11.301 -0.6087 -0.5768  0.2374
13002TIP3    H260498   0.244   2.995  11.176 -1.6319 -1.2327  0.1713
13003TIP3   OH260499   4.662   1.378   0.392 -0.1426  0.1572 -0.3767
13003TIP3    H160500   4.606   1.318   0.343  0.2811  0.8420 -1.7421
13003TIP3    H260501   4.676   1.334   0.476 -0.5435 -1.2524 -1.0107
13004TIP3   OH260502   5.098   3.340  16.943 -0.0725 -0.3910  0.4577
13004TIP3    H160503   5.022   3.284  16.960 -0.4530 -0.6309 -1.7155
13004TIP3    H260504   5.127   3.315  16.855  1.8050  0.5355  0.7634
13005TIP3   OH260505   6.362   0.942   3.566  0.2994  0.2948  0.1255
13005TIP3    H160506   6.294   0.882   3.535 -2.5996  2.9399  0.8147
13005TIP3    H260507   6.377   1.001   3.493  1.5170  0.0562  0.1688
13006TIP3   OH260508   1.652   5.665  16.581 -0.4454  0.0082 -0.0979
13006TIP3    H160509   1.683   5.578  16.606  1.2382  0.9065  1.1766
13006TIP3    H260510   1.624   5.705  16.663 -0.8332  0.8147 -0.6075
13007TIP3   OH260511   4.904   0.455  16.417 -0.5052  0.0758  0.2267
13007TIP3    H160512   4.934   0.469  16.506 -1.2534  1.3786  0.2998
13007TIP3    H260513   4.979   0.416  16.372  0.0014 -0.2470  1.3162
13008TIP3   OH260514   5.505   4.129   0.785 -0.5482 -0.2705  0.0353
13008TIP3    H160515   5.475   4.206   0.832  0.4784 -0.8539  1.7324
13008TIP3    H260516   5.535   4.069   0.853  0.8473 -1.2392 -1.3446
13009TIP3   OH260517   0.957   0.660  11.600  0.3172  0.1063  0.1555
13009TIP3    H160518   0.960   0.638  11.507  1.8776 -0.5750  0.3270
13009TIP3    H260519   0.968   0.755  11.604 -1.1068  0.3154 -0.3868
13010TIP3   OH260520   3.656   5.812   1.905 -0.3421  0.1018 -0.0189
13010TIP3    H160521   3.616   5.896   1.927  1.1465  1.0107 -0.6318
13010TIP3    H260522   3.707   5.788   1.982 -0.7144 -0.2205  0.1317
13011TIP3   OH260523   0.235   0.404   3.507 -0.1861  0.4201  0.5781
13011TIP3    H160524   0.282   0.439   3.431  0.7642  0.9034  1.3543
13011TIP3    H260525   0.220   0.312   3.487  3.7225 -0.6044  1.4240
13012TIP3   OH260526   0.237   3.968  16.927  0.2733  0.3455 -0.1928
13012TIP3    H160527   0.188   3.906  16.872  0.0364 -0.3278  0.7495
13012TIP3    H260528   0.306   4.001  16.869 -1.8688  2.1167 -1.9041
13013TIP3   OH260529   5.257   1.771  13.796 -0.0864 -0.1505 -0.1167
13013TIP3    H160530   5.168   1.760  13.763 -0.1328  0.7540 -0.3153
13013TIP3    H260531   5.308   1.702  13.754 -0.3545  0.3509 -1.3047
13014TIP3   OH260532   3.607   2.991  17.086  0.0033  0.0190 -0.2175
13014TIP3    H160533   3.526   2.963  17.044  0.1747  0.2274 -0.6940
13014TIP3    H260534   3.649   3.047  17.021 -0.5938  1.8543  0.8806
13015TIP3   OH260535   2.591   6.403   1.153 -0.0133  0.3644  0.5784
13015TIP3    H160536   2.665   6.345   1.174  0.5763  0.0176 -2.0983
13015TIP3    H260537   2.573   6.386   1.061 -1.0529  3.1370  0.1836
13016TIP3   OH260538   4.795   3.606  17.023 -0.1697  0.2972 -0.4796
13016TIP3    H160539   4.777   3.561  16.941  0.0344 -1.0884  0.2171
13016TIP3    H260540   4.712   3.647  17.047 -0.6990 -0.7367 -0.5096
13017TIP3   OH260541   4.228   1.266   6.109  0.6238  0.3497  0.2773
13017TIP3    H160542   4.204   1.175   6.128 -1.2073  0.8007  0.2830
13017TIP3    H260543   4.209   1.313   6.190 -1.6243  1.2694 -0.7096
13018TIP3   OH260544   5.122   1.815   3.847 -0.2115 -0.5119 -0.2970
13018TIP3    H160545   5.162   1.729   3.863 -0.7748 -0.8345 -0.5866
13018TIP3    H260546   5.196   1.875   3.843  0.2598 -1.1032 -0.8095
13019TIP3   OH260547   4.567   5.114   1.263  0.2288 -0.0493  0.0172
13019TIP3    H160548   4.598   5.026   1.285  1.1114 -0.2575 -1.8858
13019TIP3    H260549   4.642   5.156   1.221 -0.7846  0.9333 -0.8537
13020TIP3   OH260550   5.424   5.088  14.606 -0.0121 -0.0228 -0.4205
13020TIP3    H160551   5.445   5.173  14.644  3.5228  0.9916 -3.9560
13020TIP3    H260552   5.502   5.035  14.621 -1.7741 -2.4393  0.8691
13021TIP3   OH260553   2.515   3.089  15.210  0.4344 -0.1362  0.3848
13021TIP3    H160554   2.519   3.045  15.295 -2.2573  0.3876  0.8860
13021TIP3    H260555   2.568   3.168  15.222  1.1107 -0.6935  1.1567
13022TIP3   OH260556   4.874   2.241  14.145 -0.1384  0.4295 -0.2295
13022TIP3    H160557   4.814   2.191  14.090  0.8027 -1.3922  0.3111
13022TIP3    H260558   4.845   2.331  14.136 -2.3712 -0.2674 -0.7143
13023TIP3   OH260559   2.813   5.572  13.009  0.1941  0.4387  0.1022
13023TIP3    H160560   2.815   5.643  13.073 -1.5096  0.0227  0.6810
13023TIP3    H260561   2.732   5.587  12.959 -0.9104 -1.7697  1.1072
13024TIP3   OH260562   3.555   2.351  13.519 -0.5085 -0.0903 -0.9298
13024TIP3    H160563   3.628   2.372  13.461 -0.1210 -0.3647 -0.5528
13024TIP3    H260564   3.532   2.434  13.561  0.4558 -0.2352 -0.0786
13025TIP3   OH260565   5.832   2.590   2.726 -0.0987  0.1156 -0.3434
13025TIP3    H160566   5.857   2.529   2.656 -1.3902 -1.4515  0.4817
13025TIP3    H260567   5.872   2.673   2.701  0.3155 -0.6399 -2.4132
13026TIP3   OH260568   1.306   2.231   2.176 -0.5847 -0.6121  0.4004
13026TIP3    H160569   1.303   2.288   2.099 -0.0864 -0.0320  0.7977
13026TIP3    H260570   1.376   2.169   2.157  1.3632  1.1396  1.4375
13027TIP3   OH260571   1.653   1.153   3.849  0.6847 -0.1728 -0.3786
13027TIP3    H160572   1.665   1.061   3.874  1.5323 -0.1827 -0.7536
13027TIP3    H260573   1.724   1.169   3.787  1.6048  1.2255  0.9796
13028TIP3   OH260574   3.149   0.634   1.434  0.4294 -0.1475 -0.0396
13028TIP3    H160575   3.108   0.701   1.379 -1.6833 -1.6902 -0.4748
13028TIP3    H260576   3.219   0.597   1.380  1.3054  1.3336  0.0334
13029TIP3   OH260577   1.659   4.152  14.260  0.1067 -0.2748 -0.0864
13029TIP3    H160578   1.689   4.242  14.269 -0.8647 -0.0468  1.1589
13029TIP3    H260579   1.730   4.107  14.214  0.9699  0.9252  0.0329
13030TIP3   OH260580   2.234   0.374  17.124  0.1361 -0.3343  0.1205
13030TIP3    H160581   2.179   0.452  17.121  0.5731 -0.0546 -1.8018
13030TIP3    H260582   2.323   0.408  17.135  0.1958 -0.6692  0.7700
13031TIP3   OH260583   0.069   1.752  13.392  0.3555 -0.1831  0.3367
13031TIP3    H160584   0.157   1.723  13.415  0.2590 -0.0069  0.9379
13031TIP3    H260585   0.012   1.706  13.453  0.1450  0.7612  0.8656
13032TIP3   OH260586   0.144   2.454  12.394 -0.4130  0.0886  0.3738
13032TIP3    H160587   0.210   2.459  12.325  0.0301 -1.8498  0.6079
13032TIP3    H260588   0.061   2.447  12.347 -0.1360 -0.9446  0.0171
13033TIP3   OH260589   2.013   0.999   2.082 -0.4492  0.3665  0.2482
13033TIP3    H160590   1.973   1.032   2.163  1.9661  0.0168  1.6765
13033TIP3    H260591   2.105   0.989   2.103  0.4235  0.9567 -2.8180
13034TIP3   OH260592   3.872   2.666  13.775  0.1250 -0.1886  0.1395
13034TIP3    H160593   3.933   2.691  13.844  1.6259 -3.2184  0.1259
13034TIP3    H260594   3.813   2.603  13.816 -0.5480 -0.1491 -0.7340
13035TIP3   OH260595   2.643   0.171   2.040  0.0637  0.0916  0.7869
13035TIP3    H160596   2.608   0.251   2.080  1.5917  0.1921  2.0008
13035TIP3    H260597   2.638   0.105   2.109 -1.1896 -0.9038 -0.2095
13036TIP3   OH260598   4.382   3.615  16.276  0.2873 -0.0816 -0.2742
13036TIP3    H160599   4.327   3.538  16.288 -0.7657  0.4761 -1.3407
13036TIP3    H260600   4.347   3.659  16.199 -0.5895  2.6485  1.5165
13037TIP3   OH260601   3.690   6.695  13.951  0.5687 -0.0181  0.4000
13037TIP3    H160602   3.710   6.620  13.894  0.5049 -0.8377  1.4243
13037TIP3    H260603   3.596   6.686  13.970  0.2510  1.0885 -0.5257
13038TIP3   OH260604   3.118   4.950   0.678  0.5574  0.0775 -0.0924
13038TIP3    H160605   3.168   5.023   0.715  2.2010 -0.4073 -1.2423
13038TIP3    H260606   3.184   4.885   0.655 -0.5567 -0.4485 -2.0209
13039TIP3   OH260607   1.956   4.284   6.229 -0.5817 -0.7372  0.1475
13039TIP3    H160608   2.050   4.290   6.218 -0.6599  1.5075  0.3284
13039TIP3    H260609   1.944   4.263   6.322 -0.2390  2.2828  0.9692
13040TIP3   OH260610   1.439   6.801  13.756  0.2729  0.2208  0.6013
13040TIP3    H160611   1.424   6.761  13.842  0.1262  0.9247  0.9069
13040TIP3    H260612   1.467   6.728  13.700 -1.2058 -0.5524  0.8276
13041TIP3   OH260613   1.253   3.517  10.656  0.5707  0.6768 -0.1487
13041TIP3    H160614   1.242   3.495  10.563  0.7279 -0.5470  0.1032
13041TIP3    H260615   1.337   3.478  10.680  1.3197  2.3800  0.1251
13042TIP3   OH260616   5.495   6.221   5.478 -0.0900 -0.4974 -0.1903
13042TIP3    H160617   5.553   6.286   5.517 -0.6075 -0.3036  0.2734
13042TIP3    H260618   5.438   6.272   5.420 -1.5997 -0.2674  1.4313
13043TIP3   OH260619   2.124   6.710  15.229  0.1483 -0.4242  0.3437
13043TIP3    H160620   2.155   6.619  15.230 -0.0491 -0.4924  0.2921
13043TIP3    H260621   2.089   6.724  15.317  2.9465  0.5693  1.3971
13044TIP3   OH260622   6.706   2.221  16.773 -0.5489 -0.1490 -0.0554
13044TIP3    H160623   6.614   2.197  16.759 -0.4917 -1.0216  0.9982
13044TIP3    H260624   6.707   2.317  16.764 -1.6084 -0.1059  0.1993
13045TIP3   OH260625   5.602   1.840  14.635  0.0253 -0.3226  0.4186
13045TIP3    H160626   5.523   1.801  14.597 -1.5059  1.7663  1.2348
13045TIP3    H260627   5.672   1.778  14.616 -1.4941 -1.4546 -1.8271
13046TIP3   OH260628   3.816   2.146  11.179 -0.9308  0.0061 -0.0601
13046TIP3    H160629   3.860   2.217  11.225  0.2704 -0.6202 -0.2059
13046TIP3    H260630   3.842   2.156  11.087  0.1106 -1.2031  0.0703
13047TIP3   OH260631   0.790   4.817  11.249 -0.3798 -0.8556 -0.1714
13047TIP3    H160632   0.832   4.755  11.309 -0.5160 -0.3575  0.4623
13047TIP3    H260633   0.704   4.834  11.288  0.2284  0.8877  0.5378
13048TIP3   OH260634   4.612   2.384  16.279 -0.5846  0.2986  0.1360
13048TIP3    H160635   4.663   2.451  16.233 -1.9608 -0.6991 -3.1152
13048TIP3    H260636   4.521   2.409  16.267 -1.0582 -0.8098  1.1353
13049TIP3   OH260637   0.004   0.814   1.373 -0.0041  0.1471  0.0237
13049TIP3    H160638   0.075   0.877   1.359 -1.8970  2.3211 -0.3305
13049TIP3    H260639  -0.037   0.842   1.454 -1.7010  0.2229 -0.8218
13050TIP3   OH260640   1.725   5.390   0.730  0.4908  0.5185 -0.2730
13050TIP3    H160641   1.695   5.324   0.668  0.2026  0.4689 -0.0854
13050TIP3    H260642   1.745   5.342   0.810 -0.4187  0.7326  0.1003
13051TIP3   OH260643   2.931   4.555   3.734 -0.4086 -0.2040  0.4137
13051TIP3    H160644   3.026   4.546   3.731 -0.4397 -0.4166 -0.2000
13051TIP3    H260645   2.901   4.517   3.651 -0.8787  1.7573 -0.3781
13052TIP3   OH260646   4.144   1.590  14.334  0.8274 -0.0423 -0.2145
13052TIP3    H160647   4.118   1.606  14.243  2.1010  1.4520 -0.3443
13052TIP3    H260648   4.122   1.671  14.380  0.1094 -0.8136  0.8739
13053TIP3   OH260649   1.269   1.925  12.857  0.2196 -0.0094  0.2169
13053TIP3    H160650   1.364   1.932  12.843  0.0278  0.9320 -0.7489
13053TIP3    H260651   1.254   1.831  12.867  1.1647 -0.2501 -0.4158
13054TIP3   OH260652   5.995   5.217  11.872  0.1602 -0.7146 -0.9007
13054TIP3    H160653   5.917   5.272  11.868  0.4982  0.0289  1.2201
13054TIP3    H260654   6.062   5.267  11.825 -0.0004 -0.1710 -0.5524
13055TIP3   OH260655   3.929   4.194   5.518 -0.0803 -0.3202  0.1400
13055TIP3    H160656   3.847   4.161   5.480  0.3492  0.2541 -1.3588
13055TIP3    H260657   3.933   4.286   5.491  0.4741  0.0029  1.2498
13056TIP3   OH260658   5.896   0.825   1.767 -0.2048  0.2825  0.0373
13056TIP3    H160659   5.945   0.771   1.829  2.1958  1.8761 -0.3326
13056TIP3    H260660   5.880   0.907   1.814 -1.2341  0.3359 -0.3735
13057TIP3   OH260661   4.740   0.781   1.778 -0.0854  0.4703  0.2769
13057TIP3    H160662   4.679   0.829   1.723 -1.5926  1.5204  2.7117
13057TIP3    H260663   4.739   0.692   1.742 -2.6667  0.5837 -0.1458
13058TIP3   OH260664   0.365   6.721  13.235  0.0035 -0.2069  0.3462
13058TIP3    H160665   0.395   6.808  13.211  2.2177  0.0849  3.6475
13058TIP3    H260666   0.286   6.735  13.287  0.3987 -0.1599  0.9352
13059TIP3   OH260667   4.075   1.940  17.069  0.0043  0.0482 -0.1806
13059TIP3    H160668   4.137   1.894  17.013 -1.2285 -2.5171  0.4045
13059TIP3    H260669   4.126   1.964  17.146  0.3749 -1.9215  0.2450
13060TIP3   OH260670   4.631   2.198  11.198 -0.7166 -1.1370  0.0678
13060TIP3    H160671   4.563   2.194  11.130 -1.2829  1.1062  0.4113
13060TIP3    H260672   4.590   2.247  11.269  1.2115  0.1740  0.3353
13061TIP3   OH260673   3.816   5.517   1.483  0.3189 -0.2001  0.7895
13061TIP3    H160674   3.762   5.534   1.560  0.5011  1.5724  0.5672
13061TIP3    H260675   3.882   5.587   1.484  3.2355 -2.7052  1.5399
13062TIP3   OH260676   0.788   6.013   3.464 -0.3978  0.2631  0.3569
13062TIP3    H160677   0.773   5.928   3.505  1.6481 -1.0291 -1.3395
13062TIP3    H260678   0.714   6.025   3.404 -0.1930 -0.8558 -0.1440
13063TIP3   OH260679   0.730   6.637  14.038  0.5720  0.5798 -0.2811
13063TIP3    H160680   0.698   6.722  14.007 -0.0454  1.0895  1.6331
13063TIP3    H260681   0.660   6.576  14.016  0.9347  0.5743 -1.4934
13064TIP3   OH260682   3.150   2.274   5.052  0.6848 -0.1017  0.2222
13064TIP3    H160683   3.056   2.280   5.073  1.0180 -0.7726  2.0558
13064TIP3    H260684   3.164   2.183   5.029  0.7622  0.1760 -0.9231
13065TIP3   OH260685   2.568   1.311   4.199  0.1156  0.0133 -0.1561
13065TIP3    H160686   2.622   1.376   4.245 -0.2602  0.4004 -0.2540
13065TIP3    H260687   2.540   1.251   4.268 -1.8673  1.5507  0.4808
13066TIP3   OH260688   4.953   4.208  12.384  0.4092 -0.4419 -0.3429
13066TIP3    H160689   4.908   4.292  12.376 -0.6922 -1.0617 -0.8407
13066TIP3    H260690   5.030   4.227  12.438 -1.1718  0.3691  1.7458
13067TIP3   OH260691   5.389   4.081  13.764  0.4707  0.2218  0.1605
13067TIP3    H160692   5.323   4.014  13.743  1.7653 -1.5202  1.4147
13067TIP3    H260693   5.422   4.057  13.850  2.4152  1.3193 -0.2172
13068TIP3   OH260694   4.113   1.431   6.323  0.5106  0.7488 -0.1278
13068TIP3    H160695   4.152   1.515   6.301  1.6752  0.2571  0.0119
13068TIP3    H260696   4.035   1.454   6.374 -0.0286  1.7735 -1.3477
13069TIP3   OH260697   5.958   0.329   3.307 -0.6657 -0.2775  0.1232
13069TIP3    H160698   5.869   0.364   3.317 -0.7630 -0.3476 -0.5027
13069TIP3    H260699   5.963   0.300   3.216  0.2517  0.4394 -0.0676
13070TIP3   OH260700   6.303   6.745   0.403 -0.2796 -0.2478  0.6255
13070TIP3    H160701   6.372   6.808   0.381 -2.2458  1.5970 -0.7366
13070TIP3    H260702   6.257   6.784   0.477 -1.6322  0.0804 -0.3458
13071TIP3   OH260703   5.943   3.638   0.432 -0.3186 -0.7342 -0.4721
13071TIP3    H160704   6.002   3.566   0.452  0.8416  0.5547  1.0333
13071TIP3    H260705   5.856   3.604   0.451  0.0109 -2.3109 -1.6205
13072TIP3   OH260706   1.708   5.141   3.458 -0.1028 -0.6273 -0.2405
13072TIP3    H160707   1.701   5.046   3.469  2.4318 -0.7869  0.6409
13072TIP3    H260708   1.729   5.173   3.545 -0.9417  0.7759 -0.5300
13073TIP3   OH260709   3.599   1.994   5.652  0.2019  0.9013  0.1952
13073TIP3    H160710   3.604   2.079   5.609 -1.0009  1.6426  1.4181
13073TIP3    H260711   3.572   2.014   5.742 -3.0512 -0.9131 -0.2332
13074TIP3   OH260712   5.844   1.925   2.085  0.1712 -0.1762  0.2704
13074TIP3    H160713   5.828   1.989   2.015  1.2949  0.0225  0.1648
13074TIP3    H260714   5.930   1.887   2.063 -0.7130 -2.1363  0.0224
13075TIP3   OH260715   0.425   4.291  15.631 -0.4376  0.4352  0.6237
13075TIP3    H160716   0.350   4.270  15.688 -1.3863 -0.4359 -0.8543
13075TIP3    H260717   0.483   4.344  15.685 -3.3257  3.4203  1.1018
13076TIP3   OH260718   1.987   6.670   2.227 -0.0237 -0.4224 -0.3538
13076TIP3    H160719   1.942   6.597   2.184 -0.0751 -0.0511 -0.9248
13076TIP3    H260720   2.072   6.676   2.183 -0.0337 -0.1098 -0.3343
13077TIP3   OH260721   5.029   6.768  14.250 -0.3721  0.0864  0.2008
13077TIP3    H160722   4.999   6.761  14.340 -1.7291  0.4828 -0.1988
13077TIP3    H260723   5.017   6.860  14.227  0.4242  0.0901 -0.2350
13078TIP3   OH260724   2.914   4.946   4.313  0.2049  0.1981  0.0963
13078TIP3    H160725   2.848   4.882   4.338 -0.6405  0.3716 -1.5682
13078TIP3    H260726   2.979   4.942   4.383 -1.2894 -0.3504  1.5305
13079TIP3   OH260727   0.196   0.963   0.244 -0.0554 -0.1566  0.3360
13079TIP3    H160728   0.242   0.881   0.226 -0.5960 -0.5317  0.6432
13079TIP3    H260729   0.206   0.976   0.338 -0.0170  0.1093  0.2972
13080TIP3   OH260730   6.611   0.853  14.791 -0.2226  0.5344  0.0364
13080TIP3    H160731   6.667   0.867  14.715 -0.4131  0.0725 -0.1916
13080TIP3    H260732   6.650   0.778  14.836 -0.7189  0.1349 -0.1879
13081TIP3   OH260733   0.006   5.399   0.276 -0.5263 -0.3620  0.2714
13081TIP3    H160734   0.092   5.429   0.247 -0.2829  0.1507  1.4767
13081TIP3    H260735  -0.003   5.311   0.239 -0.3319  0.3172 -1.4983
13082TIP3   OH260736   4.510   5.692  15.447 -0.3883  0.1794 -0.1624
13082TIP3    H160737   4.535   5.622  15.386  1.1870  0.9747 -0.4753
13082TIP3    H260738   4.586   5.703  15.504 -1.5444 -0.0029  1.4886
13083TIP3   OH260739   4.724   3.437  10.823  0.3824  0.1813  0.2948
13083TIP3    H160740   4.801   3.386  10.800 -1.4767 -1.7109 -2.3610
13083TIP3    H260741   4.708   3.492  10.746 -1.5491 -0.3661  0.2540
13084TIP3   OH260742   5.201   3.211   2.227 -0.4476  0.2842  0.2247
13084TIP3    H160743   5.210   3.117   2.243 -3.6075 -0.4463 -1.4230
13084TIP3    H260744   5.158   3.245   2.305 -0.3387  0.1422  0.3471
13085TIP3   OH260745   2.821   4.106   1.731 -0.0671 -0.1862  0.3886
13085TIP3    H160746   2.765   4.116   1.808 -1.8392 -1.7147 -0.6286
13085TIP3    H260747   2.771   4.145   1.660 -0.0972 -2.0244 -0.6419
13086TIP3   OH260748   4.896   5.883  14.772 -0.2568 -0.2363 -0.2213
13086TIP3    H160749   4.821   5.896  14.714 -0.3694  1.3855  0.2521
13086TIP3    H260750   4.969   5.924  14.726 -0.1709  0.3105  0.3894
13087TIP3   OH260751   3.398   4.346  12.466 -0.1786 -0.3755  0.2437
13087TIP3    H160752   3.468   4.408  12.488  1.6717 -1.9252 -0.9622
13087TIP3    H260753   3.393   4.348  12.370 -2.4563  0.3339  0.3154
13088TIP3   OH260754   3.491   6.413  15.112 -0.3325 -0.1259  0.2577
13088TIP3    H160755   3.494   6.503  15.080  1.0699 -0.0591  0.4739
13088TIP3    H260756   3.477   6.421  15.207 -0.3269 -0.1362  0.2594
13089TIP3   OH260757   5.245   1.432   5.142 -0.3301  0.1076  0.2513
13089TIP3    H160758   5.222   1.502   5.081 -0.1134  0.6443  0.7799
13089TIP3    H260759   5.329   1.398   5.110 -1.0877 -0.8324 -0.7930
13090TIP3   OH260760   3.454   5.564  13.776  0.2336 -0.1441 -0.3076
13090TIP3    H160761   3.515   5.532  13.710  1.7069 -1.3969  1.5227
13090TIP3    H260762   3.510   5.586  13.851 -1.3619  1.0083  0.6162
13091TIP3   OH260763   2.097   3.134   2.882 -0.1110 -0.2688  0.1421
13091TIP3    H160764   2.013   3.178   2.881  0.2740  0.5012 -1.3023
13091TIP3    H260765   2.079   3.046   2.847 -0.2263  0.1120 -0.7789
13092TIP3   OH260766   3.973   3.524   1.227 -0.0178  0.3796  0.2441
13092TIP3    H160767   4.043   3.529   1.292 -0.4270  0.0344  0.7218
13092TIP3    H260768   3.966   3.430   1.208 -0.4612  0.3947  0.3253
13093TIP3   OH260769   4.748   1.782  12.599 -0.4996 -0.3742 -0.0949
13093TIP3    H160770   4.791   1.849  12.652 -2.3718 -0.1354  1.2520
13093TIP3    H260771   4.751   1.816  12.510 -1.1364  1.4043  0.5183
13094TIP3   OH260772   5.160   2.169  11.135 -0.1038 -0.0315 -0.5676
13094TIP3    H160773   5.187   2.221  11.210 -1.3840  1.2824 -0.9735
13094TIP3    H260774   5.172   2.227  11.060 -0.5856 -0.6685 -1.1516
13095TIP3   OH260775   5.319   6.309  11.586 -0.0501  0.0836 -0.3265
13095TIP3    H160776   5.318   6.355  11.670 -1.6617 -0.4970  0.0020
13095TIP3    H260777   5.411   6.309  11.560  0.2404  1.7648  0.6000
13096TIP3   OH260778   3.992   1.695   2.798 -0.0354 -0.4149  0.1491
13096TIP3    H160779   4.031   1.713   2.883  3.6258  1.2531 -1.6800
13096TIP3    H260780   3.997   1.600   2.788  2.5008 -0.3917  0.5844
13097TIP3   OH260781   4.456   5.973   0.358  0.5653  0.2760  0.1957
13097TIP3    H160782   4.411   5.975   0.442 -0.2290  0.1967 -0.2101
13097TIP3    H260783   4.437   6.058   0.319  1.0586  0.3726  0.1621
13098TIP3   OH260784   3.445   3.789   5.859  0.4995 -0.3646 -0.3981
13098TIP3    H160785   3.540   3.792   5.858  0.5638 -1.2299 -2.8889
13098TIP3    H260786   3.418   3.846   5.786 -0.7560 -1.8669 -1.1871
13099TIP3   OH260787   1.175   3.692  15.271 -0.3893  0.0473 -0.2686
13099TIP3    H160788   1.136   3.771  15.232 -3.3127  0.2026  2.5487
13099TIP3    H260789   1.118   3.621  15.241  0.9420 -0.7365 -1.0268
13100TIP3   OH260790   2.957   6.377  13.191 -0.0512  0.9564  0.0074
13100TIP3    H160791   3.032   6.375  13.251  1.2786  0.7038 -1.5658
13100TIP3    H260792   2.972   6.454  13.136 -0.0444  0.0348 -1.3610
13101TIP3   OH260793   5.771   0.784   1.273  0.3000 -0.1781  0.1212
13101TIP3    H160794   5.691   0.778   1.221  0.3455  0.8078 -0.0826
13101TIP3    H260795   5.787   0.878   1.283  0.9004 -0.3501  0.9850
13102TIP3   OH260796   1.570   4.157   0.356  0.1440  0.1795 -0.1843
13102TIP3    H160797   1.616   4.235   0.388 -0.2029  0.0672  0.6058
13102TIP3    H260798   1.628   4.084   0.378 -1.2536 -0.1878  2.6901
13103TIP3   OH260799   3.612   2.419  13.223  0.1416 -0.4403 -0.6058
13103TIP3    H160800   3.597   2.514  13.227 -0.0411 -0.4830 -0.2382
13103TIP3    H260801   3.695   2.410  13.177 -0.5821 -0.1674 -2.0235
13104TIP3   OH260802   4.812   6.287  16.006  0.3041 -0.3401 -0.2211
13104TIP3    H160803   4.855   6.213  16.048  0.5099 -0.5487 -0.7864
13104TIP3    H260804   4.730   6.297  16.054  0.5397 -0.5564  0.2401
13105TIP3   OH260805   4.604   6.669   2.849 -0.1870 -0.3189 -0.0745
13105TIP3    H160806   4.631   6.587   2.808 -1.5735  0.4475 -2.7584
13105TIP3    H260807   4.683   6.702   2.890  0.9221 -1.9790 -0.7541
13106TIP3   OH260808   5.267   5.932   4.736  0.0236 -0.2282  0.3756
13106TIP3    H160809   5.222   5.891   4.810 -0.3193  1.6903  1.3072
13106TIP3    H260810   5.213   5.911   4.660 -0.6989 -0.6065  0.9756
13107TIP3   OH260811   3.727   0.146   0.369  0.6284 -0.0598 -0.0819
13107TIP3    H160812   3.736   0.240   0.352  0.6860 -0.0250  0.1327
13107TIP3    H260813   3.783   0.130   0.445  1.2097 -0.4114 -0.5806
13108TIP3   OH260814   4.433   3.210   0.614  0.2175 -0.2915 -0.3334
13108TIP3    H160815   4.459   3.225   0.523 -1.9365  1.1146 -0.8171
13108TIP3    H260816   4.402   3.296   0.644 -0.1369 -0.9713  1.3577
13109TIP3   OH260817   2.320   5.059   0.750  0.5702  0.1220 -0.1258
13109TIP3    H160818   2.385   5.013   0.696  2.4448  1.3118  0.9890
13109TIP3    H260819   2.276   4.990   0.799  0.7138 -0.7457 -1.1749
13110TIP3   OH260820   1.930   5.576  10.988 -0.0902  0.0689  0.3664
13110TIP3    H160821   1.959   5.592  10.898  1.4216 -1.1583  0.5991
13110TIP3    H260822   1.928   5.663  11.028  3.5321  0.2994  0.3530
13111TIP3   OH260823   2.454   1.073   2.431  0.0017 -0.3101 -0.0039
13111TIP3    H160824   2.488   1.156   2.465 -2.1036  0.2781  0.8737
13111TIP3    H260825   2.526   1.036   2.380  0.6688  2.6207 -1.4282
13112TIP3   OH260826   0.225   5.624   3.696  0.0071  0.0278  0.0586
13112TIP3    H160827   0.243   5.652   3.786  2.3391 -2.0954  0.3848
13112TIP3    H260828   0.258   5.696   3.641 -2.3078  1.7695  0.8207
13113TIP3   OH260829   1.205   0.124  13.689 -0.6399  0.0681  0.4300
13113TIP3    H160830   1.195   0.208  13.733  0.2899  0.7422 -0.5822
13113TIP3    H260831   1.285   0.087  13.726 -0.2886  0.2768 -0.1071
13114TIP3   OH260832   4.008   5.688  12.460 -0.5971  0.2481  0.3041
13114TIP3    H160833   3.924   5.733  12.450 -0.6072  0.4463  1.1775
13114TIP3    H260834   4.035   5.668  12.371 -1.2371  0.8045 -0.0294
13115TIP3   OH260835   1.793   1.710  12.566 -0.0266  0.5385  0.3346
13115TIP3    H160836   1.749   1.683  12.647  1.0207 -0.1772  0.6949
13115TIP3    H260837   1.875   1.750  12.596  2.2503 -3.0654 -0.3287
13116TIP3   OH260838   0.292   3.237   1.819 -0.7770  0.4251  0.0693
13116TIP3    H160839   0.387   3.243   1.809 -0.4755 -2.0824  0.8501
13116TIP3    H260840   0.273   3.291   1.896  0.0384  0.7595  0.0428
13117TIP3   OH260841   0.311   3.259  16.205 -0.2169 -0.2107 -0.5610
13117TIP3    H160842   0.319   3.207  16.285 -0.6498  0.8098  0.1771
13117TIP3    H260843   0.248   3.212  16.151  0.3621 -1.1056 -0.4685
13118TIP3   OH260844   1.187   3.066   0.042  0.3616  0.3384 -0.4034
13118TIP3    H160845   1.261   3.123   0.063  1.2679 -0.6463 -0.8178
13118TIP3    H260846   1.113   3.104   0.090  1.5409  0.2593  1.6026
13119TIP3   OH260847   1.873   5.437   4.435 -0.3250 -0.5614 -0.1431
13119TIP3    H160848   1.905   5.395   4.515 -1.6524 -0.8639  0.2486
13119TIP3    H260849   1.917   5.522   4.433  1.8476 -1.6184 -0.5659
13120TIP3   OH260850   5.029   0.044  12.610 -0.6027  0.2133 -0.2183
13120TIP3    H160851   5.070   0.124  12.641  0.5590  0.1812 -1.5678
13120TIP3    H260852   4.989   0.067  12.526  0.1725 -0.6935 -0.8712
13121TIP3   OH260853   3.291   6.216  15.150  0.1665 -0.4945  0.4862
13121TIP3    H160854   3.360   6.200  15.213  1.5008  0.4156 -0.6784
13121TIP3    H260855   3.314   6.300  15.109 -0.7225 -0.9569 -1.0769
13122TIP3   OH260856   3.800   3.945   1.444  0.5995  0.0676  0.1812
13122TIP3    H160857   3.784   3.897   1.526  0.4281  0.0273  0.1249
13122TIP3    H260858   3.773   4.035   1.463  1.4562  0.2708  0.4632
13123TIP3   OH260859   4.460   3.153  11.492  0.0831  0.2711  0.1401
13123TIP3    H160860   4.387   3.199  11.450  2.1158  2.3677 -1.3575
13123TIP3    H260861   4.532   3.162  11.430  1.7749 -1.3223  1.7593
13124TIP3   OH260862   3.534   2.429   1.799  0.4470 -0.3230 -0.8420
13124TIP3    H160863   3.465   2.377   1.839 -0.3486 -0.0043 -1.7564
13124TIP3    H260864   3.502   2.448   1.711  0.8164  1.5155 -0.6232
13125TIP3   OH260865   2.444   4.311  12.516  0.4057 -0.3687 -0.5836
13125TIP3    H160866   2.380   4.246  12.544  2.2651 -1.9554  0.1543
13125TIP3    H260867   2.515   4.260  12.476  1.8844  1.1921 -0.0700
13126TIP3   OH260868   6.228   0.795   3.179 -0.1775 -0.6217 -0.0727
13126TIP3    H160869   6.242   0.799   3.274  2.1631 -3.1961 -0.1731
13126TIP3    H260870   6.157   0.733   3.168  0.8354 -1.8418  0.0121
13127TIP3   OH260871   6.400   6.193   0.277  0.5943 -0.2466 -0.0328
13127TIP3    H160872   6.344   6.205   0.354 -0.4030 -4.0613  0.0836
13127TIP3    H260873   6.474   6.140   0.310 -0.4748 -3.0344 -1.7443
13128TIP3   OH260874   5.076   1.053  13.088 -0.2554 -0.0101  0.4825
13128TIP3    H160875   5.140   1.113  13.125 -0.9391  0.3965  1.0507
13128TIP3    H260876   5.113   0.966  13.101 -1.4468 -0.1210  4.4057
13129TIP3   OH260877   2.220   0.463  13.054 -0.2966 -0.1044 -0.7372
13129TIP3    H160878   2.236   0.453  13.148 -0.9773 -0.8297 -0.6822
13129TIP3    H260879   2.187   0.552  13.044 -1.2777 -0.3853 -0.1163
13130TIP3   OH260880   2.578   6.424  16.161 -0.2324 -0.0056  0.4049
13130TIP3    H160881   2.583   6.418  16.065  0.7382  0.6436  0.4075
13130TIP3    H260882   2.633   6.498  16.184  1.3563 -1.4921  1.6543
13131TIP3   OH260883   2.998   0.885   3.067 -0.6993 -0.1721 -0.0994
13131TIP3    H160884   3.069   0.934   3.026 -1.4672 -1.5059 -3.3563
13131TIP3    H260885   2.936   0.952   3.096  0.9926  0.9280  1.1757
13132TIP3   OH260886   3.961   3.734  12.836 -0.3491 -0.3613  0.2966
13132TIP3    H160887   4.049   3.763  12.811  0.1982  0.8372  3.2108
13132TIP3    H260888   3.920   3.812  12.873 -1.7209 -1.4976  1.2514
13133TIP3   OH260889   6.577   2.657   0.237  0.3764 -0.3318 -0.8133
13133TIP3    H160890   6.497   2.681   0.190 -0.5613  0.4408  1.0830
13133TIP3    H260891   6.641   2.723   0.211  0.3027 -0.7311 -2.0571
13134TIP3   OH260892   3.469   1.718  14.798 -0.2019 -0.1758 -0.2858
13134TIP3    H160893   3.558   1.697  14.770  0.3829 -0.8320  1.8347
13134TIP3    H260894   3.413   1.655  14.751  0.4102  0.3683 -1.7755
13135TIP3   OH260895   4.339   4.002   3.975  0.3139  0.5601  0.6700
13135TIP3    H160896   4.428   4.014   4.008  0.0668  1.4148  1.0449
13135TIP3    H260897   4.348   3.996   3.880  0.7564  0.7439  0.7019
13136TIP3   OH260898   1.206   4.020   2.159  0.4663 -0.4604 -0.4386
13136TIP3    H160899   1.150   3.951   2.123 -0.9167  0.9174 -1.0509
13136TIP3    H260900   1.228   4.074   2.083 -2.2989  2.3637  0.5990
13137TIP3   OH260901   2.897   1.001  16.870  0.3286  0.0973 -0.2323
13137TIP3    H160902   2.969   1.063  16.857  1.4352 -0.6959  1.6080
13137TIP3    H260903   2.869   0.977  16.782  2.1445  0.6545 -1.0042
13138TIP3   OH260904   0.019   5.436  11.893 -0.5224 -0.0611  0.6431
13138TIP3    H160905  -0.032   5.362  11.862  0.4624  0.0604 -1.4526
13138TIP3    H260906   0.090   5.398  11.944  2.6471 -1.1966 -4.0081
13139TIP3   OH260907   6.315   2.343  12.037 -0.1008 -0.0259 -0.3742
13139TIP3    H160908   6.331   2.275  11.972  1.1996 -0.8378  0.7504
13139TIP3    H260909   6.239   2.311  12.087  0.8484 -0.9842  0.5175
13140TIP3   OH260910   3.743   4.214  12.186 -0.3243  0.6291  0.3413
13140TIP3    H160911   3.795   4.170  12.119 -1.2579 -1.5896  0.9801
13140TIP3    H260912   3.698   4.284  12.139  0.1134  0.0063 -1.0452
13141TIP3   OH260913   5.457   0.229   0.725  0.2500  0.2800 -0.3425
13141TIP3    H160914   5.533   0.257   0.775  0.3621 -0.1779 -0.2548
13141TIP3    H260915   5.414   0.163   0.780  0.2229 -0.0304 -0.7287
13142TIP3   OH260916   5.378   2.371   3.188  0.2318 -0.2839  0.3844
13142TIP3    H160917   5.324   2.406   3.117  1.4017 -0.7166 -0.7340
13142TIP3    H260918   5.314   2.339   3.252 -0.8504  1.3071  0.1577
13143TIP3   OH260919   5.692   4.743  15.039 -0.5010  0.4480  0.2987
13143TIP3    H160920   5.652   4.666  14.999 -0.5272  0.8301 -0.4218
13143TIP3    H260921   5.684   4.812  14.973  2.4594  0.2142 -0.4512
13144TIP3   OH260922   1.053   1.898  15.441 -0.1412 -0.2386 -0.1035
13144TIP3    H160923   1.044   1.985  15.403  1.9033  0.1183  0.0905
13144TIP3    H260924   1.084   1.914  15.530  0.0632 -1.1566 -0.0019
13145TIP3   OH260925   0.754   2.760  12.689 -0.1343 -0.3487 -0.2776
13145TIP3    H160926   0.686   2.813  12.732  0.9946 -0.0120  1.1645
13145TIP3    H260927   0.711   2.725  12.611 -1.8580  0.1394  0.4046
13146TIP3   OH260928   2.412   1.865   5.899  0.2177  0.2329  0.4070
13146TIP3    H160929   2.327   1.856   5.941  0.1627 -0.6148  0.1206
13146TIP3    H260930   2.436   1.957   5.913 -0.5205  0.3548  0.9000
13147TIP3   OH260931   4.523   2.012  15.409 -0.5856  0.2275  0.0892
13147TIP3    H160932   4.527   1.916  15.407  0.8814  0.2688 -0.4456
13147TIP3    H260933   4.612   2.040  15.388 -1.3008  1.7343 -1.1501
13148TIP3   OH260934   3.301   5.230  15.056  0.1656 -0.3206 -0.2671
13148TIP3    H160935   3.271   5.212  14.967  0.5658  0.4063 -0.5590
13148TIP3    H260936   3.274   5.153  15.106  1.1809 -1.3925 -1.3057
13149TIP3   OH260937   5.865   6.671   1.051 -0.0859 -0.1239 -0.2283
13149TIP3    H160938   5.875   6.672   0.955 -0.6533  2.1569 -0.3318
13149TIP3    H260939   5.878   6.762   1.077  0.1321 -0.7071  1.9034
13150TIP3   OH260940   0.671   0.962  12.730 -0.4895 -0.0713  0.5066
13150TIP3    H160941   0.723   0.896  12.774 -0.0360  1.3352  2.1675
13150TIP3    H260942   0.655   0.926  12.642  1.8607 -1.2525  0.5000
13151TIP3   OH260943   1.241   2.957   0.704  0.0408  0.2803  0.8379
13151TIP3    H160944   1.198   2.986   0.624  1.6857  2.8951  0.7578
13151TIP3    H260945   1.298   2.886   0.677 -1.3490 -0.6372  0.2354
13152TIP3   OH260946   3.080   3.610  15.287 -0.4028  0.4137 -0.0692
13152TIP3    H160947   3.161   3.565  15.266 -0.5746 -0.7419  1.5766
13152TIP3    H260948   3.011   3.553  15.253 -0.5766  0.6338 -0.0919
13153TIP3   OH260949   1.147   0.219   4.072  0.0101  0.5334  0.2417
13153TIP3    H160950   1.054   0.221   4.051  0.1413 -1.1328 -0.7086
13153TIP3    H260951   1.185   0.293   4.025 -0.4920 -0.2048 -1.3914
13154TIP3   OH260952   0.401   1.960  16.399  0.3101  0.2041 -0.9604
13154TIP3    H160953   0.393   1.981  16.492  0.1407 -0.9800 -0.6872
13154TIP3    H260954   0.464   2.023  16.365 -1.2635  2.0974 -0.5529
13155TIP3   OH260955   3.532   4.895  12.756 -0.5796 -0.3278  0.1640
13155TIP3    H160956   3.458   4.955  12.744 -1.0611 -1.0417 -0.5669
13155TIP3    H260957   3.491   4.809  12.771  0.0207 -1.1305 -2.2056
13156TIP3   OH260958   1.721   1.729  11.092 -0.3829 -0.1405  0.6930
13156TIP3    H160959   1.698   1.659  11.153  0.2969 -1.3455 -0.3916
13156TIP3    H260960   1.644   1.739  11.036  0.2415 -1.4966 -0.4690
13157TIP3   OH260961   0.992   4.628   6.560 -0.3978  0.0156 -0.0590
13157TIP3    H160962   0.974   4.701   6.619 -0.6537 -0.3004  0.2589
13157TIP3    H260963   1.065   4.658   6.507 -1.0259  0.8129 -0.4859
13158TIP3   OH260964   1.750   1.059  12.015  0.2510 -0.3288 -0.3467
13158TIP3    H160965   1.752   0.985  11.955  0.6259 -1.1414  0.6277
13158TIP3    H260966   1.749   1.136  11.959  1.9278 -1.0232 -1.3890
13159TIP3   OH260967   0.952   5.108   5.724 -0.3509 -0.3632  0.5218
13159TIP3    H160968   1.017   5.169   5.687 -1.2786  0.3135 -0.0499
13159TIP3    H260969   0.997   5.066   5.797 -0.2305  2.4493  2.2308
13160TIP3   OH260970   5.326   2.964  11.336 -0.3594  0.4620  1.0660
13160TIP3    H160971   5.348   2.931  11.422  1.5643 -2.1764 -0.3237
13160TIP3    H260972   5.251   2.912  11.308  0.9477 -0.9191 -0.0217
13161TIP3   OH260973   1.543   1.791   4.599  0.1258  0.0762  0.1184
13161TIP3    H160974   1.582   1.707   4.623 -0.9030 -0.2315  0.7455
13161TIP3    H260975   1.451   1.784   4.625 -0.1751  1.0783 -0.6158
13162TIP3   OH260976   6.616   6.686  13.912  0.1787 -0.3947  0.4265
13162TIP3    H160977   6.668   6.641  13.846 -0.4667 -0.5897  0.0347
13162TIP3    H260978   6.680   6.725  13.971  0.7603 -0.6892  0.0010
13163TIP3   OH260979   1.903   1.563   1.593 -0.5245  0.1943 -0.2325
13163TIP3    H160980   1.976   1.556   1.532 -0.9209  2.2888 -1.0388
13163TIP3    H260981   1.922   1.642   1.644 -1.6091  0.0684  0.3959
13164TIP3   OH260982   6.583   1.624  16.330 -0.1111 -0.2795 -0.1487
13164TIP3    H160983   6.631   1.605  16.250 -0.0639 -3.0517  0.4455
13164TIP3    H260984   6.621   1.706  16.361  0.2820  0.5508 -2.6039
13165TIP3   OH260985   0.192   3.059  14.440 -0.3488 -0.1997 -0.4968
13165TIP3    H160986   0.252   3.111  14.386 -2.5043  3.5543  0.4130
13165TIP3    H260987   0.159   2.992  14.380 -0.3790  1.9100 -3.0369
13166TIP3   OH260988   2.294   4.037   0.107  0.0627  0.0338  0.4522
13166TIP3    H160989   2.215   3.987   0.129  1.5435 -3.1099 -0.7165
13166TIP3    H260990   2.358   4.011   0.173  0.6442  1.1766  0.3708
13167TIP3   OH260991   1.474   4.002   1.970 -0.3715  0.0989  0.0316
13167TIP3    H160992   1.410   4.045   2.026 -1.9424  0.4099 -1.8925
13167TIP3    H260993   1.536   4.070   1.946 -0.2452  0.1895  0.6239
13168TIP3   OH260994   1.764   4.628   4.076  0.3357  0.5052 -0.6332
13168TIP3    H160995   1.702   4.555   4.065 -0.2080  0.7634  0.5385
13168TIP3    H260996   1.829   4.595   4.139  1.7147  0.0591 -2.2280
13169TIP3   OH260997   0.381   1.242  14.044 -0.4957  0.0615  0.4552
13169TIP3    H160998   0.397   1.308  13.976 -0.6313 -0.8726 -0.5172
13169TIP3    H260999   0.454   1.180  14.035 -1.5843 -1.1741 -0.2370
13170TIP3   OH261000   1.740   2.274   1.162  0.4337  0.4088  0.3630
13170TIP3    H161001   1.695   2.216   1.224  0.6286  0.9452  1.0142
13170TIP3    H261002   1.674   2.338   1.136  0.3265  0.1302 -0.0631
13171TIP3   OH261003   1.927   1.601  14.032  0.8817  0.0290 -0.2220
13171TIP3    H161004   1.914   1.692  14.060 -1.3338 -0.4896  0.6841
13171TIP3    H261005   1.847   1.556  14.060  1.0591 -1.8013 -2.3971
13172TIP3   OH261006   1.547   3.104  14.372  0.3126  0.2128 -0.1132
13172TIP3    H161007   1.568   3.144  14.288  0.8929  1.3698  0.5697
13172TIP3    H261008   1.529   3.177  14.430 -1.1044 -0.5971  0.5306
13173TIP3   OH261009   3.173   4.170   4.004 -0.2360 -0.2285 -0.1154
13173TIP3    H161010   3.122   4.118   4.066  0.0766 -1.5526 -0.9460
13173TIP3    H261011   3.186   4.113   3.929 -1.2513  1.5838 -1.7699
13174TIP3   OH261012   0.531   6.106  13.545  0.1478  0.1489 -0.1088
13174TIP3    H161013   0.552   6.158  13.467  1.4014 -1.0333 -0.6293
13174TIP3    H261014   0.450   6.060  13.522  0.5177 -0.2067 -0.7557
13175TIP3   OH261015   3.891   1.514   6.449 -0.3444 -0.0096  0.0997
13175TIP3    H161016   3.903   1.609   6.449  1.5282 -0.1482  2.3405
13175TIP3    H261017   3.810   1.499   6.497 -0.8628  0.4643 -0.6282
13176TIP3   OH261018   1.534   4.751  14.584  0.1539 -0.1575  0.1158
13176TIP3    H161019   1.627   4.738  14.567 -0.1860 -0.0931 -2.1946
13176TIP3    H261020   1.509   4.822  14.525 -1.7505 -1.5233 -0.8449
13177TIP3   OH261021   4.735   0.410   5.712 -0.5120  0.0079  0.5408
13177TIP3    H161022   4.701   0.328   5.748 -0.8944 -0.0996 -0.0630
13177TIP3    H261023   4.804   0.437   5.774  0.0209 -1.0666  0.4277
13178TIP3   OH261024   6.127   2.794  11.000 -0.2935  0.4018  0.1801
13178TIP3    H161025   6.059   2.861  10.992  0.0640  0.6330 -0.9486
13178TIP3    H261026   6.155   2.776  10.911  0.1118 -0.7531  0.5180
13179TIP3   OH261027   1.916   5.266  11.006  0.0290 -0.3791 -0.2078
13179TIP3    H161028   1.983   5.199  10.986  0.4863 -0.1781  0.6079
13179TIP3    H261029   1.834   5.227  10.975  0.4922 -0.7035 -1.0750
13180TIP3   OH261030   4.926   5.226  13.725 -0.3692  0.2816 -0.2746
13180TIP3    H161031   4.996   5.289  13.741 -0.2346  0.1464 -0.3280
13180TIP3    H261032   4.869   5.234  13.801  0.3593 -0.4828  0.3693
13181TIP3   OH261033   3.406   0.459  14.061  0.1276 -0.0065 -0.2906
13181TIP3    H161034   3.474   0.453  13.994 -0.9843 -0.0586 -1.4532
13181TIP3    H261035   3.384   0.368  14.082  0.2501  0.0113 -0.0775
13182TIP3   OH261036   5.500   0.809  14.063 -0.0592  0.0313  0.4045
13182TIP3    H161037   5.523   0.814  14.156  2.7787  2.5714 -0.2708
13182TIP3    H261038   5.444   0.885  14.047  1.5124  1.0813 -0.3644
13183TIP3   OH261039   5.544   3.621   0.025 -0.0570 -0.3476 -0.0789
13183TIP3    H161040   5.514   3.588   0.111  2.1560 -0.2816  0.7814
13183TIP3    H261041   5.544   3.716   0.035 -1.6551 -0.2408 -0.8569
13184TIP3   OH261042   2.768   4.582   2.704 -0.7762 -0.2257 -0.3118
13184TIP3    H161043   2.777   4.488   2.691 -3.4868 -0.4356 -1.4699
13184TIP3    H261044   2.739   4.591   2.795  3.8634 -0.0013  1.3714
13185TIP3   OH261045   5.806   6.636  16.973  0.1802 -0.1280 -0.4297
13185TIP3    H161046   5.844   6.703  17.029 -1.4112 -0.6012  1.3243
13185TIP3    H261047   5.720   6.672  16.949 -0.1207 -0.9459 -0.5967
13186TIP3   OH261048   4.555   1.816   0.003  0.4882  0.0774  0.2539
13186TIP3    H161049   4.488   1.751  -0.018 -0.9371  1.5955 -0.1127
13186TIP3    H261050   4.553   1.822   0.099 -0.3671  0.5532  0.2152
13187TIP3   OH261051   5.321   4.194   4.620 -0.4739 -0.4822 -0.2436
13187TIP3    H161052   5.268   4.145   4.682 -3.7061  1.4950 -1.2053
13187TIP3    H261053   5.370   4.256   4.674 -0.5685 -1.0858  0.5545
13188TIP3   OH261054   3.056   2.469   5.863  0.4624 -0.3848  0.6812
13188TIP3    H161055   2.987   2.419   5.905  0.8984 -1.3909  0.2337
13188TIP3    H261056   3.012   2.519   5.795 -0.0490  0.2371  1.4538
13189TIP3   OH261057   5.077   0.174  16.472 -0.1500 -0.5243 -0.2061
13189TIP3    H161058   4.984   0.167  16.493 -0.1044  0.6877  0.5008
13189TIP3    H261059   5.078   0.195  16.379 -0.5819 -0.5911 -0.2324
13190TIP3   OH261060   1.072   6.262   4.818 -0.0753  0.0586  0.0152
13190TIP3    H161061   1.062   6.281   4.911  3.7293  0.4405  0.4633
13190TIP3    H261062   1.024   6.332   4.774 -1.1907  0.3683  1.6304
13191TIP3   OH261063   3.394   3.130  15.830 -0.1542  0.3695  0.1050
13191TIP3    H161064   3.459   3.092  15.888  0.2527  0.5756 -0.2062
13191TIP3    H261065   3.425   3.220  15.815  1.1361 -0.3852 -2.3751
13192TIP3   OH261066   5.020   4.997  15.601 -0.1771  0.3005  0.3850
13192TIP3    H161067   4.974   5.050  15.535 -0.8265 -1.3004 -0.5072
13192TIP3    H261068   4.968   5.009  15.681 -1.1438 -0.0613 -0.1637
13193TIP3   OH261069   2.736   3.328  12.524 -0.5487  0.1241 -0.2726
13193TIP3    H161070   2.643   3.352  12.521 -0.5373  0.2795  0.3621
13193TIP3    H261071   2.737   3.233  12.511 -0.9069 -0.0634  0.9292
13194TIP3   OH261072   0.901   0.212  13.953 -0.0119 -0.0089  0.0628
13194TIP3    H161073   0.949   0.232  13.872 -0.2657  0.3182 -0.0036
13194TIP3    H261074   0.861   0.294  13.979 -2.9017 -0.8293 -1.4179
13195TIP3   OH261075   6.643   5.863  12.717 -0.3294  0.3606  0.5456
13195TIP3    H161076   6.591   5.908  12.651 -0.0528  1.1421  0.8490
13195TIP3    H261077   6.720   5.831  12.670 -0.4178  0.4030  0.3726
13196TIP3   OH261078   0.796   3.089  12.444 -0.4021 -0.1172 -0.5473
13196TIP3    H161079   0.768   3.173  12.481  0.8681  0.2898 -0.4602
13196TIP3    H261080   0.879   3.109  12.400 -0.8667 -1.0052 -1.9022
13197TIP3   OH261081   5.613   5.347   3.426  0.3240 -0.0780 -0.2285
13197TIP3    H161082   5.533   5.397   3.412  0.7774  0.7004 -0.1009
13197TIP3    H261083   5.594   5.260   3.390 -0.6409  0.0306 -0.0091
13198TIP3   OH261084   5.197   4.229  12.524  0.5048  0.0216  0.3527
13198TIP3    H161085   5.292   4.216  12.520  0.4609 -0.5718  1.0817
13198TIP3    H261086   5.169   4.180  12.601 -0.4498 -0.1046 -0.0605
13199TIP3   OH261087   0.942   1.090   0.509 -0.2239  0.8468  0.2242
13199TIP3    H161088   0.876   1.116   0.445 -0.4289 -0.9330 -0.3664
13199TIP3    H261089   1.024   1.125   0.475 -0.4263  0.4515 -0.7036
13200TIP3   OH261090   3.806   2.880   1.869 -0.1766 -0.1659  0.0738
13200TIP3    H161091   3.724   2.835   1.848  0.3686 -0.4779 -1.5666
13200TIP3    H261092   3.785   2.937   1.943 -1.4679 -1.4057  0.7070
13201TIP3   OH261093   5.047   5.614   6.417 -0.0942  0.2967 -0.2813
13201TIP3    H161094   4.958   5.646   6.408  0.1611  1.4016  0.8922
13201TIP3    H261095   5.078   5.649   6.501  2.1304  1.6861 -1.5603
13202TIP3   OH261096   6.559   3.407   4.676  0.4120 -0.0124 -0.6940
13202TIP3    H161097   6.576   3.496   4.708  3.2076 -0.2980 -1.0653
13202TIP3    H261098   6.473   3.411   4.635 -0.1125  2.1616  0.4778
13203TIP3   OH261099   4.774   1.929   2.764 -0.3288  0.7085 -0.0154
13203TIP3    H161100   4.722   1.872   2.708  0.6920  0.2185 -0.5117
13203TIP3    H261101   4.770   1.888   2.850  1.9155 -1.2774 -0.7441
13204TIP3   OH261102   1.017   3.759  11.833  0.1119  0.2964 -0.0210
13204TIP3    H161103   1.029   3.799  11.748 -1.2013  0.4151 -0.1751
13204TIP3    H261104   0.978   3.828  11.887 -1.2929 -0.4571 -0.0270
13205TIP3   OH261105   1.228   2.439  11.999 -0.4652 -0.5289  0.0883
13205TIP3    H161106   1.200   2.365  11.946  1.2085 -1.0200 -0.1588
13205TIP3    H261107   1.315   2.462  11.965 -0.5520  0.9477  0.7750
13206TIP3   OH261108   6.281   2.372   2.053 -0.0838 -0.5499  0.4931
13206TIP3    H161109   6.227   2.441   2.015  2.8372  0.9918 -1.2267
13206TIP3    H261110   6.294   2.398   2.144  0.8657  1.1703 -0.0953
13207TIP3   OH261111   5.123   4.322  14.939  0.2460 -0.5862 -0.0551
13207TIP3    H161112   5.036   4.335  14.977  0.5238 -0.0051  0.3982
13207TIP3    H261113   5.180   4.377  14.991  0.8659 -0.8439 -0.4534
13208TIP3   OH261114   0.541   5.494  11.292 -0.4516 -0.1591  0.3570
13208TIP3    H161115   0.505   5.582  11.296 -0.5653 -0.1869  0.0034
13208TIP3    H261116   0.524   5.457  11.378  0.5967  0.5475  0.8909
13209TIP3   OH261117   3.392   6.605   1.108  0.3617 -0.0758 -0.5920
13209TIP3    H161118   3.302   6.582   1.129  0.3538 -0.4525 -1.0272
13209TIP3    H261119   3.386   6.657   1.028  0.5212  0.0042 -0.5534
13210TIP3   OH261120   5.291   3.931  11.741 -0.1704  0.0649  0.1847
13210TIP3    H161121   5.225   3.863  11.729 -0.2405  0.0291  0.7358
13210TIP3    H261122   5.242   4.005  11.776 -0.2938  0.7975 -1.4488
13211TIP3   OH261123   5.579   3.803  14.184 -0.3458  0.2370 -0.6259
13211TIP3    H161124   5.501   3.813  14.129  1.5065  2.4035 -3.1969
13211TIP3    H261125   5.560   3.730  14.242 -4.0652  0.4012 -1.4249
13212TIP3   OH261126   2.337   3.846  14.706 -0.0115  0.2437  0.2750
13212TIP3    H161127   2.273   3.914  14.685 -0.3241 -0.4669 -1.1894
13212TIP3    H261128   2.410   3.862  14.646 -0.5069 -1.2675 -0.7950
13213TIP3   OH261129   3.619   6.384  11.968 -0.4111 -0.3041 -0.6761
13213TIP3    H161130   3.533   6.370  12.006 -1.4078  2.5106 -1.6275
13213TIP3    H261131   3.606   6.369  11.874 -0.4555  2.0674 -1.1065
13214TIP3   OH261132   0.167   6.140  13.089  0.4087  0.0495  0.2207
13214TIP3    H161133   0.076   6.120  13.110  0.4300 -1.1968 -0.7332
13214TIP3    H261134   0.172   6.236  13.094 -1.3058  0.2649 -0.9998
13215TIP3   OH261135   0.649   4.731  12.549 -0.1017  0.3770 -0.1279
13215TIP3    H161136   0.594   4.657  12.572  0.0547 -0.0804 -1.1512
13215TIP3    H261137   0.592   4.808  12.560 -0.0328  0.1971  1.6634
13216TIP3   OH261138   3.478   5.504  14.823  0.0385 -0.3812  0.3449
13216TIP3    H161139   3.390   5.525  14.856  0.6660 -0.0199  1.8526
13216TIP3    H261140   3.530   5.487  14.901  1.5734  0.4152 -0.4515
13217TIP3   OH261141   1.195   1.144   0.858  0.6236 -0.2240 -0.8945
13217TIP3    H161142   1.211   1.051   0.839  1.3955 -0.6314  1.4111
13217TIP3    H261143   1.273   1.189   0.824  0.0387 -0.3045 -2.4419
13218TIP3   OH261144   1.102   0.458  15.955 -0.0173 -0.1096 -0.0795
13218TIP3    H161145   1.185   0.503  15.966  1.7106 -3.2646  1.0289
13218TIP3    H261146   1.114   0.403  15.877 -0.4192 -1.7275  0.9415
13219TIP3   OH261147   2.212   5.029  13.461  0.0946 -0.2488  0.6142
13219TIP3    H161148   2.151   5.093  13.423  0.5253  0.3071  0.8379
13219TIP3    H261149   2.245   5.073  13.540  0.2197 -0.8478  0.8992
13220TIP3   OH261150   0.791   5.807   6.478  0.2197  0.1921 -0.2024
13220TIP3    H161151   0.741   5.728   6.459 -1.7619  1.6188 -1.1983
13220TIP3    H261152   0.727   5.878   6.476  1.8069  1.7798  1.3455
13221TIP3   OH261153   2.376   6.145   2.420 -0.4726  1.3288 -0.0006
13221TIP3    H161154   2.394   6.196   2.499  1.3088 -1.2435  1.4248
13221TIP3    H261155   2.296   6.096   2.441  1.5975 -1.6617  1.6583
13222TIP3   OH261156   4.987   0.111  13.741 -0.2914  0.0860 -0.0124
13222TIP3    H161157   4.923   0.138  13.675  0.4066  1.6282 -0.1009
13222TIP3    H261158   5.037   0.190  13.761  0.0365 -0.5257  1.8185
13223TIP3   OH261159   4.239   2.548   2.005  0.0637  0.2445 -0.0400
13223TIP3    H161160   4.239   2.497   1.923  0.3317  0.5460 -0.2271
13223TIP3    H261161   4.327   2.585   2.010 -0.5881  1.9887 -0.7080
13224TIP3   OH261162   6.285   2.235   2.551  0.2581 -0.3152  0.4371
13224TIP3    H161163   6.325   2.240   2.638 -0.7253  1.1606  0.8318
13224TIP3    H261164   6.356   2.260   2.491  0.4651  0.3889  0.9627
13225TIP3   OH261165   3.861   0.389   3.219 -0.5812  0.1801 -0.2501
13225TIP3    H161166   3.801   0.338   3.165 -1.1265 -0.9925  1.3678
13225TIP3    H261167   3.872   0.472   3.173 -1.0150 -0.7641 -2.1178
13226TIP3   OH261168   3.579   0.025   5.792  0.1499  0.2339  0.3562
13226TIP3    H161169   3.603   0.103   5.843 -0.9457 -0.0441  1.3336
13226TIP3    H261170   3.526   0.059   5.719  1.0842  0.5521 -0.1971
13227TIP3   OH261171   2.406   6.678  14.528 -0.5868  0.1054  0.6398
13227TIP3    H161172   2.325   6.700  14.575 -0.0179 -0.6010  2.0366
13227TIP3    H261173   2.460   6.633  14.594  0.0833 -1.3596 -0.8369
13228TIP3   OH261174   0.558   4.774  11.441 -0.5743 -0.0560  0.2781
13228TIP3    H161175   0.525   4.790  11.353  3.2927  0.7876 -1.1912
13228TIP3    H261176   0.543   4.857  11.488 -0.2125  0.4155 -0.4355
13229TIP3   OH261177   0.878   1.083  14.408 -0.0305  0.1475 -0.1659
13229TIP3    H161178   0.877   1.088  14.504  0.8613  2.8391 -0.2086
13229TIP3    H261179   0.793   1.118  14.382  0.1515  0.4348 -0.3721
13230TIP3   OH261180   6.533   3.774   2.040 -0.0290 -0.4925 -0.8919
13230TIP3    H161181   6.539   3.840   2.110 -2.5967  0.1473 -1.1993
13230TIP3    H261182   6.493   3.820   1.966  2.4885 -1.1953 -2.8344
13231TIP3   OH261183   3.149   2.399  15.330  0.1116  0.1177  0.2345
13231TIP3    H161184   3.083   2.460  15.363  2.7511  1.4470  3.5945
13231TIP3    H261185   3.205   2.452  15.273  2.0270  0.8449  2.6454
13232TIP3   OH261186   6.209   4.340   5.023  0.2891  0.3085  0.1943
13232TIP3    H161187   6.204   4.261   4.969 -0.1648  0.1959  0.3984
13232TIP3    H261188   6.302   4.350   5.041  0.2369 -1.1048  1.5026
13233TIP3   OH261189   3.725   3.281   5.143  0.0897 -0.8812 -0.0135
13233TIP3    H161190   3.677   3.211   5.098 -0.7152 -0.7160  0.5552
13233TIP3    H261191   3.778   3.322   5.075 -1.6936 -0.1161 -1.0133
13234TIP3   OH261192   4.805   6.278  14.016 -0.2750 -0.2691 -0.3846
13234TIP3    H161193   4.784   6.348  14.078 -0.1276 -1.6495  1.3026
13234TIP3    H261194   4.860   6.320  13.950  0.6715  0.9847  1.1385
13235TIP3   OH261195   6.089   0.187   0.862  0.3002 -0.1935  0.1756
13235TIP3    H161196   6.072   0.144   0.946  0.6720 -1.9197 -0.5967
13235TIP3    H261197   6.002   0.199   0.823  0.1113  0.7700  0.8480
13236TIP3   OH261198   5.453   4.589   3.529  0.4010  0.0048 -0.0756
13236TIP3    H161199   5.543   4.569   3.555 -0.0311 -0.9014  0.7902
13236TIP3    H261200   5.409   4.504   3.527 -0.6163  0.5028  0.2487
13237TIP3   OH261201   2.793   2.796  15.313 -0.4454 -0.2622 -0.0612
13237TIP3    H161202   2.697   2.792  15.319 -0.3713 -0.3731  2.0270
13237TIP3    H261203   2.812   2.889  15.302 -0.7799 -0.1953 -0.1119
13238TIP3   OH261204   4.335   2.985  11.930  0.0580  0.2942 -0.0103
13238TIP3    H161205   4.286   3.010  12.008 -0.6820  0.1028 -0.4101
13238TIP3    H261206   4.389   2.911  11.959 -1.4251 -0.8505 -0.0760
13239TIP3   OH261207   3.336   0.810   3.479  0.1095 -0.0441  0.3141
13239TIP3    H161208   3.346   0.740   3.415 -1.6109 -0.2598  0.2365
13239TIP3    H261209   3.289   0.770   3.552 -1.3836  1.1112  0.0468
13240TIP3   OH261210   6.555   0.593   4.966  0.0730  0.1619 -0.1501
13240TIP3    H161211   6.603   0.531   4.911  2.3577  0.0089  1.8520
13240TIP3    H261212   6.572   0.678   4.926 -2.5103 -0.3056 -2.5117
13241TIP3   OH261213   0.270   3.262  13.147  0.0634 -0.0512 -0.2857
13241TIP3    H161214   0.222   3.238  13.227  1.1706  1.5016  0.9025
13241TIP3    H261215   0.342   3.317  13.178  1.1942 -0.3332 -2.2693
13242TIP3   OH261216   4.941   4.377  13.276  0.3472  0.4009 -0.4158
13242TIP3    H161217   4.948   4.457  13.328 -0.2721  0.5527 -0.5530
13242TIP3    H261218   4.928   4.308  13.340 -0.0415  0.5381 -0.3402
13243TIP3   OH261219   5.581   6.489   6.724  0.7859 -0.0313 -0.6557
13243TIP3    H161220   5.505   6.435   6.704 -0.1812  0.0513  2.3325
13243TIP3    H261221   5.557   6.576   6.693 -0.5505  0.0787  0.5912
13244TIP3   OH261222   3.909   6.787  14.086  0.0722 -0.0111  0.4368
13244TIP3    H161223   3.847   6.752  14.022 -0.5518 -0.2571  1.1559
13244TIP3    H261224   3.872   6.762  14.171  0.7991  0.4469  0.8973
13245TIP3   OH261225   4.179   6.126   6.695  0.8287 -0.6562 -0.1885
13245TIP3    H161226   4.177   6.221   6.683  2.7066 -0.7900 -2.0817
13245TIP3    H261227   4.110   6.093   6.636  0.7176 -0.5285 -0.1308
13246TIP3   OH261228   1.562   2.939   5.439 -0.0094 -0.0959  0.2328
13246TIP3    H161229   1.487   2.984   5.479  0.1604  0.7407 -0.3911
13246TIP3    H261230   1.634   2.954   5.500  0.0270  0.4191  0.0675
13247TIP3   OH261231   2.774   2.063   1.311 -0.2172  0.3697 -0.4398
13247TIP3    H161232   2.716   2.083   1.384 -0.5257  0.2070 -0.6400
13247TIP3    H261233   2.717   2.057   1.235 -0.1169 -1.0311 -0.4282
13248TIP3   OH261234   5.864   6.690   0.766 -0.5907  0.2772  0.6159
13248TIP3    H161235   5.782   6.651   0.733 -1.1905  0.5479  1.7410
13248TIP3    H261236   5.851   6.784   0.756  0.2110  0.2877 -0.5946
13249TIP3   OH261237   6.153   4.000  14.962  0.2050  0.5868  0.1875
13249TIP3    H161238   6.075   4.057  14.966  1.3764  2.1998  1.4755
13249TIP3    H261239   6.127   3.921  15.008 -0.9473  0.7462 -0.1479
13250TIP3   OH261240   4.965   5.442   0.333 -0.1184 -0.0904  0.4351
13250TIP3    H161241   4.967   5.523   0.282 -0.1118  0.1130  0.7536
13250TIP3    H261242   4.894   5.455   0.397  1.0633  0.4106  1.6930
13251TIP3   OH261243   1.212   6.234  13.899  0.4914 -0.4839  0.5238
13251TIP3    H161244   1.212   6.311  13.843  1.3145 -0.1739  0.9320
13251TIP3    H261245   1.229   6.268  13.987  1.6893 -1.1837  0.5905
13252TIP3   OH261246   4.209   1.850  15.550  0.3814 -0.2990 -0.4434
13252TIP3    H161247   4.192   1.822  15.460 -0.2613 -4.1478  0.6876
13252TIP3    H261248   4.123   1.879  15.582  0.3463 -0.1292 -0.6858
13253TIP3   OH261249   5.329   1.952  12.313  0.0468 -0.0891  0.2687
13253TIP3    H161250   5.382   1.876  12.286  0.7394  0.6403 -0.4755
13253TIP3    H261251   5.272   1.969  12.238 -1.0205 -0.6450  0.9303
13254TIP3   OH261252   5.788   4.614  11.007  0.0025 -0.6615  0.2238
13254TIP3    H161253   5.749   4.701  11.009  0.3177 -0.5307  1.0306
13254TIP3    H261254   5.818   4.603  10.917 -0.9353 -0.3420 -0.1418
13255TIP3   OH261255   4.949   6.053  10.465 -0.4028 -0.8203 -0.2859
13255TIP3    H161256   4.897   5.983  10.426 -2.0428 -0.7440  1.6062
13255TIP3    H261257   5.021   6.007  10.509 -1.1727 -1.3020  0.4988
13256TIP3   OH261258   3.996   4.844  13.295 -0.5218  0.4866  0.2684
13256TIP3    H161259   3.956   4.765  13.333  0.8874  0.8926  2.7951
13256TIP3    H261260   3.980   4.912  13.360  0.9197  1.5561 -0.4590
13257TIP3   OH261261   1.214   4.684   5.187  0.7496  0.3749 -0.3342
13257TIP3    H161262   1.169   4.755   5.233  1.7406  0.6744  0.1983
13257TIP3    H261263   1.229   4.717   5.099  1.1237  0.8028 -0.1166
13258TIP3   OH261264   0.491   6.590  10.715 -0.4098 -0.1824 -0.1963
13258TIP3    H161265   0.484   6.594  10.810 -0.5301 -0.2297 -0.2022
13258TIP3    H261266   0.563   6.529  10.698 -1.7484 -1.8896 -0.1467
13259TIP3   OH261267   4.373   2.066  12.811  0.3818  0.2089 -0.1269
13259TIP3    H161268   4.466   2.044  12.799  0.4596  0.1548  0.5415
13259TIP3    H261269   4.366   2.092  12.902 -0.0988  1.0818 -0.4049
13260TIP3   OH261270   1.224   0.421   1.795 -0.6434  0.1914 -0.1924
13260TIP3    H161271   1.131   0.437   1.781 -0.9794 -1.0506  0.3900
13260TIP3    H261272   1.234   0.327   1.779  1.1559  0.8029 -3.4664
13261TIP3   OH261273   3.239   3.711  11.400  0.3977  0.4979  0.4170
13261TIP3    H161274   3.332   3.725  11.385  0.3408 -0.0759 -0.5564
13261TIP3    H261275   3.227   3.616  11.390 -0.1325  0.4288  1.5035
13262TIP3   OH261276   2.094   1.703  10.215 -0.0887  0.4482 -0.2541
13262TIP3    H161277   2.180   1.734  10.187  1.3485 -2.8410  0.0218
13262TIP3    H261278   2.105   1.684  10.308 -1.1568  0.1032 -0.1901
13263TIP3   OH261279   0.111   0.485   0.300  0.0234 -0.1674 -0.7086
13263TIP3    H161280   0.041   0.423   0.319  1.2717 -1.9507 -1.6332
13263TIP3    H261281   0.072   0.571   0.316 -1.6241 -1.1743  1.0860
13264TIP3   OH261282   0.068   6.313  12.004  0.2411  0.3875 -0.0899
13264TIP3    H161283   0.107   6.257  12.071 -0.1704 -1.3158 -1.2071
13264TIP3    H261284  -0.023   6.285  11.999  0.5371 -0.4037 -2.1537
13265TIP3   OH261285   3.135   3.281   4.898  0.3122 -0.0435  0.2963
13265TIP3    H161286   3.095   3.242   4.976 -1.7231  0.4427 -0.4623
13265TIP3    H261287   3.217   3.232   4.887  0.0290 -0.9960  1.9775
13266TIP3   OH261288   1.026   4.303   1.760 -0.3070 -0.0475 -0.5261
13266TIP3    H161289   1.012   4.397   1.758  1.5823  0.3567  1.6098
13266TIP3    H261290   1.120   4.292   1.774 -0.7288 -2.1750  1.3011
13267TIP3   OH261291   4.880   6.756  15.211 -0.8162  0.7056  0.2249
13267TIP3    H161292   4.972   6.780  15.204  0.1145 -2.3044  0.7095
13267TIP3    H261293   4.854   6.735  15.122 -0.8880  1.0319  0.1671
13268TIP3   OH261294   4.939   0.814  15.872 -0.1187  0.5657 -0.6475
13268TIP3    H161295   4.930   0.909  15.875 -0.4842  0.5200  0.4065
13268TIP3    H261296   4.917   0.785  15.961 -0.1277 -0.5121 -0.9771
13269TIP3   OH261297   5.906   2.981   3.753  0.0274 -0.1041  0.8425
13269TIP3    H161298   5.894   2.900   3.705 -0.9118  0.0511  0.7994
13269TIP3    H261299   5.958   3.036   3.695 -1.3606  0.2047 -0.1693
13270TIP3   OH261300   5.534   1.888  14.332  0.3602  0.3475  0.3992
13270TIP3    H161301   5.453   1.937  14.317 -0.2297 -0.1412  1.8190
13270TIP3    H261302   5.513   1.828  14.403  1.1080 -1.8969 -1.1553
13271TIP3   OH261303   0.605   3.405  16.112  0.1043 -0.4201  0.1129
13271TIP3    H161304   0.537   3.347  16.077  0.9163 -1.2995 -0.0646
13271TIP3    H261305   0.561   3.489  16.125 -1.1076 -1.0702  0.3631
13272TIP3   OH261306   4.975   2.358   2.967  0.0420 -0.2642 -0.4094
13272TIP3    H161307   4.942   2.357   3.057  1.4008 -2.6967  0.1404
13272TIP3    H261308   4.984   2.266   2.943 -3.7861  0.0570 -4.4905
13273TIP3   OH261309   2.462   3.251  11.848 -0.4565 -0.2746  0.2181
13273TIP3    H161310   2.557   3.252  11.858 -0.4912 -2.3811  1.2883
13273TIP3    H261311   2.428   3.256  11.938 -1.2642 -2.0438  0.0476
13274TIP3   OH261312   2.026   0.381   3.649 -0.2365  0.2186 -0.5813
13274TIP3    H161313   2.088   0.413   3.583 -0.6610  1.0847 -0.5813
13274TIP3    H261314   1.940   0.396   3.610 -0.5658  2.1838  0.7385
13275TIP3   OH261315   0.085   4.999   2.796 -0.4813 -0.1599 -0.1039
13275TIP3    H161316   0.123   4.977   2.712 -0.4599  0.9154 -0.3856
13275TIP3    H261317   0.017   5.064   2.776 -0.3769  0.2182  0.7168
13276TIP3   OH261318   3.201   6.280   5.796  0.1592 -0.4319 -0.0351
13276TIP3    H161319   3.249   6.214   5.746 -0.7699 -1.4526  0.3513
13276TIP3    H261320   3.115   6.286   5.753 -0.2331 -0.4633  0.7134
13277TIP3   OH261321   5.266   0.360   3.001 -0.1188 -0.2297  0.4806
13277TIP3    H161322   5.221   0.387   3.081  1.2609  0.5032  1.0611
13277TIP3    H261323   5.359   0.372   3.021  0.2563  3.3560 -2.3132
13278TIP3   OH261324   3.094   0.572  14.890 -0.1441 -0.1276  0.1601
13278TIP3    H161325   3.078   0.481  14.913 -0.6156 -0.5550 -1.6967
13278TIP3    H261326   3.168   0.570  14.829  0.8389  0.9093  1.2620
13279TIP3   OH261327   3.643   0.578   4.049  0.1431  0.1040 -0.3013
13279TIP3    H161328   3.666   0.498   4.002 -3.6264 -2.7267  2.1243
13279TIP3    H261329   3.583   0.624   3.990  0.2499 -0.1888 -0.6444
13280TIP3   OH261330   4.249   4.875  11.387 -0.0179 -1.2008 -0.4315
13280TIP3    H161331   4.277   4.923  11.309 -1.3679  0.8356  0.2258
13280TIP3    H261332   4.154   4.889  11.390 -0.0486 -1.5226  1.3684
13281TIP3   OH261333   4.251   4.057   6.045 -0.1262 -0.0700 -0.1435
13281TIP3    H161334   4.157   4.069   6.057 -0.0720  0.4681 -0.2418
13281TIP3    H261335   4.259   3.982   5.985 -0.5311  0.6359 -1.1108
13282TIP3   OH261336   1.369   2.864  13.138 -0.3930  0.1215  0.6760
13282TIP3    H161337   1.332   2.921  13.071  1.4248 -0.2788 -0.7374
13282TIP3    H261338   1.347   2.775  13.109  1.8643 -0.1490 -0.3886
13283TIP3   OH261339   4.391   1.704  15.978 -0.9245 -0.3733  0.6575
13283TIP3    H161340   4.413   1.658  15.897  1.2819  1.6572 -0.0159
13283TIP3    H261341   4.296   1.698  15.983 -0.9621 -2.4076 -0.8985
13284TIP3   OH261342   1.884   4.087   6.077 -0.0084 -0.0546 -0.2288
13284TIP3    H161343   1.935   4.153   6.123  0.5903 -1.0170  0.5279
13284TIP3    H261344   1.856   4.027   6.146 -0.6314 -0.5359 -0.8875
13285TIP3   OH261345   0.640   3.208  14.419 -0.3036 -0.3239  0.1674
13285TIP3    H161346   0.694   3.287  14.417 -0.2557 -0.3560  0.1674
13285TIP3    H261347   0.554   3.236  14.390 -0.4967 -0.1079  0.9414
13286TIP3   OH261348   4.817   4.406  14.660 -0.0483 -0.1389 -0.2707
13286TIP3    H161349   4.776   4.410  14.746  0.4041  0.5418 -0.0738
13286TIP3    H261350   4.744   4.411  14.598 -0.3586 -0.4317  0.0693
13287TIP3   OH261351   6.303   0.437  12.822  0.0168  0.0803  0.2155
13287TIP3    H161352   6.367   0.468  12.758  0.2082  0.5726  0.6358
13287TIP3    H261353   6.258   0.365  12.778  1.5929 -1.0120  0.2989
13288TIP3   OH261354   1.045   6.200   2.183  0.1835  0.0534  0.6760
13288TIP3    H161355   1.096   6.150   2.120 -0.0858 -1.6482  1.7330
13288TIP3    H261356   0.961   6.215   2.140  0.0940 -0.8485  0.5351
13289TIP3   OH261357   1.457   5.535   5.958 -0.3715  0.4505 -0.3761
13289TIP3    H161358   1.387   5.516   6.021 -0.5242 -0.4750 -0.8030
13289TIP3    H261359   1.525   5.470   5.977 -0.0418  0.7291 -0.5897
13290TIP3   OH261360   6.800   1.071   5.607 -0.4882 -0.3702  0.4641
13290TIP3    H161361   6.798   1.015   5.530 -0.6782  0.5077 -0.1909
13290TIP3    H261362   6.847   1.150   5.578 -2.5581  0.9803  0.5125
13291TIP3   OH261363   3.128   6.504   1.857 -0.5205 -0.0548 -0.0832
13291TIP3    H161364   3.076   6.424   1.854  2.3073 -2.1606  1.9437
13291TIP3    H261365   3.142   6.527   1.765 -1.7524 -1.6024 -0.7069
13292TIP3   OH261366   4.365   4.682  11.071 -0.0587 -0.4336  0.4966
13292TIP3    H161367   4.435   4.678  11.007  1.7497  0.2634  2.3108
13292TIP3    H261368   4.315   4.760  11.048  2.0098  1.2144  1.2345
13293TIP3   OH261369   0.032   3.989   0.587  0.4422 -0.7318  0.1865
13293TIP3    H161370   0.080   4.058   0.634 -0.0878 -0.4114  0.2652
13293TIP3    H261371   0.021   4.024   0.499 -0.1205 -0.5764  0.3201
13294TIP3   OH261372   6.533   6.099  13.009  0.4614 -0.4338  0.4405
13294TIP3    H161373   6.590   6.131  12.940  1.1122 -0.8154  0.7928
13294TIP3    H261374   6.463   6.052  12.964 -1.3637  2.6235 -0.2240
13295TIP3   OH261375   0.614   3.405   6.645  0.3125  0.3134 -0.6344
13295TIP3    H161376   0.695   3.356   6.632 -0.4117 -0.4105 -3.0857
13295TIP3    H261377   0.642   3.497   6.647  1.3830 -0.0083  1.0030
13296TIP3   OH261378   5.116   3.943   1.911 -0.2600 -0.1208 -0.8002
13296TIP3    H161379   5.084   3.960   2.000  0.8023  0.3046 -0.4829
13296TIP3    H261380   5.077   3.860   1.887 -2.2688  0.7520 -0.7630
13297TIP3   OH261381   6.189   6.838  13.935  0.2466  0.0190  0.0550
13297TIP3    H161382   6.246   6.900  13.889 -0.9481  0.1294 -1.3521
13297TIP3    H261383   6.165   6.773  13.869 -1.6757  0.2740  0.4365
13298TIP3   OH261384   4.043   4.533   5.173 -0.1067  0.2773 -0.0113
13298TIP3    H161385   3.977   4.553   5.107  0.5128 -0.4366 -0.8734
13298TIP3    H261386   4.119   4.503   5.123  1.0967  1.6158  0.9090
13299TIP3   OH261387   4.955   6.085   5.382  0.5880 -0.0628  0.1787
13299TIP3    H161388   5.010   6.079   5.460 -1.6327  0.6105  1.9297
13299TIP3    H261389   4.971   6.173   5.347  0.2621  0.3202  0.9772
13300TIP3   OH261390   2.797   5.909   1.847  0.1690 -0.8320  0.0960
13300TIP3    H161391   2.770   5.830   1.800 -0.0844 -0.3767 -0.5391
13300TIP3    H261392   2.867   5.945   1.793 -1.6445  0.9328 -1.2000
13301TIP3   OH261393   2.735   3.209  11.878 -0.8903 -0.1377 -0.3198
13301TIP3    H161394   2.826   3.225  11.854 -0.7677  0.0669  0.2535
13301TIP3    H261395   2.733   3.223  11.973 -1.5247 -0.1121 -0.3345
13302TIP3   OH261396   0.540   4.225  12.330 -0.3969  0.0497  0.9184
13302TIP3    H161397   0.565   4.144  12.285  0.7615  0.5047  0.6883
13302TIP3    H261398   0.499   4.197  12.412  2.7681 -0.8314  2.3478
13303TIP3   OH261399   0.913   3.667   2.546 -0.4051  0.1266  0.6479
13303TIP3    H161400   0.824   3.635   2.530 -0.0991 -0.0464 -0.8672
13303TIP3    H261401   0.900   3.754   2.585 -1.2361  0.0793  0.5023
13304TIP3   OH261402   5.761   2.278  13.670  0.1061 -0.0886  0.1822
13304TIP3    H161403   5.673   2.243  13.666  0.0870  0.0394 -1.6301
13304TIP3    H261404   5.817   2.206  13.642  0.4553  0.1794  0.1821
13305TIP3   OH261405   1.160   1.866   5.048 -0.4614  0.0673 -0.1343
13305TIP3    H161406   1.176   1.955   5.081 -0.9645  0.5113 -1.0324
13305TIP3    H261407   1.072   1.845   5.078  0.2852 -0.8241  1.5166
13306TIP3   OH261408   2.443   1.906   5.425 -0.1966 -0.4012  0.0042
13306TIP3    H161409   2.349   1.889   5.433 -0.2168 -1.1480 -1.4373
13306TIP3    H261410   2.476   1.900   5.515 -1.3650 -1.1760  0.4071
13307TIP3   OH261411   1.920   1.167  15.433  0.0046 -0.6591 -0.3781
13307TIP3    H161412   2.015   1.159  15.434  0.0907  0.1234  1.7765
13307TIP3    H261413   1.903   1.259  15.413 -0.3215 -0.8576 -1.0419
13308TIP3   OH261414   3.111   5.006  16.205  0.0426  0.1770  0.6512
13308TIP3    H161415   3.136   5.097  16.221  0.8713  0.2605 -0.8472
13308TIP3    H261416   3.021   5.000  16.235  0.8778  0.6653  3.6015
13309TIP3   OH261417   5.919   2.707  13.769  0.4022 -0.0792 -0.5306
13309TIP3    H161418   5.829   2.674  13.778  0.6604 -1.0352 -1.2748
13309TIP3    H261419   5.974   2.631  13.787  1.0848  0.5893  0.2605
13310TIP3   OH261420   5.854   6.452  15.240 -0.1242  0.3216 -0.9303
13310TIP3    H161421   5.772   6.407  15.263 -3.2113  6.1433  1.6555
13310TIP3    H261422   5.917   6.421  15.305 -2.7350  1.1888  2.3020
13311TIP3   OH261423   4.467   4.107  15.848  0.7720  0.0043 -0.2804
13311TIP3    H161424   4.403   4.036  15.851  1.0594 -0.2374  0.2320
13311TIP3    H261425   4.516   4.092  15.767  2.5367 -1.9076  1.0252
13312TIP3   OH261426   3.690   6.707   2.981  0.2306 -0.1151 -0.4593
13312TIP3    H161427   3.642   6.714   2.898  0.1977  1.4340 -0.3459
13312TIP3    H261428   3.660   6.626   3.020 -1.2185  0.1065 -1.0678
13313TIP3   OH261429   5.691   1.981  13.809  0.1094  0.0349 -0.2570
13313TIP3    H161430   5.783   1.986  13.834 -0.0469  0.7973  0.1934
13313TIP3    H261431   5.643   2.009  13.887 -0.5104 -0.4757 -0.4462
13314TIP3   OH261432   4.916   6.524  12.194  0.0581 -0.8841  0.0893
13314TIP3    H161433   4.871   6.445  12.168  0.0969 -1.3399  1.3107
13314TIP3    H261434   4.869   6.553  12.273  0.1543  0.2070 -0.2375
13315TIP3   OH261435   3.367   5.077   1.216  0.9338  0.1044 -0.3929
13315TIP3    H161436   3.462   5.070   1.208  0.9645  1.2366 -1.2390
13315TIP3    H261437   3.353   5.107   1.306  1.2327 -1.9783  0.4036
13316TIP3   OH261438   6.181   2.829   3.918  0.0625  0.3158 -0.2746
13316TIP3    H161439   6.125   2.782   3.857 -1.7418  1.5349  0.3415
13316TIP3    H261440   6.250   2.867   3.864 -0.3008 -0.3479 -1.2206
13317TIP3   OH261441   6.550   5.225  10.655 -0.3625  0.5536 -0.5242
13317TIP3    H161442   6.542   5.140  10.612 -1.0485  0.4453 -0.1915
13317TIP3    H261443   6.475   5.230  10.714 -0.4260  1.4601 -0.6548
13318TIP3   OH261444   1.745   4.655   2.603  0.3774 -0.2964 -0.1855
13318TIP3    H161445   1.746   4.560   2.606 -0.3291 -0.3459 -1.0517
13318TIP3    H261446   1.661   4.677   2.562 -0.7991  0.7757  2.5231
13319TIP3   OH261447   5.792   5.080   2.321  0.2786  0.3359 -0.0785
13319TIP3    H161448   5.850   5.155   2.336 -1.0693  1.0470  2.0826
13319TIP3    H261449   5.704   5.117   2.322 -0.3983 -1.2020  0.6541
13320TIP3   OH261450   4.797   0.622  14.988 -0.6114 -0.7744 -0.0882
13320TIP3    H161451   4.810   0.705  14.942 -1.8473 -0.1579  0.6147
13320TIP3    H261452   4.886   0.589  15.003 -0.1363 -0.0349 -1.1774
13321TIP3   OH261453   2.986   3.600   0.074 -0.2414  0.1183  0.1266
13321TIP3    H161454   3.012   3.543   0.146 -0.0591  1.2576  1.0054
13321TIP3    H261455   3.029   3.684   0.093 -0.3317  0.5004 -1.2245
13322TIP3   OH261456   3.486   6.383  14.173 -0.2131 -0.1641 -0.2634
13322TIP3    H161457   3.448   6.464  14.138  0.9140 -0.4854 -2.3799
13322TIP3    H261458   3.515   6.406  14.261 -1.9080  1.0792  0.0312
13323TIP3   OH261459   2.333   0.256  13.713 -0.2642 -0.4735  0.1002
13323TIP3    H161460   2.305   0.201  13.786  1.8625  0.1039  1.4288
13323TIP3    H261461   2.379   0.196  13.655  0.6251 -0.4251  0.7356
13324TIP3   OH261462   5.727   3.065   3.945 -0.1853  0.4214 -0.0882
13324TIP3    H161463   5.794   3.067   3.877  0.9231 -0.4736  0.9371
13324TIP3    H261464   5.769   3.022   4.019 -1.6062  0.6808  0.9131
13325TIP3   OH261465   6.398   4.173  12.659 -0.0618 -0.6733  0.2069
13325TIP3    H161466   6.448   4.255  12.668  3.0931 -2.2445 -1.4559
13325TIP3    H261467   6.311   4.201  12.630  0.5652  2.1255  0.7409
13326TIP3   OH261468   6.140   4.611   2.074 -0.1684 -0.3694 -0.1926
13326TIP3    H161469   6.176   4.697   2.052 -0.5785 -0.0370  0.4238
13326TIP3    H261470   6.064   4.630   2.128 -2.4968 -0.9686 -2.9724
13327TIP3   OH261471   2.337   1.541   0.640 -0.1608 -0.1436 -0.1234
13327TIP3    H161472   2.427   1.534   0.606  0.0824  2.4859 -0.2519
13327TIP3    H261473   2.346   1.590   0.721 -1.5890  1.6656 -0.9871
13328TIP3   OH261474   6.279   3.256  16.251 -0.4805  0.9655 -0.1920
13328TIP3    H161475   6.244   3.174  16.214  2.3494 -0.4339 -0.0391
13328TIP3    H261476   6.254   3.253  16.343  0.3479 -0.2423  0.0233
13329TIP3   OH261477   4.867   1.126  11.772  0.3328  0.1878 -0.0701
13329TIP3    H161478   4.935   1.062  11.790  0.7792  0.7578  0.3325
13329TIP3    H261479   4.878   1.148  11.680  1.2522  0.8941  0.1922
13330TIP3   OH261480   1.310   1.276   2.131  0.3152 -0.0179  0.4207
13330TIP3    H161481   1.395   1.319   2.117  1.8461 -2.6567  0.9977
13330TIP3    H261482   1.300   1.272   2.226  0.9220 -2.1087  0.4436
13331TIP3   OH261483   6.021   2.185  16.937 -0.1500  0.0537  0.7177
13331TIP3    H161484   6.018   2.245  17.011 -2.4989  0.5065  0.3274
13331TIP3    H261485   6.020   2.098  16.977 -0.3855  0.2893  1.2367
13332TIP3   OH261486   6.005   5.773  16.090 -0.0105  0.3585 -0.5477
13332TIP3    H161487   5.947   5.698  16.094 -1.4220  1.3236 -1.7937
13332TIP3    H261488   6.033   5.777  15.999  1.4431  0.3550 -0.1288
13333TIP3   OH261489   6.818   3.665   5.347 -0.1620 -0.5791  0.1521
13333TIP3    H161490   6.773   3.749   5.339 -1.1385 -0.9943  1.1266
13333TIP3    H261491   6.875   3.676   5.423  1.6018  0.0079 -1.1750
13334TIP3   OH261492   2.555   4.910   1.570  0.1589  0.3420 -0.1298
13334TIP3    H161493   2.639   4.883   1.609 -0.3677  0.2206  0.9452
13334TIP3    H261494   2.512   4.960   1.639 -0.7517  0.2143 -0.6005
13335TIP3   OH261495   3.025   3.244   4.080  0.4580 -0.3609 -0.3255
13335TIP3    H161496   2.978   3.314   4.035  0.7791 -0.1559 -0.3440
13335TIP3    H261497   3.099   3.288   4.123  0.9688 -0.7581 -0.7828
13336TIP3   OH261498   2.186   4.369  13.631 -0.0732 -0.3239  0.6848
13336TIP3    H161499   2.205   4.382  13.538  0.7153 -1.2666  0.6857
13336TIP3    H261500   2.248   4.426  13.677  0.4229 -0.8124  0.6360
13337TIP3   OH261501   4.451   0.291   5.920 -0.1809 -0.4701  0.3549
13337TIP3    H161502   4.454   0.277   6.014  1.2776 -0.2237  0.3695
13337TIP3    H261503   4.514   0.229   5.884 -1.5446 -1.3633 -0.5913
13338TIP3   OH261504   5.132   1.178   5.789 -0.7080  0.0314  0.3890
13338TIP3    H161505   5.104   1.139   5.872  1.1112 -2.0573  0.1368
13338TIP3    H261506   5.214   1.223   5.810  0.7794 -2.0588 -0.4661
13339TIP3   OH261507   4.654   0.426   3.303 -0.2934  0.0028 -0.3408
13339TIP3    H161508   4.663   0.411   3.209 -0.0620 -0.9672 -0.1787
13339TIP3    H261509   4.565   0.459   3.314 -0.4077 -0.1202 -0.8728
13340TIP3   OH261510   4.101   6.528   4.195  0.2993  0.4688 -0.3986
13340TIP3    H161511   4.032   6.546   4.132  0.1287  0.5092 -0.1984
13340TIP3    H261512   4.127   6.614   4.228 -1.1794  0.3186  1.2733
13341TIP3   OH261513   1.019   5.557   5.841  0.3027 -0.3286 -0.1268
13341TIP3    H161514   0.964   5.632   5.819  1.4257  0.4125 -0.5047
13341TIP3    H261515   1.015   5.553   5.937  0.2658  0.2470 -0.0974
13342TIP3   OH261516   0.002   5.328  14.203  0.4588  0.8646 -0.0783
13342TIP3    H161517  -0.089   5.326  14.232  0.5714  2.2191  0.4319
13342TIP3    H261518   0.052   5.354  14.281  1.7353 -2.9816  0.5836
13343TIP3   OH261519   6.464   6.075  11.606 -0.4832 -0.0415 -1.1097
13343TIP3    H161520   6.403   6.148  11.591  0.7021  1.0537 -0.8115
13343TIP3    H261521   6.413   6.011  11.655 -0.6278  2.1901  1.9854
13344TIP3   OH261522   1.801   1.101   2.562 -0.0694 -0.6876  0.0902
13344TIP3    H161523   1.807   1.173   2.500  1.1561 -0.2880  0.6383
13344TIP3    H261524   1.715   1.111   2.602  0.1124  0.5512  0.2264
13345TIP3   OH261525   6.472   4.634   3.482  0.3752  0.9397  0.0457
13345TIP3    H161526   6.399   4.670   3.430  0.3143 -0.0483 -0.5791
13345TIP3    H261527   6.504   4.561   3.430  0.5714  0.1604  1.2248
13346TIP3   OH261528   3.890   1.468  12.710  0.2977 -0.6027  0.1002
13346TIP3    H161529   3.895   1.375  12.730  0.2165 -0.5767  0.2360
13346TIP3    H261530   3.882   1.511  12.795  1.4513 -0.3996  0.1195
13347TIP3   OH261531   3.719   0.210  13.507  0.1879 -0.1707 -0.4186
13347TIP3    H161532   3.783   0.201  13.578 -0.8577 -0.4080  0.5248
13347TIP3    H261533   3.644   0.159  13.536 -0.1680 -0.4969 -1.8405
13348TIP3   OH261534   2.438   4.049  10.868 -0.0427 -0.1519  0.5269
13348TIP3    H161535   2.369   4.098  10.913 -0.3869 -0.3491  0.2253
13348TIP3    H261536   2.474   4.110  10.804 -1.5298 -0.7226 -0.9456
13349TIP3   OH261537   1.697   2.213  14.952 -0.0180 -0.1980  0.8699
13349TIP3    H161538   1.632   2.209  14.882  0.1451  1.3109  0.6175
13349TIP3    H261539   1.648   2.243  15.028  0.0550 -0.6568  1.0997
13350TIP3   OH261540   5.078   2.108   5.910 -0.6208  0.0328 -0.5150
13350TIP3    H161541   5.082   2.149   5.824 -3.1746 -0.8235 -1.1301
13350TIP3    H261542   5.043   2.020   5.893 -2.2928  0.2473  1.4758
13351TIP3   OH261543   4.909   6.251   1.524 -0.3287 -0.5448 -0.8604
13351TIP3    H161544   4.825   6.207   1.510 -0.6483 -0.1309 -0.2840
13351TIP3    H261545   4.930   6.234   1.615 -1.0043  1.3863 -0.2917
13352TIP3   OH261546   6.058   0.423  14.888 -0.1725  0.5045 -0.1752
13352TIP3    H161547   6.108   0.418  14.807 -2.9190  0.9104 -2.0109
13352TIP3    H261548   6.041   0.332  14.913  1.3179  0.3628  0.4436
13353TIP3   OH261549   2.691   5.116  11.017 -0.0929 -0.2535  0.0581
13353TIP3    H161550   2.671   5.049  10.952  0.3017  0.4441 -0.8042
13353TIP3    H261551   2.727   5.188  10.966 -1.4742  1.0362  0.8324
13354TIP3   OH261552   5.417   0.944   5.054 -0.2325 -0.5861 -0.0994
13354TIP3    H161553   5.396   0.907   5.140  1.3426  0.5231  0.8152
13354TIP3    H261554   5.482   0.885   5.018  0.5752  0.0126  0.3544
13355TIP3   OH261555   0.581   5.626  12.727  0.4882  0.3804  0.3492
13355TIP3    H161556   0.559   5.695  12.790  2.1161  0.1516  1.2003
13355TIP3    H261557   0.633   5.671  12.660  1.2840  0.0547  0.7404
13356TIP3   OH261558   1.575   4.662   3.575  0.1441 -0.3324 -0.5414
13356TIP3    H161559   1.567   4.689   3.666 -0.3320  0.4857 -0.8088
13356TIP3    H261560   1.660   4.618   3.570 -0.3899 -1.5448  0.5647
13357TIP3   OH261561   0.681   4.513  13.638 -0.8745  0.0896 -0.0454
13357TIP3    H161562   0.733   4.550  13.566  0.3372 -0.8898  0.2906
13357TIP3    H261563   0.594   4.552  13.627 -0.6434  0.1888 -1.8680
13358TIP3   OH261564   1.626   1.214  14.109 -0.7126 -0.4897  0.3847
13358TIP3    H161565   1.701   1.158  14.086 -0.2835  0.0241  0.4970
13358TIP3    H261566   1.550   1.169  14.072 -0.0973  0.1586 -1.8575
13359TIP3   OH261567   1.638   6.405   3.272 -0.5480  0.0529  0.3512
13359TIP3    H161568   1.693   6.329   3.292  1.0994  0.4694 -2.1487
13359TIP3    H261569   1.577   6.374   3.204 -1.2261  0.4653  0.7566
13360TIP3   OH261570   0.471   1.974  11.182  0.5427  0.3751 -0.6735
13360TIP3    H161571   0.406   1.926  11.234  1.6601 -1.7864 -1.1428
13360TIP3    H261572   0.480   2.058  11.226  1.2536 -1.2429  2.5532
13361TIP3   OH261573   6.459   3.096   4.253  0.5703  0.1804  0.0948
13361TIP3    H161574   6.549   3.093   4.286  1.3377  1.2409 -1.7676
13361TIP3    H261575   6.457   3.032   4.183  0.0423  0.5645 -0.2458
13362TIP3   OH261576   4.423   3.456   4.516  0.7548  0.1893 -0.1859
13362TIP3    H161577   4.399   3.437   4.607 -1.6744  0.5669 -0.6783
13362TIP3    H261578   4.492   3.522   4.523  1.7868 -0.9681  1.3741
13363TIP3   OH261579   4.075   3.725   1.632  0.2745  0.0509  0.3250
13363TIP3    H161580   3.980   3.715   1.638  0.2646 -0.4214 -0.4525
13363TIP3    H261581   4.106   3.718   1.722 -0.4515  0.4921  0.6157
13364TIP3   OH261582   2.085   1.600  17.135 -0.3062 -0.8062 -0.0308
13364TIP3    H161583   2.122   1.518  17.167 -1.0495 -1.0025  0.3526
13364TIP3    H261584   2.113   1.604  17.043  1.7564 -0.2805  0.5772
13365TIP3   OH261585   1.409   5.110   0.654 -0.5416 -0.2865  0.1793
13365TIP3    H161586   1.461   5.172   0.603 -1.1184 -0.5406 -0.7378
13365TIP3    H261587   1.442   5.024   0.628 -1.8312 -0.4807 -0.9087
13366TIP3   OH261588   1.441   0.590  17.011 -0.1732 -0.1798  0.2477
13366TIP3    H161589   1.506   0.553  17.071 -1.3174 -1.3770  0.7841
13366TIP3    H261590   1.397   0.514  16.973 -1.3696  0.6174  0.0019
13367TIP3   OH261591   1.149   1.489  15.557 -0.0366  0.2898 -0.1214
13367TIP3    H161592   1.192   1.457  15.636 -0.2634  0.5175  0.1003
13367TIP3    H261593   1.214   1.481  15.488  0.1954  0.1809  0.1109
13368TIP3   OH261594   1.242   4.501  13.849  0.4857  0.2891  0.0025
13368TIP3    H161595   1.210   4.532  13.764  1.6535  1.1289 -0.1579
13368TIP3    H261596   1.171   4.522  13.911 -0.6553 -0.9253 -0.8359
13369TIP3   OH261597   6.832   0.526   5.904  0.9097 -0.5630 -0.2088
13369TIP3    H161598   6.857   0.470   5.977  0.7868 -0.3965 -0.0399
13369TIP3    H261599   6.892   0.600   5.909 -1.1991  1.1411  1.7382
13370TIP3   OH261600   2.254   2.519   5.891  0.8781  0.3327 -0.3677
13370TIP3    H161601   2.201   2.559   5.822  0.9395  0.3380 -0.4113
13370TIP3    H261602   2.319   2.466   5.845  0.3634 -0.3692 -0.2936
13371TIP3   OH261603   4.192   4.135   3.754 -0.2935 -0.2660  0.6408
13371TIP3    H161604   4.165   4.170   3.838  0.3299 -2.0024  1.6214
13371TIP3    H261605   4.127   4.068   3.733 -0.7014  0.4586 -0.5066
13372TIP3   OH261606   2.392   2.997   1.868  0.0487  0.3165 -1.3309
13372TIP3    H161607   2.303   2.964   1.854  0.1154 -0.8731  0.7121
13372TIP3    H261608   2.434   2.932   1.924  1.9913  1.2259 -1.6382
13373TIP3   OH261609   5.151   4.446  15.332 -0.0612 -0.2734 -0.3366
13373TIP3    H161610   5.200   4.487  15.403  2.3493  2.0604 -3.0715
13373TIP3    H261611   5.066   4.490  15.332  1.0502  1.9625 -0.7402
13374TIP3   OH261612   3.434   0.513  11.612 -0.3553 -0.5773 -0.4891
13374TIP3    H161613   3.520   0.529  11.573 -0.7522 -1.2460 -1.6911
13374TIP3    H261614   3.415   0.592  11.663  1.5070 -0.9062  0.8446
13375TIP3   OH261615   6.394   2.921   1.957 -0.5027  0.6587  1.0336
13375TIP3    H161616   6.451   2.892   2.028  0.1347 -0.2098  0.1794
13375TIP3    H261617   6.441   2.993   1.916  0.0179 -0.0609  0.3260
13376TIP3   OH261618   6.443   3.677  12.456  0.0515 -0.2046 -0.1553
13376TIP3    H161619   6.401   3.592  12.470  1.7105 -1.3376 -1.5827
13376TIP3    H261620   6.519   3.676  12.514 -1.0430  1.2418  1.3799
13377TIP3   OH261621   3.907   4.730  14.940  0.8048 -0.5824  0.5365
13377TIP3    H161622   3.820   4.709  14.907  0.7420 -0.8426  0.8665
13377TIP3    H261623   3.967   4.703  14.870  0.5872  0.1862  0.0396
13378TIP3   OH261624   6.319   1.715   0.502 -0.0567 -0.0562 -0.1499
13378TIP3    H161625   6.384   1.677   0.443 -0.7861 -0.6315 -0.6102
13378TIP3    H261626   6.310   1.806   0.474  2.7927  0.9985  1.8987
13379TIP3   OH261627   4.403   6.831   5.940 -0.3632 -0.1496 -0.4867
13379TIP3    H161628   4.348   6.843   6.017 -0.3815  0.1510 -0.5448
13379TIP3    H261629   4.342   6.830   5.866 -0.3722 -0.7349 -0.4723
13380TIP3   OH261630   6.574   1.101   0.400  0.4171 -0.2613  0.0582
13380TIP3    H161631   6.531   1.028   0.442 -0.9805  1.0056  0.9226
13380TIP3    H261632   6.510   1.133   0.336  1.2043 -0.0944 -0.6687
13381TIP3   OH261633   0.048   6.599   5.790 -0.4883 -0.0544  0.2462
13381TIP3    H161634   0.057   6.599   5.886  0.2430 -0.0265  0.1807
13381TIP3    H261635   0.074   6.511   5.764  0.8277  0.4034 -0.0537
13382TIP3   OH261636   4.652   0.631   0.129  0.4915 -0.1418 -0.3027
13382TIP3    H161637   4.694   0.642   0.214  0.0994 -0.1226 -0.1081
13382TIP3    H261638   4.715   0.580   0.077  0.5813 -0.4604  0.1128
13383TIP3   OH261639   6.067   5.123   3.769 -0.2797 -0.2119  0.5188
13383TIP3    H161640   6.081   5.030   3.750 -0.2911  0.3218 -2.5078
13383TIP3    H261641   5.972   5.135   3.758 -0.2479  0.1999  0.6938
13384TIP3   OH261642   2.287   4.653   5.243 -0.4084 -0.2399  0.2132
13384TIP3    H161643   2.235   4.727   5.212 -0.5246 -0.6711 -0.6581
13384TIP3    H261644   2.227   4.578   5.239 -0.0859 -0.5080  0.3927
13385TIP3   OH261645   1.446   3.787  16.775  0.1922 -0.2786  0.9096
13385TIP3    H161646   1.370   3.761  16.826  0.6074 -1.8102  0.8001
13385TIP3    H261647   1.475   3.869  16.815 -0.8643 -0.2407  1.6384
13386TIP3   OH261648   6.395   6.652   1.941  0.2222 -0.0246  0.1090
13386TIP3    H161649   6.327   6.593   1.907 -1.2617  1.1416  0.9073
13386TIP3    H261650   6.399   6.632   2.035  1.4606 -0.4936 -0.0219
13387TIP3   OH261651   3.376   3.587   4.182  0.2300 -0.0635 -0.4434
13387TIP3    H161652   3.384   3.641   4.261 -0.4901  1.5283 -1.4059
13387TIP3    H261653   3.455   3.532   4.182  0.2267 -0.1193  1.3713
13388TIP3   OH261654   2.942   5.957  14.437 -0.1224 -0.1635 -0.4713
13388TIP3    H161655   3.019   5.910  14.405  0.0334 -0.8341  0.7900
13388TIP3    H261656   2.972   5.999  14.518 -1.2066 -0.9150  0.3554
13389TIP3   OH261657   3.203   1.679   0.913  0.3483 -0.0530  0.3754
13389TIP3    H161658   3.137   1.748   0.917 -0.7140 -1.0974  1.8913
13389TIP3    H261659   3.274   1.716   0.859 -0.8833  1.5809 -0.1937
13390TIP3   OH261660   4.392   0.063   0.317 -0.4926 -0.0098 -0.2477
13390TIP3    H161661   4.333   0.134   0.342 -0.0310  0.1733  0.3427
13390TIP3    H261662   4.451   0.053   0.392  0.5722  0.1754 -1.0421
13391TIP3   OH261663   4.955   4.416   5.620 -0.0721 -0.4276 -0.3133
13391TIP3    H161664   5.017   4.422   5.693  0.0678 -1.1216 -0.3705
13391TIP3    H261665   5.008   4.438   5.543 -0.2866  0.5919 -0.1851
13392TIP3   OH261666   2.975   6.500  14.480 -0.2881 -0.4028  0.0956
13392TIP3    H161667   3.052   6.452  14.449  0.1943  0.2699  0.2298
13392TIP3    H261668   2.905   6.474  14.419  0.7153  1.1814 -1.8449
13393TIP3   OH261669   5.272   4.462   0.525  0.6549 -0.1885  0.3392
13393TIP3    H161670   5.350   4.437   0.476  0.3179 -0.5391 -0.0270
13393TIP3    H261671   5.269   4.558   0.518  0.1086 -0.2861 -1.1249
13394TIP3   OH261672   5.831   1.842  13.609 -0.2878  0.3371  0.3972
13394TIP3    H161673   5.752   1.878  13.650 -0.7698  0.4799 -0.6141
13394TIP3    H261674   5.833   1.751  13.638 -1.9899 -0.2489 -1.1756
13395TIP3   OH261675   0.100   2.466  11.394 -0.6091 -0.1357  0.4075
13395TIP3    H161676   0.119   2.560  11.401 -0.4882 -0.0269 -0.9434
13395TIP3    H261677   0.118   2.431  11.481 -0.8501  1.1259  0.9957
13396TIP3   OH261678   2.147   2.911   5.971 -0.7775  0.0567 -0.4599
13396TIP3    H161679   2.060   2.904   6.010 -0.2103  0.4061  0.9369
13396TIP3    H261680   2.189   2.828   5.992 -0.0863  0.6769  0.6835
13397TIP3   OH261681   6.213   0.197   6.084  0.3543 -0.0456  0.3947
13397TIP3    H161682   6.139   0.142   6.108  0.5651 -0.0468  1.0579
13397TIP3    H261683   6.245   0.233   6.167  1.9554 -1.1464  0.3079
13398TIP3   OH261684   3.865   6.386  15.810  0.5571  0.4923  0.3366
13398TIP3    H161685   3.898   6.313  15.758  1.8367  0.8970  0.5460
13398TIP3    H261686   3.808   6.434  15.750 -1.2003 -1.2506  0.5113
13399TIP3   OH261687   3.210   5.162   5.457  0.0852  0.3649 -0.1348
13399TIP3    H161688   3.212   5.229   5.525 -0.0774  1.4271 -1.1408
13399TIP3    H261689   3.253   5.203   5.382 -1.3711 -0.1098 -1.2656
13400TIP3   OH261690   0.653   0.249  14.500  0.4309 -0.0273  0.1355
13400TIP3    H161691   0.581   0.198  14.536  0.1644 -0.2078 -0.6405
13400TIP3    H261692   0.656   0.328  14.554  0.1621 -0.3802  0.6669
13401TIP3   OH261693   6.560   6.599   3.264  0.0774  0.5608  0.0561
13401TIP3    H161694   6.551   6.518   3.315 -1.3105 -0.2134 -1.3262
13401TIP3    H261695   6.535   6.669   3.324  1.4570  0.0298  1.3280
13402TIP3   OH261696   0.629   0.125  16.394  0.8821  0.3411  0.3341
13402TIP3    H161697   0.635   0.179  16.315  1.1133  1.5063  1.1248
13402TIP3    H261698   0.716   0.131  16.434  0.7042 -0.0472  0.7899
13403TIP3   OH261699   6.335   2.788   0.161  0.5329  0.4868 -0.2518
13403TIP3    H161700   6.345   2.876   0.125 -0.9290  0.6387 -0.3391
13403TIP3    H261701   6.285   2.800   0.242  1.4166 -0.1453  0.4129
13404TIP3   OH261702   2.550   4.512   5.426  0.0317 -0.1153  0.0568
13404TIP3    H161703   2.485   4.444   5.409 -0.3572  0.1118  0.6156
13404TIP3    H261704   2.500   4.586   5.460  0.5544  0.1483  0.2678
13405TIP3   OH261705   3.155   5.943  12.649  0.3046  0.6968 -0.1046
13405TIP3    H161706   3.118   6.026  12.681 -2.8965 -0.5253 -0.2294
13405TIP3    H261707   3.190   5.901  12.728 -1.5718  0.5518  0.7021
13406TIP3   OH261708   5.775   0.570   4.494 -0.0180 -0.2640  0.0516
13406TIP3    H161709   5.808   0.567   4.584  0.2454 -0.9524 -0.0646
13406TIP3    H261710   5.854   0.561   4.439 -0.2609 -0.6197 -0.2404
13407TIP3   OH261711   0.455   5.901  12.576 -0.8771 -0.2469  0.2632
13407TIP3    H161712   0.498   5.912  12.491  0.7758 -2.6211  0.6840
13407TIP3    H261713   0.511   5.949  12.637 -1.6196  0.7863  0.1497
13408TIP3   OH261714   5.443   4.159   4.135  0.1450  0.8057 -0.1787
13408TIP3    H161715   5.444   4.105   4.214 -2.5991  1.9720  0.8021
13408TIP3    H261716   5.534   4.185   4.122  1.0013 -1.2086  1.3052
13409TIP3   OH261717   4.638   4.551  13.247 -0.3660  0.2842  0.8134
13409TIP3    H161718   4.631   4.467  13.292  0.3783 -0.4894 -0.4455
13409TIP3    H261719   4.554   4.563  13.203  0.3616 -1.1349 -1.1446
13410TIP3   OH261720   2.635   4.954   2.761  0.2190 -0.3530  0.5704
13410TIP3    H161721   2.661   4.941   2.670 -1.9076  1.3180 -0.3861
13410TIP3    H261722   2.542   4.930   2.762 -0.0633  0.6875  2.0107
13411TIP3   OH261723   4.401   4.217   0.448  0.2663 -0.0593  0.4486
13411TIP3    H161724   4.465   4.239   0.380  1.2293 -1.6730  0.7766
13411TIP3    H261725   4.378   4.301   0.488  0.7276  0.7566 -0.9337
13412TIP3   OH261726   6.250   2.960   0.695  0.3898  0.0500 -0.5718
13412TIP3    H161727   6.219   2.885   0.746 -0.1962  0.2706 -0.6000
13412TIP3    H261728   6.190   2.965   0.621  1.7377 -0.7948 -1.7688
13413TIP3   OH261729   1.435   2.521   2.767 -0.1767  0.2897 -0.7181
13413TIP3    H161730   1.491   2.556   2.837  2.4916 -3.8644 -0.4362
13413TIP3    H261731   1.495   2.506   2.694 -2.0086  0.3056 -2.2857
13414TIP3   OH261732   3.076   2.701   5.342 -0.3556  0.2766  0.6564
13414TIP3    H161733   2.994   2.654   5.325  0.6407 -0.8251 -1.4264
13414TIP3    H261734   3.119   2.651   5.411  0.8468 -2.2499 -1.7596
13415TIP3   OH261735   0.053   0.945   3.754  0.1819  0.1851 -0.1166
13415TIP3    H161736   0.114   0.963   3.683  1.1519  0.5801  0.7880
13415TIP3    H261737  -0.028   0.990   3.728  1.1491  2.0455 -0.0584
13416TIP3   OH261738   0.422   1.926   5.402  0.8039  0.2750 -0.4104
13416TIP3    H161739   0.399   1.979   5.478  2.3473 -2.0872  1.8754
13416TIP3    H261740   0.502   1.965   5.369  0.7330  0.6686 -0.1277
13417TIP3   OH261741   5.235   3.643  12.570 -0.6360 -0.3955 -0.2661
13417TIP3    H161742   5.182   3.621  12.646  0.0440 -0.0941  0.2974
13417TIP3    H261743   5.316   3.678  12.605 -0.0270 -0.8999 -1.1235
13418TIP3   OH261744   0.876   0.131   1.657  0.2928  0.5350 -0.4904
13418TIP3    H161745   0.852   0.219   1.628  0.8642  0.3390 -1.5767
13418TIP3    H261746   0.917   0.145   1.743 -0.1977  1.2501 -0.3591
13419TIP3   OH261747   0.704   0.686   5.384 -0.6591  0.2932  0.1659
13419TIP3    H161748   0.679   0.596   5.363 -1.0150  0.2868  0.6111
13419TIP3    H261749   0.645   0.741   5.332  1.4909  0.3144 -2.4751
13420TIP3   OH261750   1.700   0.386  15.321  0.3043 -0.3070  0.3881
13420TIP3    H161751   1.668   0.474  15.337  1.1379 -0.2093  1.6362
13420TIP3    H261752   1.639   0.329  15.368  1.0920 -0.2235  1.5285
13421TIP3   OH261753   0.123   5.331   1.276 -0.2517 -0.3857  0.1569
13421TIP3    H161754   0.109   5.416   1.319  0.9159 -1.0215  1.9127
13421TIP3    H261755   0.103   5.266   1.344  2.1997 -1.4256 -0.0265
13422TIP3   OH261756   2.301   2.325   3.101 -0.0301 -0.3565 -0.3364
13422TIP3    H161757   2.268   2.286   3.020 -2.5607 -0.7726  0.8169
13422TIP3    H261758   2.276   2.263   3.169  2.0878 -0.0309  0.8076
13423TIP3   OH261759   4.784   1.088   2.785  0.4963  0.1429  0.1664
13423TIP3    H161760   4.821   1.069   2.699  0.9675 -0.3559  0.4704
13423TIP3    H261761   4.775   1.003   2.827 -0.6039  0.2975  0.2697
13424TIP3   OH261762   2.880   5.590   1.976  0.8244  0.4749  0.3546
13424TIP3    H161763   2.897   5.587   1.882 -2.2910  0.0486 -0.3099
13424TIP3    H261764   2.876   5.684   1.996  0.7034  0.5783 -0.1352
13425TIP3   OH261765   0.466   0.640   4.309  0.3474 -0.3773 -0.5326
13425TIP3    H161766   0.514   0.695   4.247  0.8521 -1.5000 -1.1703
13425TIP3    H261767   0.403   0.592   4.254 -1.2360  0.7616  0.2294
13426TIP3   OH261768   5.905   0.946  11.631  0.1874 -0.2958 -0.4495
13426TIP3    H161769   5.879   0.857  11.655 -0.5794  0.3886  1.3898
13426TIP3    H261770   5.870   0.958  11.542  0.5122 -1.8924 -0.8152
13427TIP3   OH261771   3.169   1.965   1.195 -0.8586 -0.1427 -0.1662
13427TIP3    H161772   3.211   1.888   1.234  0.7642  0.3193 -0.9322
13427TIP3    H261773   3.139   1.935   1.109  1.6399  0.5407 -1.3625
13428TIP3   OH261774   2.633   4.992  15.753 -0.1515  0.3605  0.3207
13428TIP3    H161775   2.674   5.078  15.752 -1.3352  1.0234  2.2880
13428TIP3    H261776   2.539   5.010  15.748 -0.3905 -0.8579  0.1085
13429TIP3   OH261777   3.919   6.225  15.196  0.0912  0.5557  0.5007
13429TIP3    H161778   4.011   6.237  15.218 -0.3943 -0.1538  3.2581
13429TIP3    H261779   3.914   6.137  15.160  0.2647 -0.1580  2.1461
13430TIP3   OH261780   2.790   4.806   1.683  1.2007  0.9805 -0.1221
13430TIP3    H161781   2.813   4.723   1.725  0.2872  1.7733  2.1141
13430TIP3    H261782   2.850   4.870   1.723 -0.1738  1.8925  0.5449
13431TIP3   OH261783   6.730   4.060  13.613 -0.1306 -0.4566 -0.5132
13431TIP3    H161784   6.749   3.997  13.543 -0.9677 -3.4833  1.7549
13431TIP3    H261785   6.639   4.042  13.638  0.6434 -0.7366  2.4405
13432TIP3   OH261786   1.337   0.497   4.658  0.0225 -0.5204  0.4223
13432TIP3    H161787   1.404   0.535   4.714 -0.7094  1.8353 -0.1576
13432TIP3    H261788   1.283   0.445   4.716  2.5882 -2.9597  0.8112
13433TIP3   OH261789   5.204   2.857  16.964 -0.1192  0.0044  0.0643
13433TIP3    H161790   5.250   2.875  17.045 -0.3079 -1.1650  0.4580
13433TIP3    H261791   5.123   2.907  16.970  0.1810  0.4678  0.2771
13434TIP3   OH261792   5.918   0.233   4.925 -0.4652  0.0273  0.0709
13434TIP3    H161793   5.958   0.177   4.992  0.0082  0.3803  0.0868
13434TIP3    H261794   5.989   0.290   4.895 -0.6509 -0.1589 -0.7730
13435TIP3   OH261795   1.120   2.605  16.984 -0.4527 -0.4626  0.2322
13435TIP3    H161796   1.206   2.635  16.956  0.0391 -0.2345  1.8698
13435TIP3    H261797   1.107   2.645  17.069 -1.9111 -1.0141  0.3041
13436TIP3   OH261798   3.909   5.544   4.455  0.6921  0.5205 -0.9112
13436TIP3    H161799   3.950   5.467   4.415 -1.8475 -0.4334 -1.9003
13436TIP3    H261800   3.969   5.569   4.525  2.4042 -1.3561 -1.5924
13437TIP3   OH261801   0.772   3.743   2.962 -0.0472 -0.6811  0.3982
13437TIP3    H161802   0.772   3.695   3.045  0.5036 -0.5849  0.4561
13437TIP3    H261803   0.712   3.816   2.977 -0.5474 -1.0958  0.4559
13438TIP3   OH261804   1.444   5.204  16.819  0.0359 -0.1707  0.1170
13438TIP3    H161805   1.434   5.165  16.905  0.3758 -1.2986 -0.3404
13438TIP3    H261806   1.361   5.187  16.774  0.4864 -1.1559 -0.3769
13439TIP3   OH261807   5.580   6.347   2.678 -0.1552  0.5963 -0.0525
13439TIP3    H161808   5.588   6.354   2.773  0.1488  1.6489 -0.1500
13439TIP3    H261809   5.506   6.403   2.655 -0.7002 -0.2281 -0.3731
13440TIP3   OH261810   0.699   5.756  13.003 -0.0538 -0.2024  0.5208
13440TIP3    H161811   0.698   5.733  13.096 -1.1928  0.5924  0.7344
13440TIP3    H261812   0.614   5.798  12.988  0.0818 -0.3847 -0.9035
13441TIP3   OH261813   0.937   3.757   2.148  0.1018  0.5636  0.0840
13441TIP3    H161814   1.001   3.716   2.207 -0.4394 -0.8794 -0.2822
13441TIP3    H261815   0.896   3.826   2.201  1.5653  1.1504  0.4855
13442TIP3   OH261816   5.830   0.889  10.418  0.0823  0.0410  0.5254
13442TIP3    H161817   5.754   0.904  10.475  0.6764  0.4636  1.2407
13442TIP3    H261818   5.854   0.977  10.387 -0.6148 -0.2516 -0.9128
13443TIP3   OH261819   3.709   3.896  17.037  0.2149  0.0621  0.4732
13443TIP3    H161820   3.743   3.818  17.079 -0.9550 -1.0102 -0.5065
13443TIP3    H261821   3.760   3.905  16.957 -1.0227 -0.9505 -0.4738
13444TIP3   OH261822   3.428   2.727   0.658 -0.2029 -0.0207  0.2560
13444TIP3    H161823   3.400   2.730   0.567 -0.3676  2.1519  0.3305
13444TIP3    H261824   3.402   2.640   0.689 -1.3173 -0.3089 -1.3987
13445TIP3   OH261825   1.868   1.435  12.509 -0.5921  0.2038 -0.3293
13445TIP3    H161826   1.862   1.529  12.494  0.6254  0.5211  0.9972
13445TIP3    H261827   1.798   1.416  12.571 -0.6205  0.2926 -0.3335
13446TIP3   OH261828   0.837   5.454  11.828 -0.4871  0.1741  0.4097
13446TIP3    H161829   0.766   5.481  11.886 -2.2912 -2.5261 -0.3507
13446TIP3    H261830   0.893   5.399  11.884 -0.2484  0.4689  0.4601
13447TIP3   OH261831   0.510   3.230  15.848 -0.1118  0.6179  0.7514
13447TIP3    H161832   0.451   3.290  15.803 -0.6299 -0.0358  0.5639
13447TIP3    H261833   0.464   3.146  15.850  1.1936 -0.1597 -0.2411
13448TIP3   OH261834   2.934   5.696   4.695  0.1943 -0.3766  0.2167
13448TIP3    H161835   2.948   5.764   4.629 -0.4443 -0.2362  0.2168
13448TIP3    H261836   2.990   5.720   4.768  0.3853 -0.1532 -0.0046
13449TIP3   OH261837   0.324   6.453  12.188  0.0531 -0.0559 -0.0302
13449TIP3    H161838   0.274   6.375  12.211 -1.1283  0.7257  0.1504
13449TIP3    H261839   0.403   6.447  12.241  1.6218 -2.7768 -2.4169
13450TIP3   OH261840   3.181   0.116  12.463 -0.3108  0.3080  0.7932
13450TIP3    H161841   3.235   0.192  12.441  2.5133 -0.9977  2.6787
13450TIP3    H261842   3.230   0.041  12.431 -3.6365 -0.9089 -2.2120
13451TIP3   OH261843   4.773   5.428  14.768 -0.6297  0.3995  0.4421
13451TIP3    H161844   4.840   5.495  14.782  2.4299 -2.1395 -0.6311
13451TIP3    H261845   4.751   5.397  14.856  0.8666  0.2167  0.7808
13452TIP3   OH261846   2.502   6.540   3.095  0.4888  0.2774 -0.3796
13452TIP3    H161847   2.442   6.614   3.106 -0.3236 -0.6298  2.0517
13452TIP3    H261848   2.589   6.579   3.103  0.0657  0.8989  2.4068
13453TIP3   OH261849   3.562   5.870  11.214  0.1984  0.8988  0.0622
13453TIP3    H161850   3.534   5.860  11.123 -0.6625  0.2724  0.3887
13453TIP3    H261851   3.651   5.905  11.208 -1.0909  4.4854 -1.0285
13454TIP3   OH261852   5.296   0.890  11.744  0.0889 -0.7086 -0.2001
13454TIP3    H161853   5.360   0.824  11.770  1.3630  0.6324  0.2406
13454TIP3    H261854   5.345   0.973  11.747 -1.7739  0.4345  0.5666
13455TIP3   OH261855   1.654   0.779  13.482 -0.1675  0.0916 -0.3387
13455TIP3    H161856   1.707   0.818  13.413 -1.3861  0.3804 -1.1560
13455TIP3    H261857   1.629   0.693  13.448  0.4556 -0.4020  0.4020
13456TIP3   OH261858   2.348   1.711  15.129  0.0749 -0.1515 -0.5844
13456TIP3    H161859   2.312   1.709  15.041 -1.5084  1.4204 -0.0108
13456TIP3    H261860   2.307   1.786  15.171 -0.3743 -1.7135  1.9823
13457TIP3   OH261861   6.603   1.318  12.714 -0.5738  0.5755  0.3407
13457TIP3    H161862   6.532   1.257  12.700  0.0875 -0.4842  1.4155
13457TIP3    H261863   6.581   1.394  12.659 -1.8428 -0.2539 -0.3409
13458TIP3   OH261864   0.398   2.226  13.927 -0.1920 -0.2875 -0.6584
13458TIP3    H161865   0.346   2.148  13.947 -1.0095  0.6034  0.7918
13458TIP3    H261866   0.340   2.280  13.874 -0.0954 -0.0802 -0.5525
13459TIP3   OH261867   5.844   1.068   5.554 -0.2293 -0.4850  0.0159
13459TIP3    H161868   5.886   1.035   5.634  0.1752  0.1100  0.0567
13459TIP3    H261869   5.809   1.153   5.579  1.6363  0.6378 -0.9242
13460TIP3   OH261870   2.826   2.040  14.823  0.0046 -0.5756  0.1438
13460TIP3    H161871   2.904   2.020  14.875  0.1639  2.5351  1.3132
13460TIP3    H261872   2.860   2.059  14.736  0.0563 -2.8722 -0.4060
13461TIP3   OH261873   6.701   0.158   5.667  0.3092 -0.1937  0.3521
13461TIP3    H161874   6.752   0.113   5.600 -0.7135  2.4556 -2.4442
13461TIP3    H261875   6.614   0.119   5.662 -0.2317  1.1016 -1.1816
13462TIP3   OH261876   4.144   0.185  12.620  0.2276  0.2964  0.3397
13462TIP3    H161877   4.229   0.219  12.595  0.8855  0.0517  2.1209
13462TIP3    H261878   4.131   0.215  12.710 -2.0441  1.2095 -0.2133
13463TIP3   OH261879   5.244   6.468   3.937 -0.5084  0.0061 -0.6667
13463TIP3    H161880   5.160   6.506   3.910 -0.3836  0.3079 -0.6295
13463TIP3    H261881   5.244   6.381   3.897 -2.1791 -1.2233  1.7824
13464TIP3   OH261882   5.732   1.415   2.682 -0.0183  0.2430 -0.5223
13464TIP3    H161883   5.739   1.445   2.773 -3.5217 -0.6789  0.1813
13464TIP3    H261884   5.721   1.320   2.689 -0.0818  0.1267 -1.9391
13465TIP3   OH261885   1.303   4.757  12.858 -0.1217  0.5911 -0.5126
13465TIP3    H161886   1.329   4.710  12.937  1.1333  3.2252  0.7635
13465TIP3    H261887   1.207   4.759  12.863 -0.2202 -1.5568 -0.5364
13466TIP3   OH261888   6.120   2.541   1.903 -0.0504 -0.6055  0.1228
13466TIP3    H161889   6.076   2.539   1.988  0.8630 -0.8323  0.6005
13466TIP3    H261890   6.137   2.634   1.888  0.8674 -0.6510  0.7737
13467TIP3   OH261891   0.546   2.742  11.186 -0.2667 -0.3361  0.7239
13467TIP3    H161892   0.607   2.675  11.157  1.7404  1.4061  0.6241
13467TIP3    H261893   0.475   2.739  11.123  0.2469 -1.7343  0.1833
13468TIP3   OH261894   3.637   6.269  12.543 -0.6210 -0.0668 -0.1100
13468TIP3    H161895   3.585   6.321  12.603  0.4862  2.2240 -1.0062
13468TIP3    H261896   3.718   6.250  12.590 -0.6610 -0.2188 -0.1005
13469TIP3   OH261897   3.658   5.823  15.832  0.0999 -0.4190 -0.1361
13469TIP3    H161898   3.617   5.736  15.831 -0.1701 -0.3003 -1.7325
13469TIP3    H261899   3.639   5.857  15.919 -0.2471 -1.7529  0.3330
13470TIP3   OH261900   2.639   2.856   5.966  0.4664  0.0340 -0.6486
13470TIP3    H161901   2.699   2.861   6.040  2.1322  0.6396 -1.9685
13470TIP3    H261902   2.587   2.777   5.982  1.3525 -0.2952  0.7453
13471TIP3   OH261903   1.314   1.687  15.790 -0.2145  0.6536 -0.3663
13471TIP3    H161904   1.314   1.755  15.858  0.8639  0.8603 -0.5610
13471TIP3    H261905   1.353   1.611  15.832 -1.4165  0.1352 -0.1518
13472TIP3   OH261906   0.658   5.290   2.170  0.4814 -0.2899 -0.3170
13472TIP3    H161907   0.662   5.380   2.139  2.4280  0.0414  0.7176
13472TIP3    H261908   0.669   5.297   2.265 -1.0673 -1.5227 -0.0069
13473TIP3   OH261909   5.263   6.193   6.188  0.7511  0.0739  0.2855
13473TIP3    H161910   5.322   6.122   6.211  2.3366  1.5987  1.1131
13473TIP3    H261911   5.259   6.248   6.266 -1.6045  0.1775  0.1858
13474TIP3   OH261912   1.907   3.172  15.622 -0.3636 -0.1045  0.2266
13474TIP3    H161913   1.818   3.164  15.654 -0.2787  0.2830  0.5675
13474TIP3    H261914   1.961   3.180  15.700 -0.0528 -0.1185  0.0184
13475TIP3   OH261915   1.306   4.019   0.777  0.3008  0.3166  0.3183
13475TIP3    H161916   1.296   4.113   0.761  1.0984  0.4255  0.4472
13475TIP3    H261917   1.228   3.980   0.737 -0.3901  1.0903  0.8680
13476TIP3   OH261918   4.201   3.608  14.636 -0.4107 -0.3493 -0.7914
13476TIP3    H161919   4.194   3.513  14.640 -1.7521 -0.2361  0.8141
13476TIP3    H261920   4.272   3.629  14.697 -2.0465 -0.2163  1.1786
13477TIP3   OH261921   4.553   4.956   3.043 -0.0003  0.9866  0.0276
13477TIP3    H161922   4.538   5.036   3.095  1.7791  1.2441  0.2350
13477TIP3    H261923   4.578   4.890   3.108  1.7360  1.1701 -0.4074
13478TIP3   OH261924   6.566   6.214  16.330 -0.5269 -0.1523  0.3260
13478TIP3    H161925   6.513   6.271  16.274  2.0460  2.5134  0.3772
13478TIP3    H261926   6.544   6.240  16.419 -1.5942 -1.4988  0.4875
13479TIP3   OH261927   4.518   0.465  10.452  0.5971  0.0644  0.3628
13479TIP3    H161928   4.496   0.512  10.533  0.0748 -1.7162  1.3018
13479TIP3    H261929   4.601   0.420  10.473  1.2928  0.8464 -0.6474
13480TIP3   OH261930   2.101   6.777  16.809 -0.3822 -0.2382  0.4329
13480TIP3    H161931   2.196   6.774  16.806 -0.4310 -1.4772 -1.4314
13480TIP3    H261932   2.078   6.856  16.760 -0.3252 -0.9232 -0.7325
13481TIP3   OH261933   5.408   3.960   3.929 -0.1932 -0.3560 -0.3016
13481TIP3    H161934   5.368   4.015   3.861 -0.7451  0.8571  0.9747
13481TIP3    H261935   5.444   4.022   3.992  1.9276 -1.4530 -0.3761
13482TIP3   OH261936   3.327   5.513  11.273  0.3402 -0.3637  0.5832
13482TIP3    H161937   3.378   5.490  11.196  0.9983 -0.5451  1.0565
13482TIP3    H261938   3.324   5.609  11.272 -0.9928 -0.3870 -0.4957
13483TIP3   OH261939   1.265   3.804   5.764  0.3242 -0.1394  0.0081
13483TIP3    H161940   1.177   3.815   5.800  0.1264 -0.8651 -0.2402
13483TIP3    H261941   1.258   3.729   5.705  1.1716 -0.3762  0.1903
13484TIP3   OH261942   4.945   5.032   1.274  0.3006 -0.0301  0.2222
13484TIP3    H161943   4.967   4.977   1.348  0.8625  0.4696  0.4319
13484TIP3    H261944   4.961   5.121   1.304 -0.8455  0.2709 -0.0248
13485TIP3   OH261945   4.806   4.684   2.753  0.2614  0.7416 -0.1153
13485TIP3    H161946   4.861   4.644   2.820  1.4636  0.9832 -0.9164
13485TIP3    H261947   4.786   4.771   2.787 -0.0066  0.4846  0.3890
13486TIP3   OH261948   4.913   5.573  11.313  0.2445 -0.1022  0.2954
13486TIP3    H161949   4.899   5.555  11.220  1.9737  0.4012 -0.1081
13486TIP3    H261950   4.901   5.668  11.322 -1.3358 -0.3329  0.8966
13487TIP3   OH261951   5.267   5.733   3.299 -0.3729  0.1689  0.1824
13487TIP3    H161952   5.186   5.694   3.332 -0.0808 -2.2490 -1.7106
13487TIP3    H261953   5.239   5.816   3.260 -1.5756  0.3406  1.3335
13488TIP3   OH261954   3.654   4.317  14.048  0.3236  0.3339 -0.4317
13488TIP3    H161955   3.657   4.311  13.952 -1.6180  0.2945 -0.5376
13488TIP3    H261956   3.573   4.272  14.072  1.0276 -0.0925  1.2930
13489TIP3   OH261957   3.523   3.865   4.065 -0.8924  0.2395 -0.1125
13489TIP3    H161958   3.608   3.862   4.022 -0.7760  0.7154  0.0748
13489TIP3    H261959   3.490   3.776   4.060 -0.6414  0.1762 -0.7079
13490TIP3   OH261960   4.526   4.182   6.053  0.4099  0.5170 -0.4314
13490TIP3    H161961   4.438   4.149   6.073  1.5983 -0.9654  3.0689
13490TIP3    H261962   4.535   4.260   6.107  1.0458  1.0828 -1.3296
13491TIP3   OH261963   5.167   5.945   1.914  0.1891 -0.0383  0.3861
13491TIP3    H161964   5.137   5.922   1.826 -1.4694 -1.3703  1.2381
13491TIP3    H261965   5.262   5.950   1.907  0.1309 -0.8310 -1.3188
13492TIP3   OH261966   2.284   1.484  11.772  0.5280  0.3336  0.1590
13492TIP3    H161967   2.268   1.578  11.781  0.3495  0.7397 -3.0540
13492TIP3    H261968   2.202   1.449  11.736  0.4056 -1.1999  1.8192
13493TIP3   OH261969   1.529   5.369   1.234 -0.1779  0.1223 -0.2549
13493TIP3    H161970   1.613   5.413   1.247 -0.7011  0.8794  0.6852
13493TIP3    H261971   1.538   5.285   1.280  0.6442 -0.5670 -1.6231
13494TIP3   OH261972   0.089   6.798  14.360  0.5239 -0.1820  1.1949
13494TIP3    H161973   0.065   6.724  14.417  0.2441  0.6257  2.1550
13494TIP3    H261974   0.108   6.869  14.421 -1.1423  1.1337  0.2680
13495TIP3   OH261975   3.856   2.353   3.395  0.0266  0.0273 -0.6423
13495TIP3    H161976   3.776   2.301   3.411 -0.1400  0.0092 -1.4762
13495TIP3    H261977   3.850   2.425   3.458  0.2813 -0.9674  0.5687
13496TIP3   OH261978   3.880   1.669   3.659  0.6883  0.4721 -0.5612
13496TIP3    H161979   3.831   1.605   3.607 -1.2998  1.1506  0.3719
13496TIP3    H261980   3.865   1.643   3.750 -0.1149  2.1671 -0.1637
13497TIP3   OH261981   1.974   4.172   3.728 -0.1060  0.1939  0.2318
13497TIP3    H161982   2.025   4.096   3.754 -1.6688 -1.0160 -0.0684
13497TIP3    H261983   2.038   4.234   3.694  1.2974 -0.6448  1.2200
13498TIP3   OH261984   1.987   3.007  16.634  0.1974 -0.0411 -0.0067
13498TIP3    H161985   1.895   3.035  16.631  0.0667 -0.2808  1.3901
13498TIP3    H261986   1.991   2.932  16.574  0.2143  1.8786 -2.5713
13499TIP3   OH261987   5.363   0.704   2.815 -0.4047  0.7554 -0.0850
13499TIP3    H161988   5.432   0.682   2.752 -1.1836  0.2291 -0.7833
13499TIP3    H261989   5.402   0.769   2.873  0.6408  0.5328 -0.5287
13500TIP3   OH261990   2.554   5.263   2.370 -0.1769 -0.2571  0.9140
13500TIP3    H161991   2.620   5.239   2.304 -0.7022 -0.1519  0.3393
13500TIP3    H261992   2.600   5.321   2.430  0.1305  0.2001  0.2470
13501TIP3   OH261993   5.685   0.611  13.453  0.0772  0.2528 -0.5814
13501TIP3    H161994   5.747   0.579  13.388 -0.1213 -0.5456 -0.3820
13501TIP3    H261995   5.613   0.649  13.402  0.1571  0.0777 -0.8221
13502TIP3   OH261996   3.179   2.538  16.987  0.5019  0.1877 -0.2764
13502TIP3    H161997   3.227   2.532  17.069 -1.4823  2.4382  1.1684
13502TIP3    H261998   3.243   2.574  16.925  1.3315  1.0026  0.9927
13503TIP3   OH261999   4.926   3.978   4.025  0.2097 -0.0475  0.1695
13503TIP3    H162000   4.833   3.970   4.006 -0.9177  1.1024  4.1052
13503TIP3    H262001   4.954   4.055   3.976 -1.4408  0.7066  0.3303
13504TIP3   OH262002   6.730   4.325  16.232  0.5689 -0.2435 -0.2031
13504TIP3    H162003   6.682   4.244  16.250  1.0367 -0.4022  0.3345
13504TIP3    H262004   6.661   4.392  16.226  0.1187 -0.7767 -1.3267
13505TIP3   OH262005   5.406   5.723  15.260  0.5651  0.0093  0.0519
13505TIP3    H162006   5.473   5.774  15.307  0.2596  1.1173 -0.6643
13505TIP3    H262007   5.329   5.780  15.259  0.1570 -0.5309 -0.6503
13506TIP3   OH262008   1.111   0.988   1.958  0.0578 -0.0993 -0.3714
13506TIP3    H162009   1.015   0.990   1.952 -0.0416 -0.3942  0.9257
13506TIP3    H262010   1.140   0.967   1.869 -1.1089 -0.6276 -0.6465
13507TIP3   OH262011   1.564   0.938  14.012  0.3844  0.2059  0.5811
13507TIP3    H162012   1.600   0.943  13.923 -2.4496  1.4283 -0.6126
13507TIP3    H262013   1.525   0.851  14.017 -1.1940  0.8224 -0.1896
13508TIP3   OH262014   1.043   5.743  11.972  0.3312 -0.2377  0.1864
13508TIP3    H162015   1.024   5.674  11.907  0.2454 -1.1986  1.2046
13508TIP3    H262016   1.004   5.822  11.935  0.1063 -0.8105 -0.8407
13509TIP3   OH262017   5.644   0.301   2.764  0.5060  0.0765  0.3204
13509TIP3    H162018   5.585   0.325   2.835  0.5213 -0.3650  0.4906
13509TIP3    H262019   5.607   0.220   2.729  1.3339 -0.5486  0.8335
13510TIP3   OH262020   1.434   1.269   4.693  0.8270  0.3594  0.4749
13510TIP3    H162021   1.460   1.270   4.785 -0.1436  2.7223  0.7902
13510TIP3    H262022   1.345   1.233   4.694 -0.5476  3.4795  0.9861
13511TIP3   OH262023   3.021   6.092   2.212 -0.0932  0.3393 -1.0218
13511TIP3    H162024   2.953   6.158   2.195  0.8556  0.9934 -2.4408
13511TIP3    H262025   3.060   6.119   2.295 -1.8662 -0.3446  0.0934
13512TIP3   OH262026   2.411   4.171  14.349 -0.3528  0.5505  0.4671
13512TIP3    H162027   2.401   4.164  14.254 -0.3938 -1.3464  0.5657
13512TIP3    H262028   2.322   4.180  14.382 -0.3445  1.1394  0.3376
13513TIP3   OH262029   1.507   3.356  12.642 -0.5201 -0.0270  0.1426
13513TIP3    H162030   1.538   3.363  12.552 -1.1769 -1.3416 -0.2119
13513TIP3    H262031   1.574   3.303  12.686 -0.5022  0.0993  0.2669
13514TIP3   OH262032   1.079   6.071  14.184 -1.0413  0.6144 -0.2641
13514TIP3    H162033   1.031   6.040  14.108 -1.0264  0.0693 -0.0626
13514TIP3    H262034   1.120   6.153  14.156 -1.2809  0.5733 -0.7425
13515TIP3   OH262035   2.275   6.483  16.665  0.0735  0.1050  0.0433
13515TIP3    H162036   2.214   6.505  16.595  1.3459  0.1485 -1.1054
13515TIP3    H262037   2.346   6.548  16.657  1.2887 -1.1721 -0.0229
13516TIP3   OH262038   6.644   1.142  15.845 -0.1099 -0.1172  0.2904
13516TIP3    H162039   6.639   1.121  15.752 -1.1147 -1.4670  0.6233
13516TIP3    H262040   6.575   1.207  15.859 -0.1331 -0.1102  0.1457
13517TIP3   OH262041   5.029   4.186  15.241  0.0518 -0.1217 -0.5259
13517TIP3    H162042   4.950   4.171  15.189 -0.5037  1.6602 -0.2578
13517TIP3    H262043   5.056   4.276  15.219  1.7536 -0.5261 -0.2670
13518TIP3   OH262044   2.006   1.151  16.225 -0.6151  0.0506  0.0780
13518TIP3    H162045   1.940   1.211  16.260 -0.8944  0.0862 -0.5035
13518TIP3    H262046   1.977   1.065  16.253 -1.4741 -0.0425 -1.0150
13519TIP3   OH262047   4.711   1.999   6.484 -0.2703  0.0491  0.1649
13519TIP3    H162048   4.705   1.985   6.578 -2.4585  1.2411  0.2759
13519TIP3    H262049   4.622   1.985   6.451  0.2589  0.4933 -1.5953
13520TIP3   OH262050   6.756   5.551  14.750  0.2526  0.1549  0.5267
13520TIP3    H162051   6.778   5.643  14.733  0.2446  0.3766  1.6080
13520TIP3    H262052   6.775   5.540  14.843 -1.7889 -0.3360  0.9257
13521TIP3   OH262053   4.936   6.159   1.249 -0.1386 -0.1634  0.9640
13521TIP3    H162054   4.939   6.175   1.344 -1.3960  0.9824  0.8523
13521TIP3    H262055   4.845   6.178   1.225  0.3538  0.3453 -0.6045
13522TIP3   OH262056   4.331   3.602  15.225 -0.3382 -0.4475 -0.8003
13522TIP3    H162057   4.301   3.545  15.154 -1.2326 -1.0688  0.0584
13522TIP3    H262058   4.251   3.634  15.266  0.1650  0.5619 -0.5702
13523TIP3   OH262059   4.025   2.096   4.770  0.5196  0.2600 -0.0138
13523TIP3    H162060   4.098   2.152   4.744  0.2607  0.5103 -0.2029
13523TIP3    H262061   3.948   2.152   4.763  0.4640  0.4218  1.5450
13524TIP3   OH262062   4.323   1.252   3.688 -0.0687  0.0066  0.3256
13524TIP3    H162063   4.399   1.287   3.642 -0.0638  1.0074  1.0418
13524TIP3    H262064   4.277   1.199   3.623  0.3067  0.8109 -0.6277
13525TIP3   OH262065   2.390   0.340  11.239 -0.1662  0.3841 -0.4020
13525TIP3    H162066   2.382   0.256  11.194  0.5727  0.2571 -0.3012
13525TIP3    H262067   2.342   0.402  11.182  2.1200  0.5647 -2.2945
13526TIP3   OH262068   0.052   4.645   2.895  0.0443  0.2747 -0.2348
13526TIP3    H162069  -0.012   4.716   2.887 -0.0361  0.5308  2.0202
13526TIP3    H262070   0.131   4.687   2.928  0.8459 -0.3102 -1.3572
13527TIP3   OH262071   0.998   5.035  17.010  0.4526  0.4260 -0.4777
13527TIP3    H162072   0.927   4.974  17.027 -1.6068  2.5448 -0.9328
13527TIP3    H262073   0.976   5.113  17.062  0.8016  2.2527 -2.8746
13528TIP3   OH262074   3.798   0.622   2.731 -0.3758 -0.3445  0.3920
13528TIP3    H162075   3.868   0.683   2.710  0.1970 -1.1705 -0.1725
13528TIP3    H262076   3.805   0.553   2.664 -1.6824 -0.4769  0.3662
13529TIP3   OH262077   0.210   3.500  15.447 -0.1248 -0.2200  0.8667
13529TIP3    H162078   0.238   3.578  15.400 -0.2688 -0.4352  0.4181
13529TIP3    H262079   0.115   3.498  15.437 -0.0663 -0.7757  0.3625
13530TIP3   OH262080   0.247   3.148   2.180  0.2271 -0.3708 -0.1817
13530TIP3    H162081   0.310   3.220   2.175  2.5181 -1.9984  2.2432
13530TIP3    H262082   0.197   3.164   2.260 -0.4767 -0.5804 -0.5684
13531TIP3   OH262083   6.106   3.768   1.440 -0.0558 -0.0279 -0.7390
13531TIP3    H162084   6.123   3.686   1.394 -1.2526  0.3912 -1.9900
13531TIP3    H262085   6.049   3.743   1.513  0.5569 -0.4586 -0.3913
13532TIP3   OH262086   4.677   3.339   1.152 -0.6707  0.3431 -0.0039
13532TIP3    H162087   4.607   3.297   1.201  0.1428 -3.8693 -2.0287
13532TIP3    H262088   4.757   3.299   1.186  0.4404  2.0308 -0.5321
13533TIP3   OH262089   6.494   4.863   5.572  0.1371  0.0175 -0.4678
13533TIP3    H162090   6.554   4.914   5.626 -0.2209 -1.1205  1.0751
13533TIP3    H262091   6.538   4.855   5.487  1.1175  1.1073 -0.0707
13534TIP3   OH262092   2.050   2.763   6.409 -0.2341 -0.0061 -0.2984
13534TIP3    H162093   1.984   2.707   6.370 -1.7400  0.9885  0.7423
13534TIP3    H262094   2.024   2.773   6.500  0.8840  1.0647 -0.0602
13535TIP3   OH262095   6.524   0.970  16.351 -0.1902  0.7316  0.2532
13535TIP3    H162096   6.584   0.895  16.346 -1.1706 -0.1046  0.6882
13535TIP3    H262097   6.561   1.026  16.419  0.4730  0.5794  0.0231
13536TIP3   OH262098   4.723   2.631  16.760  0.3717  0.3693  0.3759
13536TIP3    H162099   4.668   2.697  16.802 -2.1422 -0.1655 -1.7705
13536TIP3    H262100   4.701   2.550  16.804 -1.9214 -0.1156 -1.5029
13537TIP3   OH262101   6.311   5.293   0.052 -0.0694 -0.1631 -0.2451
13537TIP3    H162102   6.339   5.377   0.088 -2.1795  0.1018  0.9544
13537TIP3    H262103   6.297   5.311  -0.041  1.3318  0.2777 -0.3939
13538TIP3   OH262104   2.624   3.289  13.093 -0.4249  0.2744  0.4564
13538TIP3    H162105   2.717   3.267  13.102 -0.1534  0.2537 -1.8355
13538TIP3    H262106   2.583   3.253  13.172  1.4208 -0.1991  1.2451
13539TIP3   OH262107   2.711   0.220  13.493  0.2886 -0.1363 -0.1832
13539TIP3    H162108   2.669   0.144  13.453 -1.0786  0.7830 -0.5856
13539TIP3    H262109   2.805   0.206  13.480 -0.0016 -1.1646 -1.3170
13540TIP3   OH262110   0.957   4.179  14.882 -0.4878  0.1792  1.0280
13540TIP3    H162111   1.014   4.139  14.948  0.2117  1.3028  1.1345
13540TIP3    H262112   1.002   4.162  14.799 -1.9317 -2.2333  0.6339
13541TIP3   OH262113   6.024   6.191   0.597 -0.4165 -0.3200  0.4814
13541TIP3    H162114   6.073   6.176   0.677  0.1288 -0.4545  0.1281
13541TIP3    H262115   5.933   6.172   0.620 -0.3878  0.4722  1.2877
13542TIP3   OH262116   0.167   2.188  17.041  0.5080  0.1486 -0.7710
13542TIP3    H162117   0.224   2.259  17.009  0.7064  0.1265 -0.4763
13542TIP3    H262118   0.191   2.112  16.988  3.6699 -0.9774  1.9311
13543TIP3   OH262119   3.415   5.635  15.981 -0.6282 -0.0552 -0.2834
13543TIP3    H162120   3.335   5.661  15.936 -0.9348  0.3062  0.4519
13543TIP3    H262121   3.471   5.600  15.912 -1.5020 -0.5275 -0.7732
13544TIP3   OH262122   0.675   1.407  14.152  0.2504  0.5271  0.5280
13544TIP3    H162123   0.694   1.440  14.065 -3.4975 -0.7391 -0.9954
13544TIP3    H262124   0.617   1.472  14.191  1.3326  0.7462  1.8733
13545TIP3   OH262125   1.890   4.765   4.339  0.3704  0.1340 -0.9528
13545TIP3    H162126   1.951   4.830   4.305 -0.2011 -0.1264 -2.5290
13545TIP3    H262127   1.936   4.681   4.329  0.2208  0.0619 -1.0368
13546TIP3   OH262128   0.317   3.366  11.867  0.4856  0.6785 -0.3838
13546TIP3    H162129   0.245   3.357  11.804 -1.2389 -1.9315  1.7204
13546TIP3    H262130   0.329   3.460  11.878  0.6457  1.2700 -4.2127
13547TIP3   OH262131   2.039   1.438   2.608  0.3773 -0.6578  0.0334
13547TIP3    H162132   2.073   1.352   2.584 -1.8167 -1.6058  0.0974
13547TIP3    H262133   1.950   1.439   2.574  0.8602  2.3229 -1.5727
13548TIP3   OH262134   1.997   0.717  11.800 -0.1916  0.0284  0.1963
13548TIP3    H162135   1.928   0.672  11.849  1.3537 -2.8813 -0.1096
13548TIP3    H262136   1.962   0.723  11.711 -1.3077  1.5877  0.6846
13549TIP3   OH262137   6.508   0.975  16.723  0.0497 -0.2306 -0.1792
13549TIP3    H162138   6.555   0.892  16.733 -0.8353 -0.6499  0.5795
13549TIP3    H262139   6.468   0.991  16.809  0.8154  1.3643 -0.0852
13550TIP3   OH262140   6.807   2.897   0.667  0.0932 -0.0559  0.0823
13550TIP3    H162141   6.729   2.880   0.720  1.4227 -0.0012  2.1844
13550TIP3    H262142   6.817   2.993   0.669  0.7651 -0.1269  0.7200
13551TIP3   OH262143   0.931   2.919  14.843  0.2944  0.4635  0.5582
13551TIP3    H162144   0.871   2.869  14.788  1.1241 -0.0676  0.1029
13551TIP3    H262145   1.005   2.938  14.785  0.6791  0.8790  1.1785
13552TIP3   OH262146   2.597   6.644  13.792 -0.7823 -0.2601  0.3328
13552TIP3    H162147   2.510   6.651  13.753  0.5926  1.5453 -2.8569
13552TIP3    H262148   2.616   6.733  13.824 -0.3654 -0.7963  1.6293
13553TIP3   OH262149   6.563   4.744  13.720 -0.5871 -0.1961 -0.1999
13553TIP3    H162150   6.604   4.721  13.637  0.6196 -0.0512  0.3465
13553TIP3    H262151   6.490   4.682  13.728  0.1313 -1.1349 -0.7091
13554TIP3   OH262152   6.784   5.346  13.525  0.0996  0.4202 -0.6113
13554TIP3    H162153   6.844   5.356  13.451  1.2122  3.7035  0.5844
13554TIP3    H262154   6.736   5.428  13.528 -1.9148 -0.7228  0.7078
13555TIP3   OH262155   1.784   3.988   1.176  0.2293  0.0393 -0.3500
13555TIP3    H162156   1.850   3.930   1.214  0.2358 -1.1556 -2.0917
13555TIP3    H262157   1.798   4.072   1.220  0.1654 -1.2594  2.2844
13556TIP3   OH262158   0.720   5.917   1.288 -0.1334  0.3814 -0.1307
13556TIP3    H162159   0.773   5.884   1.361 -0.3723  3.1694  1.4395
13556TIP3    H262160   0.777   5.909   1.212 -0.0419 -3.0506  0.1458
13557TIP3   OH262161   3.336   0.653  13.730 -0.5631 -0.0526 -0.4046
13557TIP3    H162162   3.411   0.654  13.789  0.5004 -0.4618 -1.6968
13557TIP3    H262163   3.326   0.562  13.704  0.0895  0.3315 -2.1659
13558TIP3   OH262164   3.406   5.530   5.503  0.2775 -0.3299  0.4333
13558TIP3    H162165   3.468   5.564   5.439 -0.3619 -2.5849 -1.5052
13558TIP3    H262166   3.438   5.442   5.524 -0.8317 -0.5280  1.4328
13559TIP3   OH262167   3.241   5.822  12.887 -0.2905 -0.0203 -0.1338
13559TIP3    H162168   3.306   5.762  12.923 -1.2723 -1.4342 -0.6173
13559TIP3    H262169   3.165   5.814  12.945  0.1753  2.1909  0.8808
13560TIP3   OH262170   3.415   5.094  14.150 -0.3968  0.3994 -0.2174
13560TIP3    H162171   3.357   5.131  14.216 -0.5077 -0.9611  0.4924
13560TIP3    H262172   3.429   5.165  14.087  0.0375  1.8511  1.4561
13561TIP3   OH262173   6.277   4.921   1.755  0.1331 -0.0099  0.2490
13561TIP3    H162174   6.291   4.865   1.832 -1.1776 -0.3869  0.2391
13561TIP3    H262175   6.332   4.998   1.772  0.6494 -0.5344  1.0747
13562TIP3   OH262176   1.222   3.529  16.485  0.5940  0.4288  0.3936
13562TIP3    H162177   1.292   3.530  16.419  0.9819  1.6480  0.7987
13562TIP3    H262178   1.267   3.545  16.568  0.0011 -0.2393  0.8504
13563TIP3   OH262179   2.807   4.817   3.777  0.3912 -0.3823  0.2337
13563TIP3    H162180   2.812   4.835   3.871  1.1422 -0.9712  0.3189
13563TIP3    H262181   2.833   4.725   3.769 -0.8877 -0.7042 -0.4336
13564TIP3   OH262182   3.674   5.058  12.053 -0.4332 -0.7345 -0.2600
13564TIP3    H162183   3.700   5.073  11.962 -1.0664  1.0692 -0.1728
13564TIP3    H262184   3.723   5.123  12.103  1.7654 -3.1970  1.0644
13565TIP3   OH262185   2.341   3.293  15.889  0.1925  0.3866 -0.1877
13565TIP3    H162186   2.315   3.362  15.828  0.8070 -0.0744 -1.0013
13565TIP3    H262187   2.431   3.313  15.913  0.2899  0.0163 -0.2289
13566TIP3   OH262188   5.516   3.663  12.779 -0.4044  0.5454 -0.4507
13566TIP3    H162189   5.445   3.712  12.822  0.5730  1.3318  0.3138
13566TIP3    H262190   5.548   3.603  12.846 -0.7582 -0.2857 -0.9992
13567TIP3   OH262191   4.861   1.901   3.855  0.0953  0.4158 -0.0436
13567TIP3    H162192   4.824   1.859   3.932  1.1102  3.1626  2.1274
13567TIP3    H262193   4.940   1.849   3.836 -0.2249 -0.3745  0.6883
13568TIP3   OH262194   0.496   3.929   5.471 -0.7287 -0.0763 -0.1942
13568TIP3    H162195   0.427   3.949   5.534 -0.1242  0.3079  0.3717
13568TIP3    H262196   0.506   3.834   5.475 -1.5283 -0.1872 -0.6217
13569TIP3   OH262197   5.680   6.244  10.888  0.0341 -0.1179  0.7202
13569TIP3    H162198   5.622   6.314  10.917  2.1921  2.2127 -0.2216
13569TIP3    H262199   5.626   6.190  10.831 -1.6342  0.9239  1.2461
13570TIP3   OH262200   2.845   4.568  13.715 -0.1240 -0.4137  0.4289
13570TIP3    H162201   2.881   4.644  13.761  0.7034 -1.6273  1.8638
13570TIP3    H262202   2.788   4.526  13.779 -1.3747 -0.4769 -0.6869
13571TIP3   OH262203   2.060   0.207   5.480  0.9005  0.5458 -0.8839
13571TIP3    H162204   2.017   0.275   5.429 -0.8296  0.8850  0.9151
13571TIP3    H262205   2.119   0.255   5.539  0.3917  0.4300 -0.2722
13572TIP3   OH262206   0.251   3.990  10.363 -0.7020  0.2914  0.1819
13572TIP3    H162207   0.252   4.082  10.336 -0.5468 -0.1683 -1.4683
13572TIP3    H262208   0.171   3.955  10.325 -0.0892 -0.5675 -0.3435
13573TIP3   OH262209   5.560   4.333   1.625  0.3494  0.4373  0.2153
13573TIP3    H162210   5.551   4.371   1.538  1.0132 -0.4335 -0.2548
13573TIP3    H262211   5.501   4.258   1.625 -0.1750  0.8416  0.7691
13574TIP3   OH262212   0.361   0.688  12.585 -0.6224  0.5029  0.6933
13574TIP3    H162213   0.319   0.751  12.645 -2.2040 -0.5531  0.7409
13574TIP3    H262214   0.303   0.684  12.510 -0.5118 -0.8473  0.6606
13575TIP3   OH262215   5.992   6.743   4.938  0.3249  0.2345 -0.0278
13575TIP3    H162216   6.030   6.817   4.985  0.4526 -0.6035  1.2198
13575TIP3    H262217   5.969   6.680   5.006  0.0899 -0.8252 -1.0559
13576TIP3   OH262218   2.277   0.567  15.289  0.4743 -0.3892 -0.3428
13576TIP3    H162219   2.197   0.611  15.319  1.1115  1.0123 -0.6353
13576TIP3    H262220   2.257   0.474  15.298 -0.8288 -0.0579  0.5342
13577TIP3   OH262221   2.321   5.765  16.857 -0.4108  0.1853 -0.7751
13577TIP3    H162222   2.304   5.856  16.879 -0.3961  0.0883 -0.3563
13577TIP3    H262223   2.383   5.769  16.783  1.6769  0.5182  0.8881
13578TIP3   OH262224   5.500   1.038   4.176 -0.1012  0.2637 -1.0617
13578TIP3    H162225   5.488   0.947   4.205 -0.3075  0.6147  0.0073
13578TIP3    H262226   5.414   1.079   4.190 -0.2711  0.4117 -2.3869
13579TIP3   OH262227   1.856   1.220   3.679  0.4221  0.2409 -0.3953
13579TIP3    H162228   1.873   1.234   3.585 -0.9100 -0.5638 -0.7765
13579TIP3    H262229   1.916   1.280   3.723  2.5809 -0.8271 -1.7066
13580TIP3   OH262230   0.431   3.925  16.257 -0.2235 -0.2104 -0.2163
13580TIP3    H162231   0.478   3.948  16.337 -0.3288 -3.5131  0.9436
13580TIP3    H262232   0.382   4.004  16.235  1.0119  1.3212  2.0722
13581TIP3   OH262233   3.867   1.000   0.550  0.1716  0.4893 -0.7825
13581TIP3    H162234   3.820   1.042   0.622 -1.0963  0.8444 -1.7759
13581TIP3    H262235   3.928   1.066   0.518  0.9376  0.2367  0.1182
13582TIP3   OH262236   4.637   6.424   4.169  0.2055  0.3293 -0.3524
13582TIP3    H162237   4.729   6.429   4.144  0.9916 -0.1905  2.1039
13582TIP3    H262238   4.596   6.500   4.128  1.4289 -0.1021 -2.4783
13583TIP3   OH262239   6.053   4.676  14.583  0.2914 -0.3010  0.3604
13583TIP3    H162240   5.999   4.625  14.644 -1.3729  1.2786  0.2721
13583TIP3    H262241   6.073   4.757  14.631  0.5143  0.1726 -0.5134
13584TIP3   OH262242   3.061   6.719   0.205 -0.3165 -0.0807  0.2160
13584TIP3    H162243   3.018   6.705   0.120 -2.9469 -1.7171  1.6729
13584TIP3    H262244   3.020   6.655   0.263  4.7723 -2.4936  1.7094
13585TIP3   OH262245   6.148   5.199  12.321 -0.0566 -0.3033 -1.0666
13585TIP3    H162246   6.094   5.203  12.242 -0.0189  2.7692 -1.0689
13585TIP3    H262247   6.232   5.237  12.294  0.7093 -1.2200 -0.0487
13586TIP3   OH262248   0.622   0.559   3.901 -0.3226  0.5005  0.3084
13586TIP3    H162249   0.550   0.528   3.847  0.1774  0.6901 -0.4831
13586TIP3    H262250   0.611   0.513   3.985  0.2904 -1.7398 -0.7500
13587TIP3   OH262251   5.754   1.385  15.959 -0.4844 -0.2326 -0.1053
13587TIP3    H162252   5.763   1.457  15.897  0.7449 -0.5996 -0.3717
13587TIP3    H262253   5.711   1.316  15.908 -0.0214 -0.3203 -0.3833
13588TIP3   OH262254   1.050   2.614   3.613  0.1096  0.3109 -0.5790
13588TIP3    H162255   1.127   2.558   3.599 -0.1499 -0.6704  1.5196
13588TIP3    H262256   0.990   2.591   3.543  0.0500 -2.0419  0.1723
13589TIP3   OH262257   5.727   1.946   2.525 -0.1004  0.2121  0.1525
13589TIP3    H162258   5.747   2.039   2.515 -1.1989  0.3917 -0.5924
13589TIP3    H262259   5.631   1.943   2.528 -0.0584 -0.7388  1.9266
13590TIP3   OH262260   0.232   6.606  10.612  0.0398  0.1057 -0.3020
13590TIP3    H162261   0.320   6.605  10.649  0.0941  0.7376 -0.3957
13590TIP3    H262262   0.194   6.688  10.645 -0.7362 -0.4687  0.2540
13591TIP3   OH262263   2.772   5.565  16.207  0.1294  0.2112  0.5254
13591TIP3    H162264   2.678   5.560  16.190 -0.1150  0.9825  1.5414
13591TIP3    H262265   2.778   5.594  16.298  1.3496  1.3462  0.1124
13592TIP3   OH262266   1.780   0.855  12.774 -0.6475  0.2743 -0.1664
13592TIP3    H162267   1.721   0.931  12.774 -0.2511  0.5860 -0.7457
13592TIP3    H262268   1.722   0.780  12.756 -0.5972  0.8300 -3.0330
13593TIP3   OH262269   2.970   2.739  16.985 -0.4716 -0.4124  0.1273
13593TIP3    H162270   2.897   2.718  16.928  0.6491  0.0680 -1.5616
13593TIP3    H262271   3.009   2.654  17.007 -0.6628 -0.5715 -0.1570
13594TIP3   OH262272   3.520   0.864  14.897 -0.3273  0.0691 -0.0213
13594TIP3    H162273   3.474   0.948  14.888 -0.1553  0.2020  0.3153
13594TIP3    H262274   3.461   0.800  14.858 -0.4411  0.3541 -0.3241
13595TIP3   OH262275   3.728   2.751  14.171  0.1425 -0.0698  0.3077
13595TIP3    H162276   3.720   2.658  14.193  1.0140  0.2622  2.2085
13595TIP3    H262277   3.728   2.796  14.256  0.3160  1.6213 -0.5478
13596TIP3   OH262278   3.160   6.795   3.748 -0.1996 -0.1396  0.2498
13596TIP3    H162279   3.188   6.802   3.839  0.8969  1.3029 -0.1561
13596TIP3    H262280   3.220   6.852   3.700 -0.0688 -1.6812 -1.5445
13597TIP3   OH262281   0.390   4.555   1.605  0.0871  0.2206 -0.1072
13597TIP3    H162282   0.388   4.649   1.592  2.2808  0.8029  2.8660
13597TIP3    H262283   0.300   4.532   1.630 -0.1653  1.7504  0.4695
13598TIP3   OH262284   0.178   6.629  12.422 -0.0350 -0.1965 -0.0614
13598TIP3    H162285   0.245   6.670  12.368  0.0048 -1.7330 -1.2779
13598TIP3    H262286   0.103   6.688  12.418  0.1321 -0.0391 -1.4640
13599TIP3   OH262287   4.104   0.514   1.356  0.1487 -0.1795  0.4062
13599TIP3    H162288   4.092   0.420   1.367 -1.6617 -0.0720 -0.3429
13599TIP3    H262289   4.110   0.548   1.446  1.1502 -1.0267  0.6712
13600TIP3   OH262290   2.268   0.252   0.671 -0.6991 -0.1432  0.0493
13600TIP3    H162291   2.178   0.278   0.691 -1.5558 -1.5219 -1.6900
13600TIP3    H262292   2.297   0.314   0.604 -0.5466 -0.0238  0.2251
13601TIP3   OH262293   1.944   5.168  16.113 -0.3693 -0.8569 -1.2199
13601TIP3    H162294   1.849   5.162  16.106 -0.4203 -0.2821 -1.1275
13601TIP3    H262295   1.970   5.090  16.161 -1.5450  1.9451  4.9280
13602TIP3   OH262296   6.334   2.894  15.323  0.0904  0.1122  0.3168
13602TIP3    H162297   6.274   2.944  15.378  1.1474  1.6556  0.1396
13602TIP3    H262298   6.314   2.923  15.234 -0.5967 -1.2601  0.0024
13603TIP3   OH262299   2.595   1.097   5.542  0.0122  0.4480  0.0528
13603TIP3    H162300   2.571   1.111   5.451  3.2268 -2.1399 -1.4384
13603TIP3    H262301   2.644   1.015   5.541  0.7630  0.6376  4.0413
13604TIP3   OH262302   3.010   0.098   3.043 -0.6621  0.1238 -0.2491
13604TIP3    H162303   3.063   0.025   3.010 -0.0642  0.0111  0.9032
13604TIP3    H262304   2.969   0.135   2.965  0.4577 -0.3214 -1.0732
13605TIP3   OH262305   0.541   5.699  11.583  0.3934  0.0805  0.0416
13605TIP3    H162306   0.521   5.608  11.563  0.2376  0.0579  0.2973
13605TIP3    H262307   0.559   5.739  11.498 -0.1996 -0.0277 -0.1389
13606TIP3   OH262308   3.767   3.394   3.118 -0.2490 -0.5826 -0.8391
13606TIP3    H162309   3.782   3.452   3.042 -0.3201 -2.0957 -2.0497
13606TIP3    H262310   3.855   3.379   3.153 -0.1947 -0.0217 -0.7201
13607TIP3   OH262311   6.264   1.847   1.472  0.0850  0.0533  0.1835
13607TIP3    H162312   6.259   1.929   1.423 -0.8912 -1.3721 -2.2705
13607TIP3    H262313   6.328   1.794   1.424  0.3711 -0.8043  1.4668
13608TIP3   OH262314   0.997   4.555   2.084 -0.0290  0.4111 -0.6092
13608TIP3    H162315   1.051   4.478   2.098  0.5466  0.5002 -2.1193
13608TIP3    H262316   0.924   4.545   2.145  0.7002 -0.6758  0.1088
13609TIP3   OH262317   2.864   2.316  16.210 -0.3217  0.6538  0.6953
13609TIP3    H162318   2.890   2.269  16.289  1.2915  1.5622  0.7582
13609TIP3    H262319   2.777   2.352  16.231 -1.5809 -2.1389  0.6498
13610TIP3   OH262320   5.686   4.856  11.293 -0.0176  0.3359 -0.4225
13610TIP3    H162321   5.664   4.820  11.207 -0.8161 -0.3762  0.0640
13610TIP3    H262322   5.636   4.803  11.355 -1.0512  2.1094  0.3424
13611TIP3   OH262323   5.956   5.317  17.105 -0.5828  0.4654  0.4283
13611TIP3    H162324   5.902   5.348  17.033 -0.5918  1.0869  0.7007
13611TIP3    H262325   6.018   5.388  17.122  1.2567 -0.7520 -0.7874
13612TIP3   OH262326   5.661   1.217   0.098 -0.3292  0.0224 -0.2012
13612TIP3    H162327   5.684   1.130   0.130 -4.2028 -1.0555  0.1019
13612TIP3    H262328   5.650   1.206   0.004 -0.8380  0.1676 -0.1609
13613TIP3   OH262329   3.921   6.459   3.326 -0.1635 -0.1552 -0.1943
13613TIP3    H162330   3.910   6.538   3.380  0.2159 -0.2619  0.0439
13613TIP3    H262331   3.981   6.404   3.377  1.0567  0.1995 -1.2241
13614TIP3   OH262332   6.110   3.101  16.486  0.2603 -0.0482  0.0622
13614TIP3    H162333   6.172   3.029  16.474  1.8417  1.1717  0.5766
13614TIP3    H262334   6.129   3.135  16.573  1.8552  3.0331 -1.3301
13615TIP3   OH262335   4.838   3.734   3.502 -0.1912 -0.0859 -0.2444
13615TIP3    H162336   4.824   3.656   3.447  0.2730 -0.5783  0.3124
13615TIP3    H262337   4.891   3.792   3.447  1.3018 -1.0805  0.0812
13616TIP3   OH262338   2.584   3.441   4.832 -0.3852  0.1797  0.1670
13616TIP3    H162339   2.602   3.528   4.797 -1.0935  0.0611 -0.5178
13616TIP3    H262340   2.669   3.397   4.830 -0.2927  0.3687 -0.8852
13617TIP3   OH262341   2.059   1.285   4.286 -0.0618  0.2607  0.2433
13617TIP3    H162342   2.112   1.365   4.283 -0.6529  0.6400 -1.4776
13617TIP3    H262343   1.970   1.316   4.305 -0.1434 -0.0732  0.4074
13618TIP3   OH262344   2.891   0.705   0.251 -0.1318 -0.5488  0.5793
13618TIP3    H162345   2.876   0.783   0.198  0.4280 -0.6765  0.2317
13618TIP3    H262346   2.973   0.722   0.298  0.4362 -1.2689 -0.1385
13619TIP3   OH262347   3.303   1.360   4.951  0.4032 -0.3749 -0.0171
13619TIP3    H162348   3.246   1.396   5.019  1.9025  0.9085  0.6070
13619TIP3    H262349   3.253   1.371   4.870 -0.3378  0.5118  0.5399
13620TIP3   OH262350   1.201   2.451   0.592  0.0507 -0.0896  0.0356
13620TIP3    H162351   1.201   2.524   0.654  0.2586  1.8722 -2.1386
13620TIP3    H262352   1.140   2.387   0.630  1.1419  0.4091  2.8484
13621TIP3   OH262353   5.649   6.837   2.391  0.1036  0.6524 -0.0703
13621TIP3    H162354   5.690   6.808   2.472  1.0644 -1.4691 -1.2237
13621TIP3    H262355   5.722   6.866   2.336 -0.6931  4.1790  0.4769
13622TIP3   OH262356   4.382   0.304  12.267 -0.1871 -1.0957 -0.4407
13622TIP3    H162357   4.411   0.381  12.218 -2.0934 -1.0244 -1.5685
13622TIP3    H262358   4.463   0.260  12.292  0.9263  0.7861 -0.5315
13623TIP3   OH262359   1.467   2.479   0.588  0.4644 -0.0628  0.0768
13623TIP3    H162360   1.506   2.395   0.610  0.0458 -0.3561 -0.2888
13623TIP3    H262361   1.373   2.466   0.599  0.2927 -0.0220 -1.1826
13624TIP3   OH262362   5.988   5.726   0.694  0.3370 -0.6483  0.2621
13624TIP3    H162363   5.914   5.747   0.751  1.0031  2.2104  0.2044
13624TIP3    H262364   5.957   5.746   0.606  0.3899 -1.9007 -0.0621
13625TIP3   OH262365   2.685   4.825  14.214 -0.3144 -0.0999  0.1554
13625TIP3    H162366   2.659   4.911  14.244 -0.5300 -0.4772  1.0640
13625TIP3    H262367   2.734   4.787  14.287 -1.2984 -1.2318  0.2668
13626TIP3   OH262368   2.909   4.056   5.350 -0.7390 -0.3019 -0.0909
13626TIP3    H162369   2.962   4.094   5.280 -1.7057  1.3171  0.0071
13626TIP3    H262370   2.818   4.075   5.324 -1.1140  0.4751  1.6451
13627TIP3   OH262371   6.456   1.666  16.584  0.3395  0.0036  0.0991
13627TIP3    H162372   6.508   1.657  16.504  0.2116  0.7559 -0.0699
13627TIP3    H262373   6.421   1.578  16.599 -1.0073  0.1865 -1.6316
13628TIP3   OH262374   0.675   0.165  11.820 -0.2475  0.2733  0.0163
13628TIP3    H162375   0.620   0.109  11.765 -0.3848  0.3419  0.0824
13628TIP3    H262376   0.691   0.113  11.899 -1.4999  0.8297  0.6724
13629TIP3   OH262377   4.109   2.778   1.792  0.5511 -0.1058  0.1278
13629TIP3    H162378   4.056   2.701   1.772  1.3166 -0.4492 -0.6305
13629TIP3    H262379   4.058   2.852   1.757  1.0345 -0.5307 -1.5593
13630TIP3   OH262380   3.974   4.844   0.565  0.0383  0.6025 -0.5919
13630TIP3    H162381   3.878   4.846   0.574 -0.2961 -1.5207 -2.5185
13630TIP3    H262382   4.001   4.935   0.576 -2.5067  1.6954 -2.2879
13631TIP3   OH262383   1.031   3.701  13.328  0.0936 -0.6651  0.6165
13631TIP3    H162384   1.087   3.778  13.338  0.1701 -0.7262  0.6670
13631TIP3    H262385   1.090   3.627  13.341  0.5219 -0.8136 -1.7220
13632TIP3   OH262386   5.019   5.005  13.544  0.4450 -0.0311 -0.5373
13632TIP3    H162387   4.968   5.039  13.617 -0.1264 -1.5887 -0.1819
13632TIP3    H262388   4.954   4.972  13.482  0.9516  0.4477 -1.3424
13633TIP3   OH262389   6.779   1.584  15.591 -0.5100 -0.2396 -0.5431
13633TIP3    H162390   6.772   1.496  15.555  0.1302 -0.0055 -1.2779
13633TIP3    H262391   6.825   1.573  15.674 -1.7544 -0.7572  0.0848
13634TIP3   OH262392   2.277   3.159  13.191  0.2973 -0.1937 -0.3410
13634TIP3    H162393   2.195   3.170  13.238  0.3863 -0.9672  0.0183
13634TIP3    H262394   2.300   3.247  13.160  0.6595  0.5262  1.7714
13635TIP3   OH262395   5.304   2.101  14.978  0.0744 -0.0884 -0.0882
13635TIP3    H162396   5.395   2.070  14.982 -0.0582 -0.6641 -1.2547
13635TIP3    H262397   5.251   2.021  14.977 -0.5856  0.2165  2.3035
13636TIP3   OH262398   6.537   2.151  15.528  0.2385  0.3108  0.5049
13636TIP3    H162399   6.583   2.106  15.599  0.4444 -0.7579 -0.2634
13636TIP3    H262400   6.553   2.096  15.451 -0.3615  1.1876 -0.2734
13637TIP3   OH262401   4.778   1.733   3.278 -0.3618  0.4107  0.0013
13637TIP3    H162402   4.810   1.773   3.359 -0.8146  1.4995 -0.3427
13637TIP3    H262403   4.683   1.735   3.287 -0.4334  1.2121 -0.8778
13638TIP3   OH262404   5.774   2.008  14.424  0.2649  0.0475 -0.4062
13638TIP3    H162405   5.735   2.017  14.511 -0.9505  1.9812 -1.0968
13638TIP3    H262406   5.703   1.973  14.370  1.3795 -2.4196 -0.4268
13639TIP3   OH262407   5.341   5.035   0.525 -0.2892  0.3554 -0.3640
13639TIP3    H162408   5.415   5.020   0.467 -0.0210 -0.0030  0.0595
13639TIP3    H262409   5.374   5.095   0.592 -0.2599 -0.1052  0.0435
13640TIP3   OH262410   0.841   0.990  13.297  0.3393  0.5038 -0.3944
13640TIP3    H162411   0.812   1.026  13.213 -0.4935 -3.4712 -1.9968
13640TIP3    H262412   0.760   0.974  13.345  0.6643  0.3055  0.0975
13641TIP3   OH262413   2.304   6.379  16.162  1.0350  0.9218 -0.0371
13641TIP3    H162414   2.397   6.399  16.168  1.0319  0.4948  2.5376
13641TIP3    H262415   2.299   6.284  16.172  0.2404  1.1382  2.0818
13642TIP3   OH262416   1.030   5.901   6.362 -0.6457  0.2136 -0.3307
13642TIP3    H162417   0.941   5.866   6.366 -0.3045 -0.5525  1.0562
13642TIP3    H262418   1.081   5.833   6.317 -0.0447 -1.0504  2.1017
13643TIP3   OH262419   5.613   0.070   4.630 -0.2746  0.2567  0.5987
13643TIP3    H162420   5.668   0.064   4.552  0.8666 -2.3445  1.4742
13643TIP3    H262421   5.571   0.155   4.623  0.4877  0.5190 -2.3638
13644TIP3   OH262422   4.714   1.146  14.596 -0.1369  0.3251 -0.3769
13644TIP3    H162423   4.719   1.195  14.678 -0.5794 -0.2922  0.0408
13644TIP3    H262424   4.758   1.200  14.531  1.4833  0.1872  0.5728
13645TIP3   OH262425   6.433   1.237   6.526  0.4199 -0.1805  0.0386
13645TIP3    H162426   6.435   1.316   6.473  0.0735  0.5272  1.0472
13645TIP3    H262427   6.477   1.261   6.607  1.0049 -1.2595  0.0652
13646TIP3   OH262428   6.501   5.119  16.348  0.1898 -0.5080  0.5443
13646TIP3    H162429   6.509   5.060  16.423 -0.5038 -2.6732 -0.9850
13646TIP3    H262430   6.429   5.178  16.372 -0.0889 -1.2314  1.5466
13647TIP3   OH262431   0.120   6.566  12.054 -0.6269 -0.5810  0.0820
13647TIP3    H162432   0.199   6.545  12.104 -0.6712 -1.4444 -0.1936
13647TIP3    H262433   0.087   6.481  12.026 -0.2232 -0.0924 -2.0117
13648TIP3   OH262434   3.729   3.396   0.148  0.5653  0.6839 -0.6858
13648TIP3    H162435   3.664   3.328   0.130 -0.9373  1.4766  1.3461
13648TIP3    H262436   3.807   3.368   0.100  0.1147 -2.6254  0.2135
13649TIP3   OH262437   4.363   6.375   5.928 -0.6978 -0.0496 -0.8757
13649TIP3    H162438   4.379   6.448   5.868 -1.1696 -0.1223 -1.0930
13649TIP3    H262439   4.398   6.405   6.012  0.8768 -0.3384 -1.4014
13650TIP3   OH262440   5.211   3.661   2.818 -0.2807  0.4087  0.3460
13650TIP3    H162441   5.134   3.718   2.806  0.4905  1.1353 -1.4321
13650TIP3    H262442   5.188   3.580   2.772  0.3656  0.9944 -1.0601
13651TIP3   OH262443   4.127   5.460  14.121  0.0749 -0.2630  0.5498
13651TIP3    H162444   4.123   5.445  14.026  0.5958  1.3906  0.2236
13651TIP3    H262445   4.053   5.518  14.138 -0.4938 -1.1944  1.3140
13652TIP3   OH262446   0.215   2.742  12.907 -0.4775  0.1351 -0.2327
13652TIP3    H162447   0.150   2.810  12.926 -0.0712  0.5705 -0.3883
13652TIP3    H262448   0.166   2.674  12.861 -1.0260  0.0235  0.5010
13653TIP3   OH262449   0.043   3.019   1.824  0.5043  0.6356  0.0454
13653TIP3    H162450   0.032   2.938   1.873 -1.0003  1.1838  0.6631
13653TIP3    H262451   0.138   3.033   1.822  0.7041 -0.4187  1.1124
13654TIP3   OH262452   4.653   0.968   1.254  0.6342  0.4665 -0.0943
13654TIP3    H162453   4.675   0.902   1.320  1.9171  0.3729 -0.5860
13654TIP3    H262454   4.723   0.960   1.189  0.2428  1.6227 -0.6682
13655TIP3   OH262455   3.133   2.613   1.666 -0.0819  0.0615 -0.0750
13655TIP3    H162456   3.125   2.532   1.616  1.3350  1.3284 -2.5820
13655TIP3    H262457   3.126   2.586   1.757  2.1941 -3.1925 -0.6756
13656TIP3   OH262458   3.388   0.155  15.274 -0.1159 -0.0547  0.0011
13656TIP3    H162459   3.421   0.207  15.347  0.0628 -1.2671  0.8328
13656TIP3    H262460   3.307   0.198  15.248 -0.5806  0.0009  1.4283
13657TIP3   OH262461   1.613   3.726   2.551  0.1628  0.0916 -0.2321
13657TIP3    H162462   1.637   3.742   2.643 -0.7754 -1.3308  0.3037
13657TIP3    H262463   1.598   3.813   2.514  0.9121  0.7084  0.8638
13658TIP3   OH262464   6.393   6.390   2.899  0.6088  0.3719 -0.0363
13658TIP3    H162465   6.396   6.453   2.827  0.2206  1.9349  1.2443
13658TIP3    H262466   6.412   6.306   2.859  1.3787  1.3372 -1.7929
13659TIP3   OH262467   1.079   4.907   6.671 -0.5847  0.2142 -0.3530
13659TIP3    H162468   1.168   4.876   6.690 -0.3638  1.2748  0.3984
13659TIP3    H262469   1.078   4.998   6.701 -1.7358  0.4130 -0.9488
13660TIP3   OH262470   0.595   2.543   2.089  0.4838 -0.0228  0.6137
13660TIP3    H162471   0.570   2.591   2.009  0.6511  2.6216  2.0391
13660TIP3    H262472   0.546   2.461   2.083  1.3656 -0.4835 -2.7374
13661TIP3   OH262473   5.321   3.944   5.202  0.6871 -0.5538  0.1467
13661TIP3    H162474   5.305   4.016   5.142  0.5823 -0.3265  0.4457
13661TIP3    H262475   5.258   3.877   5.177  0.5733 -0.4184  0.0731
13662TIP3   OH262476   1.387   0.183   2.307  0.2734 -0.1981 -0.1858
13662TIP3    H162477   1.439   0.191   2.387  0.7213 -0.0758 -0.4815
13662TIP3    H262478   1.344   0.268   2.297 -0.9704 -0.6878  0.7123
13663TIP3   OH262479   4.674   5.546   5.079  1.0714 -0.1780 -0.7648
13663TIP3    H162480   4.601   5.539   5.017  1.5553 -1.8039 -1.2111
13663TIP3    H262481   4.751   5.552   5.023  1.3935  0.0143 -0.2982
13664TIP3   OH262482   5.231   0.280   0.077 -0.1897 -0.1346  0.2249
13664TIP3    H162483   5.199   0.345   0.139  0.8789  0.4199  0.2161
13664TIP3    H262484   5.274   0.330   0.008  0.5992 -0.8279  0.1860
13665TIP3   OH262485   0.479   3.471  11.450 -0.5181  0.1496  0.0192
13665TIP3    H162486   0.563   3.480  11.496  0.3940  0.1413 -1.5574
13665TIP3    H262487   0.435   3.555  11.464  2.1723  2.4707 -3.5614
13666TIP3   OH262488   2.749   6.298   5.635 -0.2533 -0.1588 -0.4690
13666TIP3    H162489   2.793   6.327   5.715 -1.7433 -0.3368  0.4678
13666TIP3    H262490   2.659   6.328   5.646 -1.0360 -2.1519 -1.0405
13667TIP3   OH262491   3.305   4.718   2.017  0.7408 -0.1316 -0.3066
13667TIP3    H162492   3.231   4.777   2.003  1.9671  0.8653 -3.3833
13667TIP3    H262493   3.342   4.745   2.102 -0.9783  0.9227  0.1577
13668TIP3   OH262494   3.403   0.662  12.471  0.3346 -0.0004  0.0918
13668TIP3    H162495   3.308   0.655  12.466  0.2874 -0.3912  1.1451
13668TIP3    H262496   3.425   0.737  12.415 -0.5635 -0.0534 -0.3489
13669TIP3   OH262497   1.759   2.770   1.847 -0.1131 -0.1495  0.2817
13669TIP3    H162498   1.669   2.760   1.814  0.3974 -0.6455 -1.0262
13669TIP3    H262499   1.753   2.843   1.909 -1.3908 -0.0754  0.1132
13670TIP3   OH262500   3.625   0.813   2.472 -0.1762  0.1291  0.1775
13670TIP3    H162501   3.623   0.763   2.554 -1.7814 -2.4113 -1.2532
13670TIP3    H262502   3.535   0.846   2.462  0.9104  3.8902  1.2641
13671TIP3   OH262503   6.666   0.508   4.707 -0.6941  0.7218 -0.0806
13671TIP3    H162504   6.619   0.426   4.698  0.6402 -0.1251  0.3175
13671TIP3    H262505   6.691   0.532   4.618 -2.6896  1.7184 -0.4181
13672TIP3   OH262506   6.308   3.310   1.434  0.3802 -0.1722 -0.0603
13672TIP3    H162507   6.323   3.217   1.414  0.2740 -0.2459  0.1877
13672TIP3    H262508   6.382   3.334   1.490 -0.3116 -0.4882  1.0166
13673TIP3   OH262509   6.675   2.265   3.007  0.5963  0.8864 -0.0059
13673TIP3    H162510   6.612   2.195   3.027  0.7278  0.4205 -1.1669
13673TIP3    H262511   6.671   2.323   3.083 -1.9663  1.3954 -0.4451
13674TIP3   OH262512   4.114   4.980   5.784  0.8786 -0.8010  0.3944
13674TIP3    H162513   4.179   4.941   5.724  1.4263 -0.3069  0.6517
13674TIP3    H262514   4.105   4.917   5.854  1.7299 -0.5090  0.7866
13675TIP3   OH262515   3.464   3.468  13.475 -0.0233 -0.0887  0.6458
13675TIP3    H162516   3.528   3.437  13.410  0.3176  0.8961  0.4847
13675TIP3    H262517   3.485   3.419  13.554  0.3598 -0.4204  0.3477
13676TIP3   OH262518   4.205   6.793  16.920 -0.4769 -0.1965  0.1048
13676TIP3    H162519   4.278   6.853  16.935 -1.2806  0.5942  1.0195
13676TIP3    H262520   4.217   6.723  16.985 -1.8906  1.2798  2.1077
13677TIP3   OH262521   2.015   5.176  14.225  0.0561 -0.2106  0.1164
13677TIP3    H162522   2.018   5.109  14.157  0.1630  2.7386 -3.0853
13677TIP3    H262523   2.085   5.153  14.286  0.8299 -2.3441 -1.4839
13678TIP3   OH262524   4.633   4.223  16.533  0.1405 -0.3299 -0.6089
13678TIP3    H162525   4.711   4.230  16.587 -0.3209 -1.0611  0.1939
13678TIP3    H262526   4.665   4.201  16.446  0.8084 -1.1945 -0.1553
13679TIP3   OH262527   6.251   1.323   2.897  0.0392 -0.3672  0.5305
13679TIP3    H162528   6.179   1.383   2.880 -0.0996 -0.8610 -0.7958
13679TIP3    H262529   6.229   1.280   2.979 -0.4551  0.5189  0.8691
13680TIP3   OH262530   4.752   2.624  14.757 -0.2614  0.4446  0.0027
13680TIP3    H162531   4.710   2.539  14.769 -0.7131  0.3938 -1.6451
13680TIP3    H262532   4.679   2.685  14.744  0.1007  0.6180 -1.3746
13681TIP3   OH262533   1.948   6.350  11.551 -0.0302  0.0323  0.7850
13681TIP3    H162534   2.003   6.281  11.588 -1.7456 -0.7406  2.0692
13681TIP3    H262535   2.004   6.427  11.548  1.3173 -0.8805  1.3183
13682TIP3   OH262536   2.744   6.147   4.086 -0.2400  0.7220 -0.6344
13682TIP3    H162537   2.740   6.150   3.990  0.2151 -1.3058 -0.7672
13682TIP3    H262538   2.809   6.080   4.105  0.6725  2.0161  1.1304
13683TIP3   OH262539   2.456   2.152  16.005  0.2055 -0.4447 -0.6738
13683TIP3    H162540   2.463   2.245  16.026  1.0846 -0.7816  0.7403
13683TIP3    H262541   2.442   2.149  15.911 -2.3645  1.1835 -0.4281
13684TIP3   OH262542   3.023   0.891   1.953 -0.2680 -0.1033  0.4984
13684TIP3    H162543   3.031   0.891   2.049  0.7310 -2.5942  0.5025
13684TIP3    H262544   3.042   0.801   1.928 -1.9895  0.1190 -1.9712
13685TIP3   OH262545   3.036   2.741   2.130  0.2301  0.4739 -0.1192
13685TIP3    H162546   3.087   2.675   2.177 -2.0612 -1.8013 -0.6093
13685TIP3    H262547   3.076   2.745   2.043 -1.6892 -3.0937 -1.3239
13686TIP3   OH262548   2.884   5.692   2.996 -0.6194 -0.0329  0.2308
13686TIP3    H162549   2.936   5.657   2.924  0.1046  0.2677  0.5936
13686TIP3    H262550   2.850   5.615   3.042  2.8302 -0.4857  2.4126
13687TIP3   OH262551   2.576   4.285   5.163  0.0116 -0.1616 -0.3837
13687TIP3    H162552   2.514   4.279   5.235 -1.3135  2.6494 -1.1534
13687TIP3    H262553   2.609   4.195   5.152 -1.2914 -1.0689  2.2998
13688TIP3   OH262554   4.763   6.128  14.918  0.6416  0.1495  0.1514
13688TIP3    H162555   4.789   6.199  14.977  0.8092  0.9828 -0.8912
13688TIP3    H262556   4.836   6.066  14.923 -0.2777 -0.8755  2.4147
13689TIP3   OH262557   1.010   1.877   5.403 -1.2050 -0.4139  0.8163
13689TIP3    H162558   1.083   1.934   5.376 -1.7712 -1.3077 -3.2826
13689TIP3    H262559   1.047   1.823   5.472  1.6835  0.0432 -0.2062
13690TIP3   OH262560   1.058   5.984   0.619 -0.1511  0.7187 -0.4852
13690TIP3    H162561   1.011   5.941   0.547 -1.4325 -0.6139  1.0682
13690TIP3    H262562   0.994   5.988   0.690  1.7370 -0.1502  1.3660
13691TIP3   OH262563   2.896   2.114  11.943  0.5157  0.2355 -0.2773
13691TIP3    H162564   2.840   2.179  11.901  0.6273  0.1740 -0.5228
13691TIP3    H262565   2.857   2.030  11.920 -1.2043  0.2375  2.2114
13692TIP3   OH262566   6.651   0.548  14.860 -0.3280 -0.6204 -0.0019
13692TIP3    H162567   6.673   0.513  14.947  0.4467  0.2455  0.1759
13692TIP3    H262568   6.731   0.538  14.809 -0.6194 -0.6468 -0.4592
13693TIP3   OH262569   1.705   1.521  17.012 -0.5407 -0.0766  0.3636
13693TIP3    H162570   1.738   1.516  17.102 -0.9722  0.4336  0.5530
13693TIP3    H262571   1.747   1.598  16.975 -0.4323 -0.2348  0.1525
13694TIP3   OH262572   5.206   5.382  16.111  0.1294  0.4047 -0.7997
13694TIP3    H162573   5.115   5.373  16.142 -0.0976 -1.5203 -1.8861
13694TIP3    H262574   5.199   5.433  16.031  0.0838  0.6831 -0.6218
13695TIP3   OH262575   5.314   2.415  16.304  0.1984  0.2145 -0.5172
13695TIP3    H162576   5.301   2.506  16.332 -1.8593  0.1606 -1.1360
13695TIP3    H262577   5.292   2.363  16.382  0.9438  0.2235 -0.2945
13696TIP3   OH262578   3.820   1.861   1.492  0.2448 -0.0077  0.2850
13696TIP3    H162579   3.835   1.911   1.412  0.5564  0.1120  0.4149
13696TIP3    H262580   3.895   1.882   1.548 -0.2287  0.3001  0.8089
13697TIP3   OH262581   0.660   6.352  11.247 -0.5393  0.2236 -0.3358
13697TIP3    H162582   0.647   6.374  11.339 -0.2694  0.8041 -0.4356
13697TIP3    H262583   0.571   6.335  11.214 -0.7790  1.3705 -0.3104
13698TIP3   OH262584   2.490   6.428  11.097 -0.3181 -0.1601 -0.6095
13698TIP3    H162585   2.432   6.445  11.022  0.3568  1.3382 -0.8301
13698TIP3    H262586   2.575   6.410  11.059  0.5101  2.5421 -0.2349
13699TIP3   OH262587   3.501   4.914  11.635 -0.1735 -0.2795 -0.4503
13699TIP3    H162588   3.520   4.858  11.560 -0.1423 -1.4772  0.4228
13699TIP3    H262589   3.575   4.974  11.640 -0.0675 -0.3359 -1.2311
13700TIP3   OH262590   2.198   0.336   5.662  0.0096  0.2534  0.3686
13700TIP3    H162591   2.288   0.311   5.643 -0.0063  0.5058 -0.0638
13700TIP3    H262592   2.191   0.426   5.630 -0.4425  0.1733  0.2271
13701TIP3   OH262593   0.823   3.018   3.915  0.0249  0.3208 -0.0463
13701TIP3    H162594   0.738   3.049   3.886 -0.4722  0.0263  1.0313
13701TIP3    H262595   0.804   2.958   3.987  1.1859  2.7415  2.5281
13702TIP3   OH262596   2.292   5.552   0.913 -0.1201 -0.1726  0.3243
13702TIP3    H162597   2.331   5.640   0.908  0.9256 -0.6660 -0.8535
13702TIP3    H262598   2.286   5.524   0.822  0.2393 -1.6158  0.7294
13703TIP3   OH262599   1.825   1.230  14.788 -0.5644  0.3003 -0.0118
13703TIP3    H162600   1.737   1.233  14.825 -0.9025  0.0065 -0.7666
13703TIP3    H262601   1.815   1.179  14.707 -0.1225  1.9981 -1.1935
13704TIP3   OH262602   1.725   2.863  11.714  0.0987  0.4420  0.4480
13704TIP3    H162603   1.753   2.772  11.705 -1.3704 -0.1420  1.3727
13704TIP3    H262604   1.685   2.885  11.630  1.0561  0.4863 -0.0144
13705TIP3   OH262605   3.436   6.169  11.168 -0.1192  0.3846 -0.0955
13705TIP3    H162606   3.363   6.221  11.135 -0.5675 -1.2621 -1.8598
13705TIP3    H262607   3.399   6.122  11.243 -0.2711  1.0565  0.2623
13706TIP3   OH262608   1.935   0.870   2.491  0.0346  0.2797  0.6321
13706TIP3    H162609   1.846   0.842   2.513  0.3011 -0.5706  0.6448
13706TIP3    H262610   1.938   0.962   2.519 -1.6410  1.1476 -1.6611
13707TIP3   OH262611   4.314   4.335  15.924 -0.6123 -0.1135  0.3155
13707TIP3    H162612   4.361   4.261  15.887  0.1915 -0.0432  1.1708
13707TIP3    H262613   4.376   4.408  15.919 -1.5522  0.6481 -0.9591
13708TIP3   OH262614   5.827   2.445   2.483  0.0496  0.0712 -0.4719
13708TIP3    H162615   5.794   2.486   2.403 -0.0299  1.3549  0.1832
13708TIP3    H262616   5.920   2.430   2.466  0.8069  3.1756  0.2001
13709TIP3   OH262617   0.792   0.822  16.833 -0.3694 -0.5546  0.4000
13709TIP3    H162618   0.764   0.756  16.770  1.7211  1.2525 -2.7370
13709TIP3    H262619   0.880   0.795  16.859 -0.4248 -0.2295  0.9506
13710TIP3   OH262620   0.086   6.257  11.710  0.2222 -0.2811 -0.2625
13710TIP3    H162621   0.061   6.266  11.802 -0.2657  0.7392 -0.4838
13710TIP3    H262622   0.032   6.185  11.678 -0.2633 -0.0524  0.0260
13711TIP3   OH262623   0.323   0.637  14.089 -0.2061  0.0286  0.3340
13711TIP3    H162624   0.416   0.630  14.069  0.3223  1.1019  2.1432
13711TIP3    H262625   0.292   0.710  14.035  0.2839  0.3964  0.5414
13712TIP3   OH262626   2.171   0.539  11.902  0.5442  0.4427 -0.5419
13712TIP3    H162627   2.152   0.540  11.996  0.2117 -0.8631 -0.5794
13712TIP3    H262628   2.128   0.617  11.868  0.7215  0.9606  0.3966
13713TIP3   OH262629   2.904   6.254  11.750 -0.0924  0.0842  0.0571
13713TIP3    H162630   2.841   6.182  11.749 -0.2026  0.1846 -0.6394
13713TIP3    H262631   2.905   6.286  11.660 -0.0645  0.9777  0.3725
13714TIP3   OH262632   3.455   0.063   1.365  0.3889  0.1162 -0.5577
13714TIP3    H162633   3.379   0.106   1.404  1.0097  1.3517 -0.6776
13714TIP3    H262634   3.464   0.103   1.279 -0.4450 -1.9696 -1.6950
13715TIP3   OH262635   6.469   4.506  15.403 -0.0115  0.1066  0.4105
13715TIP3    H162636   6.382   4.536  15.429  0.1508  0.8323  0.1326
13715TIP3    H262637   6.525   4.532  15.476 -0.0668 -0.6231  0.7247
13716TIP3   OH262638   1.025   0.258  16.173 -0.6661 -0.3716 -0.4474
13716TIP3    H162639   0.945   0.272  16.123 -0.2852 -1.0737 -1.2778
13716TIP3    H262640   1.095   0.256  16.107 -0.1546 -1.3169  0.0996
13717TIP3   OH262641   3.323   1.363  16.710 -0.4511  0.3592 -0.0929
13717TIP3    H162642   3.404   1.348  16.662  1.7336  1.5141  2.9291
13717TIP3    H262643   3.305   1.456  16.698 -2.4937 -0.2150 -2.2301
13718TIP3   OH262644   1.038   6.136   2.958  0.2221  0.5803 -0.4140
13718TIP3    H162645   0.956   6.146   2.911 -1.4394  1.3682  2.4094
13718TIP3    H262646   1.015   6.087   3.037  1.8425  2.9621  1.7168
13719TIP3   OH262647   5.433   1.155   2.259  0.6532  0.2485 -0.6539
13719TIP3    H162648   5.424   1.166   2.354 -0.7148  1.0177 -0.8569
13719TIP3    H262649   5.344   1.153   2.226  1.0503 -1.9911 -1.7479
13720TIP3   OH262650   6.811   2.932   5.591 -0.6816  0.2957 -0.1487
13720TIP3    H162651   6.768   2.854   5.557 -1.7266  0.8201 -0.0780
13720TIP3    H262652   6.756   2.961   5.664  1.2871 -0.5649  1.7865
13721TIP3   OH262653   4.378   6.330  13.277  0.2791 -0.1558  0.8036
13721TIP3    H162654   4.309   6.352  13.215  2.0477  1.5872 -0.6247
13721TIP3    H262655   4.443   6.283  13.226  1.1384  0.0834  1.6464
13722TIP3   OH262656   4.902   5.932  12.146  0.3560  0.4576  0.4738
13722TIP3    H162657   4.922   5.847  12.185  3.7209  1.2784  0.9216
13722TIP3    H262658   4.922   5.920  12.053 -0.4662  0.4312  0.2967
13723TIP3   OH262659   5.964   4.208  12.955 -0.2658  0.1436 -0.3956
13723TIP3    H162660   5.971   4.278  13.020 -0.9097  1.0541 -1.2705
13723TIP3    H262661   5.897   4.149  12.991  0.6280 -0.3205  0.5799
13724TIP3   OH262662   1.302   3.787   1.957 -0.1517  0.3707 -0.3245
13724TIP3    H162663   1.372   3.844   1.926 -0.5322  1.4829  0.7428
13724TIP3    H262664   1.334   3.753   2.041  0.4712 -1.8206 -1.3831
13725TIP3   OH262665   5.706   4.186   3.277 -0.6013 -0.3835  0.0491
13725TIP3    H162666   5.743   4.160   3.193  0.9265  3.8125 -0.8553
13725TIP3    H262667   5.769   4.155   3.342  1.9401  2.0439 -1.0522
13726TIP3   OH262668   1.207   6.151   4.603 -0.2247 -0.1519 -0.0041
13726TIP3    H162669   1.169   6.195   4.680  1.3767  0.3577  0.5566
13726TIP3    H262670   1.139   6.091   4.573 -1.4266  0.6771  0.9491
13727TIP3   OH262671   1.882   3.761   6.096 -0.4736 -0.3973  1.1791
13727TIP3    H162672   1.958   3.799   6.051 -1.0851 -1.0997 -0.5245
13727TIP3    H262673   1.862   3.823   6.166 -1.1889  2.2836 -1.2144
13728TIP3   OH262674   6.585   5.112   0.390  0.0017  0.1295  0.1439
13728TIP3    H162675   6.659   5.124   0.450  0.7571 -1.5025 -0.3959
13728TIP3    H262676   6.524   5.056   0.438 -0.4652  0.7348  0.2537
13729TIP3   OH262677   0.233   3.200  12.098  0.1953 -0.1462  0.0528
13729TIP3    H162678   0.255   3.247  12.018  0.9426 -1.0862 -0.3242
13729TIP3    H262679   0.151   3.156  12.078  0.5063 -0.5765 -0.2967
13730TIP3   OH262680   0.042   6.496   3.513 -0.9214 -0.0540  0.2285
13730TIP3    H162681   0.103   6.538   3.453 -1.7974  0.6887 -0.1686
13730TIP3    H262682   0.045   6.549   3.593 -0.2381 -0.6620  0.6148
13731TIP3   OH262683   5.891   5.557  14.397 -0.0709 -0.9735 -0.0822
13731TIP3    H162684   5.972   5.604  14.378 -1.6761  2.2312  0.2964
13731TIP3    H262685   5.875   5.572  14.490 -2.2902  0.7309 -0.6349
13732TIP3   OH262686   5.431   5.420  15.246 -0.6454 -0.2152 -0.0832
13732TIP3    H162687   5.404   5.328  15.253 -1.8590  0.1110 -0.3718
13732TIP3    H262688   5.419   5.442  15.154 -2.6560  0.8984  0.3866
13733TIP3   OH262689   1.907   1.137   0.770  0.2528  0.5198  0.1261
13733TIP3    H162690   1.952   1.117   0.853 -0.3972  2.4658  1.0183
13733TIP3    H262691   1.965   1.104   0.702  0.2582 -2.2308  1.3351
13734TIP3   OH262692   0.530   1.283   2.985 -0.1453 -0.2063 -0.5946
13734TIP3    H162693   0.588   1.265   2.911  1.2047 -1.2500  0.6328
13734TIP3    H262694   0.568   1.232   3.057  0.0720  2.6808  1.4839
13735TIP3   OH262695   4.955   0.083  12.347  0.7533 -0.0946  0.2293
13735TIP3    H162696   5.029   0.138  12.322  1.1259 -1.0221 -0.7497
13735TIP3    H262697   4.905   0.071  12.266  1.0329 -1.7223  0.2654
13736TIP3   OH262698   5.423   1.249   4.573 -0.3832 -0.3090  0.2684
13736TIP3    H162699   5.353   1.305   4.608 -1.2909  0.4114 -2.4308
13736TIP3    H262700   5.377   1.181   4.525  0.7865 -0.8115 -0.1598
13737TIP3   OH262701   4.004   6.747   3.601 -0.1284  0.0810  0.0988
13737TIP3    H162702   4.044   6.665   3.630 -0.3670  0.2946  1.0537
13737TIP3    H262703   3.926   6.720   3.552  0.9967 -0.3314 -1.5482
13738TIP3   OH262704   3.476   4.127  16.522  0.3197  0.4303 -0.0205
13738TIP3    H162705   3.388   4.153  16.498  0.8462  2.5151  0.0792
13738TIP3    H262706   3.532   4.197  16.488  1.6395  0.6531  2.3601
13739TIP3   OH262707   5.732   2.229   1.241 -0.4127  0.1538  0.0666
13739TIP3    H162708   5.781   2.292   1.294  1.5031  0.1809 -1.6173
13739TIP3    H262709   5.794   2.201   1.174 -2.3575 -0.7661 -1.4531
13740TIP3   OH262710   3.176   3.940  11.638  0.2469  0.0757 -1.1701
13740TIP3    H162711   3.189   3.854  11.597 -1.9616 -0.9097  0.0018
13740TIP3    H262712   3.096   3.974  11.597 -0.0449  0.6242 -0.1874
13741TIP3   OH262713   0.304   0.555  12.958  0.4188  0.1228 -0.0419
13741TIP3    H162714   0.362   0.617  13.002  0.5153  0.8013 -1.0938
13741TIP3    H262715   0.356   0.519  12.887 -0.6389  1.3147 -1.4917
13742TIP3   OH262716   5.428   6.418   1.071 -0.1893  0.0275  0.5314
13742TIP3    H162717   5.453   6.497   1.120 -1.8173  0.7106  0.3158
13742TIP3    H262718   5.364   6.375   1.127  0.2312 -0.8363  0.3598
13743TIP3   OH262719   2.644   2.892  15.014 -0.3318 -0.4867 -0.0165
13743TIP3    H162720   2.632   2.947  14.937  1.9890  0.7650  0.4359
13743TIP3    H262721   2.598   2.939  15.084  1.2637  0.7114  0.2698
13744TIP3   OH262722   3.419   3.403   4.677 -0.2196 -0.1705 -0.5798
13744TIP3    H162723   3.416   3.488   4.721  0.5463 -0.3654 -0.1356
13744TIP3    H262724   3.405   3.424   4.585 -0.0966  0.4311 -0.4692
13745TIP3   OH262725   0.754   4.198   2.446 -0.3046  0.3502  0.2292
13745TIP3    H162726   0.802   4.249   2.512  0.9324  0.9325 -1.0777
13745TIP3    H262727   0.791   4.226   2.363 -1.2448 -1.0003 -0.6728
13746TIP3   OH262728   5.972   3.896  12.935  0.4821  0.0981  0.1870
13746TIP3    H162729   6.048   3.942  12.972 -0.8366  1.3292  1.5160
13746TIP3    H262730   5.946   3.834  13.003  1.6329 -2.0192 -1.1921
13747TIP3   OH262731   3.993   6.388  12.423 -0.5924  0.6361  0.1763
13747TIP3    H162732   3.952   6.302  12.419  0.7360 -0.0739  0.8284
13747TIP3    H262733   4.079   6.371  12.462  0.7727  1.8621 -2.1057
13748TIP3   OH262734   1.220   3.818   1.011 -0.2519  0.1514  0.1919
13748TIP3    H162735   1.255   3.867   0.937  1.0060  1.1528  1.4142
13748TIP3    H262736   1.144   3.869   1.040  0.1499  0.5666  0.5185
13749TIP3   OH262737   1.594   1.323  16.159 -0.0499 -0.2287  0.1142
13749TIP3    H162738   1.584   1.235  16.123 -0.7756 -0.9436  1.9696
13749TIP3    H262739   1.506   1.360  16.159 -0.3113 -0.7380  2.2699
13750TIP3   OH262740   4.478   2.520   5.258  0.3079 -0.2394 -0.1021
13750TIP3    H162741   4.570   2.539   5.270 -0.0892  1.9695 -0.1069
13750TIP3    H262742   4.451   2.576   5.185 -0.8589 -1.5034 -0.7042
13751TIP3   OH262743   5.507   1.338   1.396  0.2256 -0.2831  0.0972
13751TIP3    H162744   5.476   1.413   1.347  0.4840 -1.0714 -1.3184
13751TIP3    H262745   5.600   1.355   1.409  0.1917 -0.1519  0.1713
13752TIP3   OH262746   5.732   0.740  13.151 -0.5461 -0.1131  0.1089
13752TIP3    H162747   5.654   0.789  13.123  0.1381  0.7584 -0.3183
13752TIP3    H262748   5.766   0.701  13.070 -0.3076 -0.1556  0.2306
13753TIP3   OH262749   6.208   2.970   1.646 -0.5394 -0.1115  0.0402
13753TIP3    H162750   6.299   2.946   1.629 -0.3420  0.6303 -0.0250
13753TIP3    H262751   6.213   3.063   1.670 -1.0118 -0.5780  2.1921
13754TIP3   OH262752   2.819   1.619   0.683 -0.0698 -0.2328 -0.3103
13754TIP3    H162753   2.848   1.707   0.710 -0.0166 -0.4672  0.4171
13754TIP3    H262754   2.899   1.567   0.682 -0.0874 -0.2559 -0.8396
13755TIP3   OH262755   5.106   6.322  10.340 -0.0307  0.2979 -0.5400
13755TIP3    H162756   5.085   6.253  10.277  1.3244 -1.6713  1.0458
13755TIP3    H262757   5.028   6.328  10.396  0.8634 -2.1592  1.1374
13756TIP3   OH262758   6.184   5.931   1.229 -0.4084 -0.1040 -0.2192
13756TIP3    H162759   6.268   5.952   1.270 -0.1648 -1.9904  0.3691
13756TIP3    H262760   6.124   5.920   1.302 -1.1674  1.1299 -0.6365
13757TIP3   OH262761   1.029   4.313  13.653 -0.4890 -0.0605  0.2857
13757TIP3    H162762   1.039   4.400  13.614  0.4315 -0.1194  0.3780
13757TIP3    H262763   1.111   4.268  13.632 -1.4184 -1.3234 -0.7974
13758TIP3   OH262764   0.367   2.292  15.409 -0.4739 -0.1037 -0.5757
13758TIP3    H162765   0.388   2.225  15.344 -0.4420  0.6377 -1.3507
13758TIP3    H262766   0.451   2.333  15.429 -0.8295  1.6806 -2.3564
13759TIP3   OH262767   1.859   4.541   5.892 -0.0301 -0.2236 -0.1822
13759TIP3    H162768   1.800   4.542   5.968  0.5632 -3.0300  0.4373
13759TIP3    H262769   1.803   4.516   5.819 -0.0191 -0.7863 -0.0041
13760TIP3   OH262770   4.243   2.560   1.383 -0.2565  0.1250  0.5030
13760TIP3    H162771   4.221   2.522   1.297  1.3006  0.8541 -0.2504
13760TIP3    H262772   4.209   2.497   1.446  1.4438 -2.1163 -0.6868
13761TIP3   OH262773   3.632   6.055  16.723  0.0422  0.4191  0.0677
13761TIP3    H162774   3.567   6.125  16.713  0.7569  1.3245  1.4166
13761TIP3    H262775   3.627   6.006  16.641 -0.7182  1.8579 -0.7909
13762TIP3   OH262776   5.546   2.478  16.566  0.2788 -0.6404 -0.1856
13762TIP3    H162777   5.476   2.423  16.602 -0.7869 -0.9267 -2.4960
13762TIP3    H262778   5.509   2.566  16.562  0.8229 -0.3654  0.4686
13763TIP3   OH262779   3.403   2.081  13.877 -0.8220  0.4504 -0.5568
13763TIP3    H162780   3.429   1.994  13.846 -0.4237 -0.2642  1.5667
13763TIP3    H262781   3.466   2.141  13.836 -0.1555 -0.4517 -0.8829
13764TIP3   OH262782   1.451   6.118  13.486  0.4839  0.1447 -0.0253
13764TIP3    H162783   1.383   6.180  13.510 -0.4894 -0.9342  0.0905
13764TIP3    H262784   1.482   6.083  13.570  2.2228  1.6468  0.0299
13765TIP3   OH262785   1.790   1.068  14.572 -0.2041 -0.6056  0.4221
13765TIP3    H162786   1.836   1.019  14.504 -1.1291  1.5905 -1.9586
13765TIP3    H262787   1.700   1.075  14.539  0.0570  3.3712  0.0495
13766TIP3   OH262788   6.655   1.578  14.939  0.6431 -0.3563 -0.5321
13766TIP3    H162789   6.705   1.501  14.968  0.6287 -0.4988 -0.8784
13766TIP3    H262790   6.701   1.607  14.859  0.4407 -0.2150 -0.5968
13767TIP3   OH262791   0.468   6.015   1.360  0.2048  0.4957 -0.0636
13767TIP3    H162792   0.537   5.950   1.347 -0.7093 -0.4198 -0.5372
13767TIP3    H262793   0.430   6.028   1.273 -0.3109  0.8776  0.2097
13768TIP3   OH262794   5.838   3.075  11.363 -0.1194  0.5764 -0.2455
13768TIP3    H162795   5.900   3.029  11.420  2.0458  1.7990 -1.4719
13768TIP3    H262796   5.776   3.008  11.335 -0.0824 -0.4486  1.9519
13769TIP3   OH262797   0.718   0.957  14.153 -0.2421  0.0949  1.1661
13769TIP3    H162798   0.789   0.995  14.102  0.5563 -1.3954  1.1110
13769TIP3    H262799   0.690   1.027  14.212  3.4724 -0.1696  3.5258
13770TIP3   OH262800   4.484   5.087  11.745  0.0329  0.4868 -0.1013
13770TIP3    H162801   4.516   5.089  11.835  1.3082  1.1889 -0.5334
13770TIP3    H262802   4.559   5.117  11.693 -0.3293 -0.9330 -1.5052
13771TIP3   OH262803   4.083   4.390  16.324 -0.0353  0.2954 -0.9773
13771TIP3    H162804   4.084   4.417  16.416  0.5690 -1.6830 -0.3476
13771TIP3    H262805   3.992   4.366  16.307  0.2643 -1.6969 -0.0836
13772TIP3   OH262806   2.520   4.885  14.967  0.2659  0.0213  0.0939
13772TIP3    H162807   2.615   4.879  14.955  0.3679  1.9042 -0.4106
13772TIP3    H262808   2.510   4.931  15.051 -0.2024 -0.2353  0.1820
13773TIP3   OH262809   2.410   2.757   0.913  0.3091  0.5866 -0.2700
13773TIP3    H162810   2.318   2.758   0.941  0.3837  0.6168 -0.0304
13773TIP3    H262811   2.444   2.842   0.941  0.5296  0.3997  0.0259
13774TIP3   OH262812   1.127   1.434  15.096  0.0974 -0.2482 -0.2960
13774TIP3    H162813   1.157   1.523  15.116 -1.1548 -0.0629  0.9356
13774TIP3    H262814   1.080   1.406  15.175  1.0246 -2.2794 -0.3939
13775TIP3   OH262815   4.785   4.166  15.071  0.0179  0.5377 -0.0504
13775TIP3    H162816   4.694   4.145  15.093 -0.5437  1.6218 -1.2129
13775TIP3    H262817   4.822   4.083  15.042 -0.7540  0.1877 -0.0664
13776TIP3   OH262818   2.377   1.190   1.904 -0.0765  0.4500  0.1823
13776TIP3    H162819   2.292   1.231   1.922  0.1867  1.1672 -0.1719
13776TIP3    H262820   2.440   1.245   1.950  0.3376  0.7734 -0.7503
13777TIP3   OH262821   1.199   5.592   4.878  0.1689  0.3267  0.4242
13777TIP3    H162822   1.239   5.582   4.964  1.4864  0.2301 -0.1835
13777TIP3    H262823   1.198   5.687   4.863  3.0524  0.2662 -0.8188
13778TIP3   OH262824   3.418   2.141  16.728 -0.1026 -0.0450 -0.0417
13778TIP3    H162825   3.369   2.188  16.796  0.0677 -2.1653  1.6713
13778TIP3    H262826   3.428   2.204  16.657  0.7778  2.7776  2.3647
13779TIP3   OH262827   3.969   2.876   0.259 -0.1198 -0.5989  0.6602
13779TIP3    H162828   3.909   2.864   0.186 -1.1503  0.4211  1.2842
13779TIP3    H262829   3.942   2.960   0.298 -0.6291 -1.8015  3.1147
13780TIP3   OH262830   2.628   1.659   5.536  0.3869  0.8340  0.3285
13780TIP3    H162831   2.572   1.725   5.578  1.1825  1.3616  0.5964
13780TIP3    H262832   2.635   1.688   5.445 -3.7712 -1.9011 -1.1345
13781TIP3   OH262833   6.373   6.170   2.748 -0.3268 -0.1066  0.2568
13781TIP3    H162834   6.378   6.076   2.733 -2.6800 -0.2345 -0.1455
13781TIP3    H262835   6.385   6.208   2.661  0.5870 -0.0066  0.4139
13782TIP3   OH262836   4.607   0.730   2.422 -1.1571  0.0528 -0.0235
13782TIP3    H162837   4.578   0.667   2.487 -0.6376 -0.3130 -0.1439
13782TIP3    H262838   4.603   0.683   2.339  1.4228 -0.6063  0.1441
13783TIP3   OH262839   2.432   3.706   5.623  0.5916 -0.1971 -0.1373
13783TIP3    H162840   2.371   3.757   5.676 -0.7460 -0.9963 -0.8379
13783TIP3    H262841   2.485   3.659   5.687 -1.8590 -2.1663  0.6262
13784TIP3   OH262842   2.090   0.054   3.061 -0.2742 -0.0257  0.1821
13784TIP3    H162843   2.174   0.060   3.106 -0.1044  0.9781 -0.2555
13784TIP3    H262844   2.050   0.140   3.072 -0.6131 -0.0387 -0.8284
13785TIP3   OH262845   1.442   6.300  12.940 -0.6026  0.1520 -0.0585
13785TIP3    H162846   1.502   6.371  12.963 -1.8124  1.0954  0.2891
13785TIP3    H262847   1.361   6.345  12.914 -1.2952 -1.0945 -0.1131
13786TIP3   OH262848   5.501   4.475   1.357 -0.1360 -0.6940  0.2013
13786TIP3    H162849   5.480   4.406   1.294 -0.7273 -0.3675  0.0325
13786TIP3    H262850   5.420   4.525   1.365 -1.0288 -2.4009  3.3983
13787TIP3   OH262851   6.318   4.939  13.034 -0.1850  0.0222 -0.2090
13787TIP3    H162852   6.266   5.007  12.993  0.3876 -0.1378 -1.2251
13787TIP3    H262853   6.254   4.875  13.065 -0.6946  0.7736  0.3218
13788TIP3   OH262854   2.304   5.004  15.161  0.6290 -0.1257  0.2723
13788TIP3    H162855   2.276   4.940  15.226 -1.4711 -1.4315 -1.7604
13788TIP3    H262856   2.383   5.043  15.199 -0.3020 -0.9878  3.4045
13789TIP3   OH262857   4.895   5.065   3.434 -0.9389 -0.5922  0.1660
13789TIP3    H162858   4.962   5.031   3.493  1.4024  0.1360 -1.8812
13789TIP3    H262859   4.905   5.160   3.439 -0.7508 -0.5103 -1.2309
13790TIP3   OH262860   3.360   6.721   3.334 -0.1882  0.5400 -0.3532
13790TIP3    H162861   3.270   6.692   3.322 -0.0522  0.2691 -0.7637
13790TIP3    H262862   3.380   6.703   3.426  0.3878 -2.1721 -0.9222
13791TIP3   OH262863   3.687   4.412   1.324  0.4988 -0.2509  0.1347
13791TIP3    H162864   3.605   4.430   1.370  0.9450  1.2485  0.4221
13791TIP3    H262865   3.672   4.445   1.236  0.2537 -1.4943 -0.3095
13792TIP3   OH262866   0.316   5.932   5.327 -0.2114 -0.5594 -0.1363
13792TIP3    H162867   0.293   6.019   5.362  1.8663 -0.5210  1.2667
13792TIP3    H262868   0.395   5.947   5.276  0.5143 -1.7227  0.6179
13793TIP3   OH262869   4.227   4.403  12.483  0.0704 -0.0112 -0.3176
13793TIP3    H162870   4.144   4.357  12.490  0.2560 -0.4318 -0.7883
13793TIP3    H262871   4.260   4.408  12.572 -0.1875 -0.3485 -0.2031
13794TIP3   OH262872   1.016   0.972  12.410  0.0535  0.0038  0.2198
13794TIP3    H162873   0.952   1.028  12.367  0.5968 -0.3093 -1.0357
13794TIP3    H262874   0.993   0.977  12.503 -1.2436  0.5812 -0.1037
13795TIP3   OH262875   6.341   5.715  16.908 -0.7027 -0.3395  0.4326
13795TIP3    H162876   6.264   5.682  16.955 -0.7498 -2.4960 -1.0011
13795TIP3    H262877   6.305   5.766  16.836 -0.6366  2.2066  2.0451
13796TIP3   OH262878   1.606   6.107   3.567 -0.3747  0.3942 -0.3621
13796TIP3    H162879   1.519   6.099   3.528  0.2699 -0.1373 -1.7691
13796TIP3    H262880   1.608   6.194   3.606 -1.8629  0.0516  0.5917
13797TIP3   OH262881   2.006   5.167   4.930 -0.1733  0.3302 -0.3719
13797TIP3    H162882   2.079   5.228   4.936 -0.9616  1.5560 -2.2094
13797TIP3    H262883   2.042   5.089   4.889  0.7183 -0.2510  1.4509
13798TIP3   OH262884   5.954   1.241  15.353  0.4678  0.3967  0.0351
13798TIP3    H162885   6.000   1.272  15.432  0.5257 -1.7240  0.9061
13798TIP3    H262886   6.025   1.216  15.293  0.4395  0.1013  0.1235
13799TIP3   OH262887   3.211   1.138   5.891  0.7910  0.2836 -0.1850
13799TIP3    H162888   3.157   1.199   5.941 -0.4261  0.0936 -1.2421
13799TIP3    H262889   3.201   1.164   5.800  0.7591 -1.0760 -0.6027
13800TIP3   OH262890   0.909   1.562  15.600  0.1832  0.1458 -0.1375
13800TIP3    H162891   0.865   1.488  15.642 -1.4180  1.7047  1.0631
13800TIP3    H262892   0.997   1.530  15.581 -0.3468 -1.9300  0.7010
13801TIP3   OH262893   6.130   1.783   3.019 -0.6240 -0.3644 -0.1181
13801TIP3    H162894   6.037   1.761   3.028 -0.3993 -1.8619 -1.1395
13801TIP3    H262895   6.154   1.750   2.933  0.8962 -0.1086  0.1858
13802TIP3   OH262896   0.551   4.134   0.154 -0.3982 -0.6824  0.3085
13802TIP3    H162897   0.463   4.146   0.118 -0.6830 -0.9211  0.9130
13802TIP3    H262898   0.541   4.151   0.248 -0.1100 -2.1464  0.6308
13803TIP3   OH262899   2.754   2.899  13.397  0.8098 -0.1893 -0.4284
13803TIP3    H162900   2.700   2.963  13.443 -0.4252 -1.3529 -0.2059
13803TIP3    H262901   2.733   2.912  13.304  1.4638  0.5150 -0.4846
13804TIP3   OH262902   3.409   4.957   1.522 -0.2939 -0.7818 -0.8788
13804TIP3    H162903   3.486   4.930   1.572 -1.8297 -1.0880  1.4817
13804TIP3    H262904   3.350   4.882   1.527 -0.0233 -1.3957 -4.4705
13805TIP3   OH262905   2.606   2.188  14.887 -0.5066 -0.1163 -0.4954
13805TIP3    H162906   2.599   2.179  14.982  0.6169  0.1165 -0.3765
13805TIP3    H262907   2.677   2.128  14.862 -2.4477 -2.1414 -1.5542
13806TIP3   OH262908   0.206   1.508  17.132  0.4749  0.6930  0.1164
13806TIP3    H162909   0.236   1.471  17.049  0.6967  2.1999 -0.5132
13806TIP3    H262910   0.261   1.585  17.145 -1.1933  1.8976  0.3912
13807TIP3   OH262911   0.994   5.350  11.404  0.1309 -0.2566 -0.1346
13807TIP3    H162912   0.951   5.426  11.366  0.5743  0.3853  0.6171
13807TIP3    H262913   0.931   5.316  11.467 -0.7142 -1.4788 -1.5492
13808TIP3   OH262914   2.319   6.351   0.237  0.2903 -0.1139 -0.0334
13808TIP3    H162915   2.245   6.320   0.184 -0.8670  1.8307  0.3511
13808TIP3    H262916   2.397   6.325   0.187 -0.5597 -2.7096 -0.1850
13809TIP3   OH262917   5.415   3.495  16.658 -0.3295 -0.1349 -0.2070
13809TIP3    H162918   5.479   3.498  16.729  0.6639 -1.0568 -1.0223
13809TIP3    H262919   5.389   3.586  16.644 -0.4791  0.0711  1.2523
13810TIP3   OH262920   5.066   1.811  16.117  1.0998 -0.1128 -0.6705
13810TIP3    H162921   5.033   1.841  16.202  1.0421 -0.0178 -0.7264
13810TIP3    H262922   5.081   1.717  16.128  3.0671  0.2285  0.1062
13811TIP3   OH262923   3.520   0.500   4.334  0.0976 -0.2020 -0.4920
13811TIP3    H162924   3.556   0.533   4.252  0.7094  2.2436  0.6827
13811TIP3    H262925   3.595   0.466   4.382  0.1702  0.7079  0.0681
13812TIP3   OH262926   5.871   0.944  12.213 -0.0390 -0.5468  0.0341
13812TIP3    H162927   5.834   1.023  12.174  1.8804 -0.3490 -1.5722
13812TIP3    H262928   5.799   0.881  12.214 -1.5959  1.1827  1.3400
13813TIP3   OH262929   6.513   3.787   1.491  0.3040 -0.4878  0.4947
13813TIP3    H162930   6.460   3.734   1.550  0.5007 -0.5194  0.6422
13813TIP3    H262931   6.502   3.877   1.523  2.1372 -0.7148  1.9451
13814TIP3   OH262932   2.571   1.013  15.313 -0.1552  0.5700 -0.1604
13814TIP3    H162933   2.542   0.928  15.280 -1.0307  0.8398 -0.1082
13814TIP3    H262934   2.593   0.998  15.404 -1.1562  0.5785  0.0922
13815TIP3   OH262935   0.105   2.558   0.180 -0.0342 -0.1337 -0.5290
13815TIP3    H162936   0.080   2.646   0.210  2.4147  0.0925  1.1236
13815TIP3    H262937   0.193   2.544   0.216 -0.0346 -2.9818 -1.3733
13816TIP3   OH262938   4.120   0.276  13.620 -0.0137  0.3598 -0.3634
13816TIP3    H162939   4.055   0.322  13.673  0.8962  0.7230  0.4763
13816TIP3    H262940   4.190   0.254  13.682  0.8306  0.3070 -1.3057
13817TIP3   OH262941   4.457   1.568  17.097 -0.4858  0.8681 -0.0483
13817TIP3    H162942   4.535   1.532  17.055 -0.4392  0.6318  0.2322
13817TIP3    H262943   4.416   1.492  17.139 -0.1255  1.2205  0.9658
13818TIP3   OH262944   5.896   3.117   2.759 -0.4364  0.5124 -0.4687
13818TIP3    H162945   5.842   3.170   2.701 -0.3812 -0.2274 -1.2243
13818TIP3    H262946   5.959   3.179   2.797 -1.9858  1.4500  0.6915
13819TIP3   OH262947   0.306   0.026   0.868  0.1228  0.0190  0.4945
13819TIP3    H162948   0.312   0.080   0.946 -0.8314  0.0151  0.5903
13819TIP3    H262949   0.394   0.027   0.830  0.2540  1.1897  0.7912
13820TIP3   OH262950   0.956   4.462  16.922 -0.4047  0.1187  0.4074
13820TIP3    H162951   0.901   4.516  16.865 -0.1973 -0.2234 -0.1194
13820TIP3    H262952   0.907   4.457  17.004 -0.3342  1.2806  0.5404
13821TIP3   OH262953   2.037   2.762  16.101 -0.6354 -0.3959 -0.0975
13821TIP3    H162954   2.123   2.803  16.108 -0.7422 -0.2073  0.0875
13821TIP3    H262955   1.974   2.834  16.105 -1.1395 -0.7885  5.1854
13822TIP3   OH262956   3.166   0.813  10.875 -0.3657 -0.0675 -0.4121
13822TIP3    H162957   3.174   0.771  10.961  0.6493  1.5730  0.3409
13822TIP3    H262958   3.217   0.757  10.816 -1.1246 -1.2489  0.0049
13823TIP3   OH262959   1.475   2.936  13.549 -0.6817 -0.5688 -0.0119
13823TIP3    H162960   1.405   2.982  13.594  0.4181  1.0596  0.0994
13823TIP3    H262961   1.464   2.957  13.456 -0.2055 -0.0925  0.0337
13824TIP3   OH262962   0.772   1.715   3.500 -0.0593 -0.1316  0.7297
13824TIP3    H162963   0.755   1.777   3.570 -2.8158 -0.7147  0.6822
13824TIP3    H262964   0.733   1.755   3.422 -2.5658 -2.1029  0.8427
13825TIP3   OH262965   1.359   3.456  17.000 -0.0480 -0.1971 -0.6063
13825TIP3    H162966   1.434   3.446  16.942  0.4781  0.3301 -0.0347
13825TIP3    H262967   1.285   3.471  16.942  0.5641  0.8799 -1.1331
13826TIP3   OH262968   5.183   2.328   2.510 -0.3883  0.6826  0.4927
13826TIP3    H162969   5.223   2.339   2.596  0.1017 -0.1718  0.3820
13826TIP3    H262970   5.252   2.351   2.448 -0.8765  1.7512  0.3127
13827TIP3   OH262971   0.818   0.741   1.134  0.1046  0.1063  0.2416
13827TIP3    H162972   0.804   0.708   1.223 -2.8249  2.7156  0.9133
13827TIP3    H262973   0.764   0.684   1.079  1.8087 -1.4226  0.0733
13828TIP3   OH262974   6.064   3.336   2.866  0.1028  0.0289 -0.5125
13828TIP3    H162975   6.073   3.427   2.895  1.3282  0.2501 -1.4967
13828TIP3    H262976   6.142   3.292   2.901 -0.7251 -0.7823  0.3725
13829TIP3   OH262977   1.018   4.601   1.258  0.0757  0.0633  0.2509
13829TIP3    H162978   1.057   4.650   1.186  0.4433  1.0248  1.0887
13829TIP3    H262979   1.089   4.546   1.291 -0.2053 -0.6939 -0.3718
13830TIP3   OH262980   0.442   5.993   4.527  0.1039  0.1736 -0.1239
13830TIP3    H162981   0.384   6.047   4.580 -0.8704 -1.2772  0.3289
13830TIP3    H262982   0.530   6.026   4.547 -0.4145  1.1052  0.6939
13831TIP3   OH262983   4.948   6.506  14.475  0.4980 -0.1162 -0.2899
13831TIP3    H162984   4.889   6.457  14.531  0.2108  0.4679 -0.0664
13831TIP3    H262985   5.036   6.474  14.496  0.2960 -0.6716 -0.3015
13832TIP3   OH262986   4.392   5.054   6.488 -0.2864  0.1221  0.1428
13832TIP3    H162987   4.473   5.075   6.535 -0.6925 -0.5526  1.1634
13832TIP3    H262988   4.346   4.992   6.545 -1.0266 -0.3325 -0.9167
13833TIP3   OH262989   1.471   2.194  16.594  0.1718 -0.1320 -0.3280
13833TIP3    H162990   1.530   2.118  16.594  1.4927  0.8448 -0.6693
13833TIP3    H262991   1.439   2.199  16.684  1.8434  0.1946  0.2830
13834TIP3   OH262992   1.093   1.674  16.725  0.2630 -0.0624  0.2378
13834TIP3    H162993   1.041   1.624  16.788  0.3590 -0.2011  0.2066
13834TIP3    H262994   1.163   1.614  16.699  0.0617 -0.1030 -0.2139
13835TIP3   OH262995   4.202   5.877  15.927 -0.0362 -0.0479  0.4260
13835TIP3    H162996   4.211   5.971  15.938 -1.1347 -0.0920  2.0462
13835TIP3    H262997   4.107   5.863  15.921  0.0344 -1.1818  1.6826
13836TIP3   OH262998   4.115   4.722   2.117  0.0783 -0.1549  0.2772
13836TIP3    H162999   4.181   4.754   2.179  1.0638 -1.3478 -0.1177
13836TIP3    H263000   4.052   4.676   2.173  0.2095 -0.0196  0.5422
13837TIP3   OH263001   2.317   1.169   2.939  0.6630 -0.4441 -0.2339
13837TIP3    H163002   2.254   1.104   2.907 -0.6040  0.3846  0.4846
13837TIP3    H263003   2.342   1.138   3.026  3.1255 -2.0192 -1.4050
13838TIP3   OH263004   2.470   3.074  14.518  0.6251  0.8612  0.1355
13838TIP3    H163005   2.394   3.095  14.464  1.2325  1.3995 -0.5196
13838TIP3    H263006   2.538   3.049  14.456  0.7542 -0.4161  0.7583
13839TIP3   OH263007   2.691   1.471   3.962 -0.3016 -0.4273  0.3202
13839TIP3    H163008   2.620   1.535   3.969 -2.1964 -2.4313  0.6116
13839TIP3    H263009   2.721   1.478   3.871 -1.8578 -0.4879 -0.2256
13840TIP3   OH263010   5.010   3.085  14.257 -0.1549  0.2499  0.2506
13840TIP3    H163011   4.971   3.168  14.229 -0.6922 -0.2569 -0.5725
13840TIP3    H263012   5.100   3.089  14.226 -0.8980 -0.5571 -2.2768
13841TIP3   OH263013   0.181   0.525  15.764  0.0090 -0.5716  0.0749
13841TIP3    H163014   0.112   0.551  15.702 -0.3711 -2.7663 -0.4997
13841TIP3    H263015   0.209   0.438  15.735  1.0598 -0.9348  1.9661
13842TIP3   OH263016   2.003   5.629   0.968 -0.2151 -0.5112 -0.2911
13842TIP3    H163017   2.079   5.684   0.951 -0.7276  0.3232  0.0543
13842TIP3    H263018   2.038   5.556   1.020 -0.0462  1.2630  2.2965
13843TIP3   OH263019   6.261   0.864   0.305  0.0464  0.3729 -0.0133
13843TIP3    H163020   6.324   0.828   0.242  0.5387 -0.7252  1.0649
13843TIP3    H263021   6.276   0.958   0.303  0.5661  0.2871 -0.9770
13844TIP3   OH263022   6.184   0.193  10.943  0.0860  0.9321  0.1619
13844TIP3    H163023   6.097   0.165  10.912  0.5479  0.8172 -1.0842
13844TIP3    H263024   6.167   0.275  10.990 -0.6625  1.0901 -0.3623
13845TIP3   OH263025   2.843   2.077   6.159  0.2240 -0.8000 -0.0733
13845TIP3    H163026   2.834   2.010   6.091  0.3255 -1.4336  0.5352
13845TIP3    H263027   2.767   2.064   6.216  1.0775 -1.4403  0.9469
13846TIP3   OH263028   6.069   1.914   5.068 -0.0065  0.5203 -0.5262
13846TIP3    H163029   6.127   1.990   5.074 -1.1948  1.4637 -0.7863
13846TIP3    H263030   5.981   1.950   5.077 -0.6254 -0.7475 -1.3135
13847TIP3   OH263031   4.096   0.712  12.963 -0.0677  0.6590  0.1493
13847TIP3    H163032   4.060   0.790  12.921  2.6508  1.7011 -0.4645
13847TIP3    H263033   4.180   0.741  12.999  0.3504 -1.6477  1.2211
13848TIP3   OH263034   5.145   0.146  15.003 -0.4110 -0.1423  0.2712
13848TIP3    H163035   5.067   0.166  14.951 -1.5493 -1.6332  1.3213
13848TIP3    H263036   5.133   0.195  15.084  0.1616  0.2627  0.1174
13849TIP3   OH263037   2.972   5.640   6.135  0.1375  0.1339  0.2037
13849TIP3    H163038   3.057   5.643   6.180  1.0802 -0.5514 -1.4652
13849TIP3    H263039   2.949   5.732   6.122  0.3740  0.3305  1.0724
13850TIP3   OH263040   5.127   5.902   1.651  0.0394 -0.4543  0.1539
13850TIP3    H163041   5.157   5.984   1.611 -0.5799  0.2289  1.0355
13850TIP3    H263042   5.032   5.903   1.639 -0.2509  0.0602  2.0709
13851TIP3   OH263043   5.066   4.454   1.874 -0.0119 -0.4372  0.2991
13851TIP3    H163044   5.038   4.406   1.952  1.3777 -1.2034  0.3569
13851TIP3    H263045   5.130   4.396   1.831  0.4481  0.6463 -0.5414
13852TIP3   OH263046   5.548   1.866  12.007  0.1103  0.0196  0.3793
13852TIP3    H163047   5.457   1.891  11.989  0.1924  0.7098  0.8662
13852TIP3    H263048   5.600   1.929  11.957  0.3386  1.7130  2.5747
13853TIP3   OH263049   3.711   4.347  13.771 -0.1768 -0.1982 -0.3672
13853TIP3    H163050   3.657   4.398  13.711  0.6500  0.4364 -0.5863
13853TIP3    H263051   3.801   4.374  13.752  0.2766 -1.5832 -0.3508
13854TIP3   OH263052   5.340   4.302  15.610 -0.2500  0.3012 -0.2084
13854TIP3    H163053   5.319   4.392  15.586 -2.7390  0.4067  1.9490
13854TIP3    H263054   5.405   4.310  15.680 -0.3292  0.4065 -0.1473
13855TIP3   OH263055   4.173   0.016   1.625  0.3877 -0.5393 -0.4546
13855TIP3    H163056   4.144   0.102   1.594  1.0736 -0.3028 -0.4396
13855TIP3    H263057   4.193  -0.032   1.544  1.5324 -0.1458 -0.4210
13856TIP3   OH263058   1.928   2.694   0.094 -0.1771 -0.6353  0.8662
13856TIP3    H163059   2.023   2.683   0.096  0.2231  1.6015 -1.2572
13856TIP3    H263060   1.894   2.607   0.070  1.7008 -0.5817 -2.5529
13857TIP3   OH263061   2.428   5.801  17.141  0.1951 -0.3010  0.2921
13857TIP3    H163062   2.441   5.739  17.069  0.3434  1.2325 -1.0511
13857TIP3    H263063   2.511   5.798  17.190 -0.2839 -2.1350  1.1027
13858TIP3   OH263064   1.451   6.107  13.775  0.2830 -0.1278 -0.0441
13858TIP3    H163065   1.437   6.013  13.790  0.8548 -0.4460 -1.3688
13858TIP3    H263066   1.391   6.150  13.836 -0.3382 -1.3629  0.2511
13859TIP3   OH263067   3.170   5.242   1.723 -0.5886 -0.6705  0.1821
13859TIP3    H163068   3.202   5.227   1.634 -1.7352 -2.1535 -0.0161
13859TIP3    H263069   3.249   5.256   1.775  0.0884  0.3497 -1.0791
13860TIP3   OH263070   4.552   3.835   0.347  0.0576 -0.2144 -0.1486
13860TIP3    H163071   4.613   3.810   0.278  0.0111  0.5182 -0.4649
13860TIP3    H263072   4.605   3.832   0.427  0.4181  0.0604 -0.3711
13861TIP3   OH263073   6.753   6.021  11.676  0.1278  0.0828  0.1238
13861TIP3    H163074   6.661   6.029  11.649  0.0963 -0.7874 -0.0450
13861TIP3    H263075   6.750   5.969  11.756  0.4155  0.7341  0.5681
13862TIP3   OH263076   6.523   6.313   3.655  0.1398 -0.3420  0.3705
13862TIP3    H163077   6.433   6.321   3.688 -0.9039  0.9307 -2.5267
13862TIP3    H263078   6.527   6.224   3.620 -0.7156  0.2372 -1.2944
13863TIP3   OH263079   4.073   1.827   4.792  0.2721  0.0416  0.1651
13863TIP3    H163080   4.062   1.820   4.697 -1.9223  1.1854  0.2940
13863TIP3    H263081   4.089   1.920   4.808  0.4215 -0.1125  0.9420
13864TIP3   OH263082   2.943   6.374   5.211  0.0897  0.2127  0.0953
13864TIP3    H163083   2.960   6.282   5.231  0.1044 -0.0550 -1.1120
13864TIP3    H263084   2.928   6.414   5.297 -0.5357 -1.0292  0.5893
13865TIP3   OH263085   2.373   6.737   1.009 -0.0522 -0.0439  0.2979
13865TIP3    H163086   2.379   6.808   0.946  2.1914  0.1971  0.7209
13865TIP3    H263087   2.360   6.658   0.956 -0.8551  0.4635 -0.2698
13866TIP3   OH263088   4.380   4.450   3.137  0.7345 -0.4395 -0.0506
13866TIP3    H163089   4.319   4.482   3.203  0.1692 -1.3252 -0.1278
13866TIP3    H263090   4.343   4.366   3.108  1.7917 -0.8230 -0.3563
13867TIP3   OH263091   1.935   4.980   3.199  0.1186 -0.2358  0.0900
13867TIP3    H163092   2.016   5.000   3.152 -0.6979 -0.5657 -1.5506
13867TIP3    H263093   1.963   4.964   3.289  1.8186  0.0521 -0.3385
13868TIP3   OH263094   3.699   5.408   2.818  0.1470  0.5951  0.1835
13868TIP3    H163095   3.617   5.376   2.781  1.0411  1.2704 -2.6130
13868TIP3    H263096   3.674   5.488   2.865 -0.9285  0.2374  0.2347
13869TIP3   OH263097   1.773   0.946   2.246  0.0461 -0.2093 -0.7058
13869TIP3    H163098   1.825   0.868   2.224  0.2056 -0.1873 -0.4125
13869TIP3    H263099   1.822   0.987   2.317  0.5443  0.7577 -1.5850
13870TIP3   OH263100   1.702   5.171   5.574 -0.3917  0.6929 -0.3046
13870TIP3    H163101   1.707   5.146   5.482 -1.9442  0.8389 -0.4554
13870TIP3    H263102   1.763   5.112   5.618 -3.1246 -2.8923 -0.7810
13871TIP3   OH263103   2.234   5.915  10.379 -0.2867  0.0052 -0.2329
13871TIP3    H163104   2.197   5.895  10.465  0.9041 -1.5256 -0.0390
13871TIP3    H263105   2.326   5.933  10.397  0.2413 -1.4648 -1.2948
13872TIP3   OH263106   5.819   6.231  12.936 -0.1290  0.0908 -0.0743
13872TIP3    H163107   5.824   6.186  13.020  0.2855 -0.6566 -0.4813
13872TIP3    H263108   5.761   6.175  12.883  0.2552  0.1201 -0.5332
13873TIP3   OH263109   5.670   3.361  12.218 -0.0288 -0.0732  0.3560
13873TIP3    H163110   5.583   3.388  12.247  0.4551  0.7216  1.1057
13873TIP3    H263111   5.671   3.382  12.124 -0.0591  1.4849  0.6915
13874TIP3   OH263112   5.482   5.329   3.725 -0.1608 -0.1103 -0.9349
13874TIP3    H163113   5.549   5.369   3.670 -1.2944 -0.3668 -2.5832
13874TIP3    H263114   5.414   5.397   3.732 -1.1190 -0.9201 -1.9354
13875TIP3   OH263115   5.037   3.490  14.013 -0.0651 -0.5456 -0.0560
13875TIP3    H163116   4.984   3.570  14.003 -2.4986 -2.0931 -0.2234
13875TIP3    H263117   5.101   3.496  13.942  2.3082  2.9475  2.0643
13876TIP3   OH263118   2.381   4.578   3.092 -0.1978  0.0826  0.2372
13876TIP3    H163119   2.297   4.536   3.106  0.3266 -0.9228  0.4375
13876TIP3    H263120   2.406   4.554   3.003 -0.4165  0.9152 -0.0565
13877TIP3   OH263121   0.327   2.607  16.283  0.2618  0.0461 -0.3403
13877TIP3    H163122   0.389   2.624  16.212  0.7865  1.5000  0.4025
13877TIP3    H263123   0.380   2.614  16.363 -0.8420  1.5001  0.3224
13878TIP3   OH263124   6.074   5.510  13.843 -0.0545  0.6241  0.5371
13878TIP3    H163125   6.057   5.604  13.849 -0.5372  0.6744 -1.1711
13878TIP3    H263126   5.989   5.471  13.821  0.2665 -0.1433  0.6036
13879TIP3   OH263127   6.114   0.380   1.062  0.5927  0.3435  0.2540
13879TIP3    H163128   6.114   0.336   0.976  1.5975 -1.0456  0.9169
13879TIP3    H263129   6.202   0.418   1.069  0.0730  1.5923  0.1337
13880TIP3   OH263130   5.664   0.106  12.440 -0.7094 -0.7156  0.4772
13880TIP3    H163131   5.580   0.061  12.447 -0.2239 -1.4627  1.8443
13880TIP3    H263132   5.719   0.066  12.508  0.5957  0.1007 -0.0545
13881TIP3   OH263133   5.454   4.502  17.059 -1.5045 -0.0399  0.3755
13881TIP3    H163134   5.480   4.412  17.043 -0.6756  0.3160 -0.3710
13881TIP3    H263135   5.467   4.546  16.974 -1.4587  0.8762  0.8459
13882TIP3   OH263136   3.391   6.558   4.610 -0.2616 -0.0737  0.2264
13882TIP3    H163137   3.427   6.544   4.522  0.4413  2.2962  0.0727
13882TIP3    H263138   3.463   6.533   4.669 -0.4854 -0.9832  0.1348
13883TIP3   OH263139   3.601   5.560  16.154 -0.4047 -0.1736  0.2014
13883TIP3    H163140   3.597   5.476  16.200  1.9734  0.2865  1.3815
13883TIP3    H263141   3.517   5.566  16.109 -0.9733 -2.8112  0.7198
13884TIP3   OH263142   6.780   3.429  12.807 -0.2410 -0.0858  0.3221
13884TIP3    H163143   6.848   3.425  12.873 -0.6719 -0.0087  0.7776
13884TIP3    H263144   6.737   3.344  12.811 -0.2268 -0.1046  0.0941
13885TIP3   OH263145   4.335   3.791  12.054  0.9781 -0.0757 -0.5161
13885TIP3    H163146   4.250   3.748  12.055  1.5830 -1.3694 -1.1110
13885TIP3    H263147   4.329   3.860  12.120 -0.5843 -0.0045 -0.7052
13886TIP3   OH263148   4.728   0.347  12.102  0.0090 -0.1048 -0.1699
13886TIP3    H163149   4.711   0.312  12.190 -0.8076 -2.2972 -1.1413
13886TIP3    H263150   4.645   0.337  12.056  0.8838 -0.5783 -1.6957
13887TIP3   OH263151   6.485   2.756  16.734 -0.1297  0.2981 -0.6310
13887TIP3    H163152   6.555   2.813  16.765  0.4324 -0.5913 -0.2453
13887TIP3    H263153   6.483   2.684  16.797 -0.3139 -0.4973 -1.5320
13888TIP3   OH263154   0.254   2.327  11.921 -0.1479 -0.1145 -0.9456
13888TIP3    H163155   0.289   2.314  11.833  0.3088  1.2641 -0.9878
13888TIP3    H263156   0.281   2.416  11.945 -0.7192 -0.2763  0.3764
13889TIP3   OH263157   6.187   4.971   0.742  0.2701  0.0669  0.4845
13889TIP3    H163158   6.101   4.950   0.778 -0.0834  0.5186 -0.0874
13889TIP3    H263159   6.224   4.885   0.719 -0.8441 -0.0261 -1.1035
13890TIP3   OH263160   1.948   3.183  12.443 -0.3095  0.3470 -0.1840
13890TIP3    H163161   1.929   3.276  12.434 -2.2248  0.0186 -0.0918
13890TIP3    H263162   1.994   3.160  12.363  1.3700  1.5983  0.3651
13891TIP3   OH263163   6.395   0.805  14.166  0.5343 -0.1626  0.6099
13891TIP3    H163164   6.438   0.888  14.182  0.1594  0.2355 -0.3930
13891TIP3    H263165   6.414   0.753  14.244  1.4776  0.5567  0.8794
13892TIP3   OH263166   5.144   0.769  13.095 -0.2138  0.1093  0.5735
13892TIP3    H163167   5.230   0.738  13.065 -0.9591 -0.9679 -0.5543
13892TIP3    H263168   5.128   0.718  13.175  0.0153 -0.0070  0.5483
13893TIP3   OH263169   1.563   6.571   3.030  0.3411  0.4019  0.0286
13893TIP3    H163170   1.635   6.588   3.091  0.7823  0.0091 -0.3697
13893TIP3    H263171   1.563   6.476   3.017 -0.3307  0.3853  0.1144
13894TIP3   OH263172   4.114   2.329  14.949  0.3195 -0.4909  0.3293
13894TIP3    H163173   4.102   2.334  15.043 -1.4085  0.1557  0.0919
13894TIP3    H263174   4.209   2.321  14.938  0.6632  0.7709  2.0529
13895TIP3   OH263175   0.580   4.149   5.343  0.1349 -0.7231 -0.1228
13895TIP3    H163176   0.560   4.070   5.394  1.5387 -1.0236  0.0096
13895TIP3    H263177   0.521   4.216   5.378  1.8302 -0.5851  2.8350
13896TIP3   OH263178   0.282   4.696  12.670  0.0475 -0.0698  0.1301
13896TIP3    H163179   0.369   4.678  12.634 -0.1000  1.3100 -1.0088
13896TIP3    H263180   0.240   4.610  12.676  1.2722 -0.6792  0.1038
13897TIP3   OH263181   3.183   3.927  15.003  0.0984 -0.8445  0.1649
13897TIP3    H163182   3.153   3.947  15.091  0.3952 -1.8963  0.5224
13897TIP3    H263183   3.274   3.899  15.014  0.6222  0.4527 -0.6626
13898TIP3   OH263184   1.453   6.650   2.438 -0.1375  0.2648  0.4309
13898TIP3    H163185   1.524   6.623   2.497  0.6582  1.3595  0.0010
13898TIP3    H263186   1.447   6.744   2.450  0.5394  0.6236 -1.7842
13899TIP3   OH263187   5.823   4.846  14.404  0.9616  0.2296 -0.3161
13899TIP3    H163188   5.804   4.765  14.357 -0.0918 -0.1290  0.6610
13899TIP3    H263189   5.918   4.855  14.401  1.0952 -1.0721 -0.3857
13900TIP3   OH263190   1.739   2.351   5.380 -0.2910  0.2746 -0.0337
13900TIP3    H163191   1.804   2.400   5.429  1.4722 -1.0870 -0.9114
13900TIP3    H263192   1.774   2.263   5.374 -1.9804 -0.3867 -0.9873
13901TIP3   OH263193   6.692   1.173  10.437 -0.2389  0.0721 -0.5353
13901TIP3    H163194   6.611   1.178  10.386 -0.9253  1.5287  0.6262
13901TIP3    H263195   6.738   1.255  10.418  1.4365 -1.1130 -1.8610
13902TIP3   OH263196   1.091   3.618   4.625 -0.3114  1.0381 -0.0398
13902TIP3    H163197   1.181   3.591   4.609 -0.3000  0.6113  0.6874
13902TIP3    H263198   1.045   3.599   4.543 -0.2735 -1.0962  0.3823
13903TIP3   OH263199   5.117   3.708  16.235  0.6185 -0.0513  0.0922
13903TIP3    H163200   5.101   3.762  16.157  1.8685  0.7174  0.3296
13903TIP3    H263201   5.180   3.642  16.206  0.2121 -0.4779  0.1743
13904TIP3   OH263202   0.448   6.269   2.236 -0.0296  0.3066  0.2768
13904TIP3    H163203   0.411   6.210   2.302 -1.1769 -0.9736 -1.4328
13904TIP3    H263204   0.372   6.315   2.200  0.2281 -0.7665 -1.7798
13905TIP3   OH263205   6.358   4.202   6.215  0.5370  0.1963 -0.0306
13905TIP3    H163206   6.424   4.251   6.165 -0.3793  2.9462  1.2766
13905TIP3    H263207   6.274   4.233   6.182 -0.0950 -0.7362  0.6430
13906TIP3   OH263208   0.495   5.714   2.704  0.2723  0.0193 -0.1401
13906TIP3    H163209   0.492   5.784   2.639 -1.8830  0.5638  0.4613
13906TIP3    H263210   0.568   5.737   2.762  0.6129  0.8775 -0.8847
13907TIP3   OH263211   2.396   4.236  11.975 -0.2494  0.1895 -0.6897
13907TIP3    H163212   2.462   4.237  11.905  0.9622 -0.1188  0.4164
13907TIP3    H263213   2.384   4.328  11.998 -1.8055  0.4569 -2.2955
13908TIP3   OH263214   3.445   1.638  16.786  0.0825 -0.0616 -0.1046
13908TIP3    H163215   3.531   1.676  16.806 -0.0559 -0.0363  0.4554
13908TIP3    H263216   3.385   1.712  16.793 -0.1482 -0.3145  0.7049
13909TIP3   OH263217   1.167   0.957   1.697  0.2447  0.4057 -0.3286
13909TIP3    H163218   1.201   0.879   1.654  1.0465  0.1287  0.7959
13909TIP3    H263219   1.208   1.030   1.650 -0.6481  0.1991 -1.5014
13910TIP3   OH263220   1.483   1.892   5.469 -0.0254 -0.2034  0.4282
13910TIP3    H163221   1.408   1.940   5.506  0.3453  1.0887 -0.4119
13910TIP3    H263222   1.552   1.902   5.536  0.3536  1.3297 -0.1445
13911TIP3   OH263223   5.488   2.363   1.172 -0.3073 -0.8442  0.4545
13911TIP3    H163224   5.575   2.328   1.191  0.2691 -0.3569 -1.2000
13911TIP3    H263225   5.503   2.455   1.152 -1.0595 -1.0062 -0.9169
13912TIP3   OH263226   4.501   0.955  15.789 -0.5158  0.0775 -0.1336
13912TIP3    H163227   4.511   1.040  15.747 -0.4799  0.8631  1.3909
13912TIP3    H263228   4.421   0.918  15.751 -2.8494  2.5655  1.9367
13913TIP3   OH263229   5.500   1.400  13.837 -0.2232  0.3545  0.1702
13913TIP3    H163230   5.432   1.338  13.811 -0.1737  0.3290  0.1010
13913TIP3    H263231   5.524   1.373  13.926 -0.8076  0.8078  0.4658
13914TIP3   OH263232   5.787   4.312  10.871  0.0526 -0.0298 -0.2704
13914TIP3    H163233   5.766   4.221  10.851 -0.5302 -0.1225  0.7060
13914TIP3    H263234   5.844   4.308  10.948 -1.0288  0.4663  0.5907
13915TIP3   OH263235   2.617   2.279   0.924  0.8237  1.0111  0.2243
13915TIP3    H163236   2.657   2.255   0.840 -0.4281  3.3145 -1.1055
13915TIP3    H263237   2.651   2.367   0.943  0.3369  0.9179  1.6713
13916TIP3   OH263238   2.877   0.400   0.667 -0.0322  0.1947 -0.1779
13916TIP3    H163239   2.846   0.340   0.600 -0.1996  0.9033 -0.7440
13916TIP3    H263240   2.910   0.343   0.737  0.8443 -0.5573 -1.1738
13917TIP3   OH263241   3.604   6.209  13.591 -0.4530 -0.1085  0.1328
13917TIP3    H163242   3.665   6.166  13.650  0.5064  1.1320  0.0865
13917TIP3    H263243   3.529   6.150  13.586 -0.1758 -0.6541  1.8855
13918TIP3   OH263244   2.151   5.869  14.765 -0.1133 -0.2113  0.4023
13918TIP3    H163245   2.126   5.933  14.698 -0.9048  0.5673  1.4053
13918TIP3    H263246   2.155   5.786  14.718  0.7116  0.5102 -0.8891
13919TIP3   OH263247   0.008   5.092  15.686 -0.8794 -0.4900 -0.9008
13919TIP3    H163248   0.010   4.997  15.677 -0.7034 -0.8497  2.1119
13919TIP3    H263249   0.099   5.116  15.703 -1.1827  0.0089  0.0394
13920TIP3   OH263250   4.471   4.744   0.276 -0.4622 -0.1046  0.2046
13920TIP3    H163251   4.485   4.739   0.181  1.0054  0.3911  0.3703
13920TIP3    H263252   4.500   4.833   0.299  1.3535 -0.9544  1.4262
13921TIP3   OH263253   2.873   6.092   3.744 -0.0717  0.2593  0.4710
13921TIP3    H163254   2.922   6.148   3.805  0.8859  1.2590 -1.1654
13921TIP3    H263255   2.936   6.026   3.717  0.0878  0.9201 -0.8320
13922TIP3   OH263256   2.698   4.057   5.047  0.2111  0.1052 -0.2073
13922TIP3    H163257   2.678   3.972   5.087  2.3987 -1.6443 -2.4568
13922TIP3    H263258   2.667   4.049   4.957 -0.4440  2.1472 -0.2135
13923TIP3   OH263259   2.215   3.175   3.365 -0.1514 -0.4289  0.6009
13923TIP3    H163260   2.215   3.175   3.461  0.3845  0.3847  0.6160
13923TIP3    H263261   2.301   3.212   3.342 -0.4124 -0.3031 -0.1890
13924TIP3   OH263262   5.936   0.457  11.546  0.1644 -0.4172  0.8313
13924TIP3    H163263   6.025   0.461  11.580  0.2525 -0.0964  0.5638
13924TIP3    H263264   5.945   0.427  11.455 -0.0170 -0.5776  0.8638
13925TIP3   OH263265   3.675   3.533  12.704 -0.2104  0.1008 -0.2746
13925TIP3    H163266   3.686   3.613  12.757 -0.4186  1.3857 -2.0929
13925TIP3    H263267   3.587   3.540  12.668 -0.2930 -1.0538 -0.3397
13926TIP3   OH263268   3.131   3.240   5.729 -0.1496 -0.5117  0.1255
13926TIP3    H163269   3.150   3.155   5.769  1.0654 -0.2162  0.2056
13926TIP3    H263270   3.136   3.224   5.635 -0.9044 -0.7314  0.1119
13927TIP3   OH263271   3.699   5.970   1.353 -0.1746 -1.0674 -0.2646
13927TIP3    H163272   3.786   5.936   1.330  0.2241  0.6703 -1.5439
13927TIP3    H263273   3.707   5.993   1.446  0.9794 -0.2429 -0.5482
13928TIP3   OH263274   0.008   1.547  16.553  0.1934  0.4550  0.4919
13928TIP3    H163275   0.023   1.482  16.621 -0.2636  1.3167  1.4433
13928TIP3    H263276  -0.063   1.510  16.500  1.7486 -1.0440 -0.6557
13929TIP3   OH263277   1.407   0.409   0.499  0.6050 -0.0957  0.4843
13929TIP3    H163278   1.330   0.456   0.466  0.3050 -0.1050  1.1668
13929TIP3    H263279   1.472   0.478   0.516  0.9657 -0.1360 -0.6349
13930TIP3   OH263280   6.007   6.835   1.909 -0.4414 -0.0543 -0.8527
13930TIP3    H163281   6.092   6.856   1.947 -0.7412 -1.3269  0.6352
13930TIP3    H263282   5.992   6.743   1.931 -1.7738 -0.1382 -1.9322
13931TIP3   OH263283   0.791   1.312   0.369 -0.1688  0.0841  0.5500
13931TIP3    H163284   0.761   1.322   0.278  0.0073 -0.0109  0.4802
13931TIP3    H263285   0.712   1.318   0.421 -0.2065  0.7602  0.4336
13932TIP3   OH263286   3.466   1.011  14.375 -0.0079  0.1411  0.6659
13932TIP3    H163287   3.505   0.993  14.460  0.7778  1.2835  0.5796
13932TIP3    H263288   3.388   0.957  14.372  0.3971 -0.5385  1.7689
13933TIP3   OH263289   2.569   5.245   5.960 -0.0315  0.3554  0.3914
13933TIP3    H163290   2.477   5.233   5.982  0.4611  0.7285  2.9682
13933TIP3    H263291   2.608   5.158   5.972 -0.3441 -0.3601 -2.8740
13934TIP3   OH263292   6.441   1.516   2.835 -0.3228  0.1715 -0.7599
13934TIP3    H163293   6.388   1.437   2.823  1.1125 -1.4829  2.5500
13934TIP3    H263294   6.407   1.556   2.915  0.1693  1.9601 -1.3855
13935TIP3   OH263295   4.691   4.003  16.836  0.1209 -0.3155  0.1675
13935TIP3    H163296   4.728   3.933  16.889 -1.1814 -0.6093  0.7242
13935TIP3    H263297   4.642   3.959  16.767 -0.6519  0.0192  0.4817
13936TIP3   OH263298   3.974   4.375  11.100  0.2886  0.6391 -0.1108
13936TIP3    H163299   3.950   4.331  11.019  1.3239  0.0164 -0.0939
13936TIP3    H263300   3.896   4.367  11.156 -0.4480  1.1155 -1.0307
13937TIP3   OH263301   3.211   5.041  13.212 -0.7226 -0.0229  0.3152
13937TIP3    H163302   3.307   5.036  13.214 -0.7544 -1.5664  2.7187
13937TIP3    H263303   3.191   5.107  13.146  1.9791  0.0866 -0.4977
13938TIP3   OH263304   5.758   1.331  11.582 -0.3003 -0.5712  0.7459
13938TIP3    H163305   5.820   1.307  11.513  1.2413  0.3395  1.7454
13938TIP3    H263306   5.705   1.253  11.595  0.4437 -1.2958 -0.3522
13939TIP3   OH263307   1.830   5.132   2.093  0.0794  0.3243  0.0467
13939TIP3    H163308   1.842   5.220   2.129  0.5277  0.2513  0.0789
13939TIP3    H263309   1.810   5.077   2.169  1.5222  0.0748  0.2726
13940TIP3   OH263310   5.988   1.583  10.797  0.4862 -0.0964 -0.3725
13940TIP3    H163311   6.053   1.565  10.865  1.9169 -0.4458 -1.7748
13940TIP3    H263312   5.997   1.676  10.780  0.4252 -0.0900 -0.3680
13941TIP3   OH263313   3.183   5.491  14.318 -0.2555 -0.3973  0.2598
13941TIP3    H163314   3.172   5.524  14.229 -0.6234 -0.8842  0.1259
13941TIP3    H263315   3.125   5.545  14.371  0.9773  0.8278  0.4375
13942TIP3   OH263316   1.747   6.067  13.545  0.4748  0.5137 -0.4705
13942TIP3    H163317   1.670   6.112  13.508 -0.8635 -1.1153  0.2082
13942TIP3    H263318   1.725   5.974  13.540  2.5393 -0.0160 -0.4791
13943TIP3   OH263319   5.414   0.928  13.666 -0.0289 -0.3654  0.3823
13943TIP3    H163320   5.344   0.867  13.688 -1.0158  0.8097  0.6007
13943TIP3    H263321   5.492   0.892  13.708 -0.6449 -1.3176  0.7344
13944TIP3   OH263322   1.979   2.249  16.282 -0.0083  0.1212  0.1572
13944TIP3    H163323   2.010   2.310  16.215 -1.5273 -0.6497 -1.3064
13944TIP3    H263324   2.044   2.180  16.284  0.3012  0.3997 -0.1738
13945TIP3   OH263325   4.075   5.608  12.211 -0.0896  0.3060 -0.0395
13945TIP3    H163326   4.017   5.551  12.161 -0.0538  0.6926 -0.5348
13945TIP3    H263327   4.152   5.619  12.155  0.1096  0.4522  0.2587
13946TIP3   OH263328   3.781   5.760  15.026  0.2574  0.0260 -0.0606
13946TIP3    H163329   3.690   5.770  14.996  0.2115  1.4557  0.4740
13946TIP3    H263330   3.775   5.705  15.104 -0.2069  0.3774  0.1581
13947TIP3   OH263331   2.610   5.175  12.968 -0.4286 -0.0087  0.2127
13947TIP3    H163332   2.681   5.207  13.023 -0.9478  1.3362  0.1361
13947TIP3    H263333   2.600   5.083  12.992  0.9182 -0.0601  0.6581
13948TIP3   OH263334   6.027   0.244  13.026 -0.0380 -0.3655  0.5223
13948TIP3    H163335   6.037   0.235  12.932 -0.0111  0.8409  0.3959
13948TIP3    H263336   6.033   0.155  13.060 -1.9077 -1.0322 -0.7808
13949TIP3   OH263337   0.905   2.499  13.187  0.0110 -0.5477 -0.2101
13949TIP3    H163338   0.835   2.529  13.129  1.2830  0.2538 -1.3646
13949TIP3    H263339   0.980   2.485  13.130  0.2663 -3.4528  0.6615
13950TIP3   OH263340   5.472   3.237  17.056  0.3616 -0.8238  0.2600
13950TIP3    H163341   5.394   3.293  17.061  0.6134 -0.4963  0.5161
13950TIP3    H263342   5.544   3.297  17.041  0.4593 -1.2081 -0.9036
13951TIP3   OH263343   4.080   0.339   5.479  0.1040  0.2793  0.5149
13951TIP3    H163344   4.147   0.398   5.514  1.2186 -1.1982  0.9687
13951TIP3    H263345   4.092   0.342   5.385  1.5335 -0.7374  0.6341
13952TIP3   OH263346   1.486   1.015   2.212  0.1514  0.0555 -0.0025
13952TIP3    H163347   1.448   1.030   2.298 -0.6274 -1.7589  0.0158
13952TIP3    H263348   1.575   0.983   2.229 -0.0574 -0.4562  0.1623
13953TIP3   OH263349   3.699   5.052  16.624  0.1495 -0.1718  0.1883
13953TIP3    H163350   3.751   5.106  16.684  1.6773  1.1577 -2.1797
13953TIP3    H263351   3.760   5.029  16.554 -1.4173 -2.1266 -0.6207
13954TIP3   OH263352   3.278   5.963   3.454  0.0571  0.0866  0.2135
13954TIP3    H163353   3.313   5.978   3.366 -0.7549 -0.4738 -0.2222
13954TIP3    H263354   3.355   5.947   3.508  0.4713 -3.0786 -1.0810
13955TIP3   OH263355   0.450   5.007   4.008  0.7249 -0.1670 -0.2261
13955TIP3    H163356   0.378   5.012   4.071  0.5266 -1.1909 -0.3589
13955TIP3    H263357   0.509   5.078   4.034  0.1492  0.0731  0.4752
13956TIP3   OH263358   2.772   6.511   3.202 -0.0043  0.1882  0.4026
13956TIP3    H163359   2.756   6.427   3.159  0.2932 -0.0129  0.6795
13956TIP3    H263360   2.720   6.508   3.282  0.7412 -0.1242  0.8849
13957TIP3   OH263361   6.467   1.239  12.115 -0.6222 -0.0749  0.5016
13957TIP3    H163362   6.421   1.312  12.073  0.1684 -0.5111 -1.2452
13957TIP3    H263363   6.494   1.183  12.042  1.8846 -0.2973  1.5115
13958TIP3   OH263364   6.288   5.987  14.019 -0.3010 -0.0406 -0.3066
13958TIP3    H163365   6.217   6.048  14.000 -0.5155 -0.9411 -2.6690
13958TIP3    H263366   6.316   5.954  13.934  0.9228 -2.0105  0.7716
13959TIP3   OH263367   0.091   3.066  16.297 -0.0323  0.0989 -0.2280
13959TIP3    H163368   0.026   3.116  16.346 -0.3513 -2.6869  2.5401
13959TIP3    H263369   0.053   3.058  16.209 -2.2017  0.7293  0.5831
13960TIP3   OH263370   2.127   6.786   5.527  0.2771  0.1534 -0.0403
13960TIP3    H163371   2.109   6.871   5.567  2.2759  0.3381  0.5881
13960TIP3    H263372   2.132   6.804   5.433  2.7203  1.2154  0.2181
13961TIP3   OH263373   1.696   3.513   0.967 -1.0686 -0.0676 -0.2515
13961TIP3    H163374   1.624   3.493   0.906 -1.6745  1.5358 -0.1223
13961TIP3    H263375   1.665   3.480   1.052 -1.0685 -0.5901 -0.4560
13962TIP3   OH263376   1.602   0.637   0.431 -0.2499 -0.5176  0.4325
13962TIP3    H163377   1.685   0.671   0.464 -1.4485  0.7656  2.3228
13962TIP3    H263378   1.609   0.643   0.336  0.9963  1.6048  0.6135
13963TIP3   OH263379   2.533   0.428  13.380 -0.9281  0.0362 -0.2752
13963TIP3    H163380   2.573   0.408  13.296 -0.2838 -0.1520  0.0695
13963TIP3    H263381   2.592   0.388  13.445 -1.0278  0.7928  0.2958
13964TIP3   OH263382   1.621   3.760   1.970 -0.0851  0.1878 -0.1994
13964TIP3    H163383   1.588   3.848   1.952  1.1863  0.6293 -0.4498
13964TIP3    H263384   1.643   3.761   2.063 -1.9697 -0.5389  0.3167
13965TIP3   OH263385   6.155   5.931  11.174 -0.1003  0.0571  0.4140
13965TIP3    H163386   6.223   5.878  11.132 -0.5669 -1.5970  1.6679
13965TIP3    H263387   6.156   6.014  11.125  1.8778 -0.4216 -0.4455
13966TIP3   OH263388   0.687   2.613   0.773  0.7428 -0.0429 -0.4966
13966TIP3    H163389   0.715   2.582   0.686  0.0937 -0.6872 -0.4763
13966TIP3    H263390   0.606   2.660   0.756  0.8097  0.1528 -0.2806
13967TIP3   OH263391   3.834   4.323   2.367  0.1344 -0.4577  0.7701
13967TIP3    H163392   3.779   4.244   2.369  2.3633 -2.0963  2.0417
13967TIP3    H263393   3.876   4.325   2.453  0.8422  1.6398  0.4217
13968TIP3   OH263394   1.810   2.498   0.654  0.2192  0.0732  0.4937
13968TIP3    H163395   1.870   2.570   0.670  1.0059 -0.3040 -0.6079
13968TIP3    H263396   1.831   2.433   0.722  1.5444 -0.3318 -0.2672
13969TIP3   OH263397   5.132   4.006   4.760  0.0673  0.2506 -0.4765
13969TIP3    H163398   5.076   4.073   4.722 -0.4688 -0.2342 -0.5541
13969TIP3    H263399   5.101   3.924   4.721  0.2384 -0.1214  0.1581
13970TIP3   OH263400   4.384   3.223   5.104  0.5139 -0.2691  0.4037
13970TIP3    H163401   4.448   3.153   5.090  0.9592 -0.0810  1.4563
13970TIP3    H263402   4.322   3.212   5.032  1.0547 -1.2050  0.0539
13971TIP3   OH263403   2.856   4.935   6.052  0.2252  0.2862  0.1292
13971TIP3    H163404   2.880   4.927   6.144 -0.5127 -1.5866  0.2019
13971TIP3    H263405   2.939   4.946   6.006  0.6209  0.9426  0.9588
13972TIP3   OH263406   5.073   0.009  16.022 -0.3308  0.4652  0.1759
13972TIP3    H163407   5.106   0.085  15.973 -2.0504  0.7481 -0.6059
13972TIP3    H263408   5.056  -0.057  15.955  2.2280 -1.1378  0.9347
13973TIP3   OH263409   4.509   2.553  10.957  0.5613 -0.1964  0.4608
13973TIP3    H163410   4.479   2.472  10.916 -0.3460  0.7903 -0.9072
13973TIP3    H263411   4.485   2.622  10.895 -0.6064  1.3561  2.5198
13974TIP3   OH263412   0.275   6.581   2.063 -0.0262 -0.3723  0.2163
13974TIP3    H163413   0.189   6.618   2.041 -0.2930  0.3101  2.2177
13974TIP3    H263414   0.337   6.651   2.047 -0.2928  0.3404  2.0332
13975TIP3   OH263415   2.656   6.772  10.561  0.4359 -0.2455  0.1898
13975TIP3    H163416   2.619   6.742  10.644 -2.5476  1.0552 -0.5338
13975TIP3    H263417   2.647   6.867  10.563 -1.9146 -0.2574 -2.4276
13976TIP3   OH263418   5.601   6.258   2.256  0.3324 -0.0006 -0.1852
13976TIP3    H163419   5.652   6.212   2.322  1.5434 -0.3978 -1.3458
13976TIP3    H263420   5.667   6.306   2.205 -0.4956 -0.1167 -1.4021
13977TIP3   OH263421   1.683   0.902   0.960  0.1670 -0.3874 -0.4923
13977TIP3    H163422   1.695   0.982   0.909 -0.5832  0.7747  1.0618
13977TIP3    H263423   1.739   0.837   0.917  2.2130  1.4453 -0.7347
13978TIP3   OH263424   3.541   1.519   4.062 -0.0109  0.8094  0.0005
13978TIP3    H163425   3.565   1.526   4.155  1.1160  0.4140 -0.2466
13978TIP3    H263426   3.468   1.458   4.061  1.0924 -0.5656  0.4696
13979TIP3   OH263427   5.663   2.554  13.792 -0.3313 -0.3479  0.1427
13979TIP3    H163428   5.644   2.542  13.699  0.0029 -1.4845  0.2111
13979TIP3    H263429   5.582   2.530  13.837 -0.3657 -0.1760  0.1762
13980TIP3   OH263430   1.849   4.319   3.031  0.7755 -0.4096 -0.0827
13980TIP3    H163431   1.818   4.308   2.942 -0.8039  0.4213  0.3325
13980TIP3    H263432   1.817   4.241   3.077 -0.3201  0.2190  0.2391
13981TIP3   OH263433   3.876   5.529  13.582  0.0148 -0.5942  0.7124
13981TIP3    H163434   3.819   5.559  13.511  0.8711  2.1754  1.0743
13981TIP3    H263435   3.907   5.610  13.624  2.3417 -2.0300  1.9982
13982TIP3   OH263436   1.709   1.073  13.508  0.2531 -1.1319 -0.3084
13982TIP3    H163437   1.677   0.999  13.457 -1.7017 -1.5045  1.3205
13982TIP3    H263438   1.645   1.082  13.579  1.6108  0.7783  0.7498
13983TIP3   OH263439   4.530   4.513  16.917 -0.6294 -0.0170  0.2144
13983TIP3    H163440   4.555   4.421  16.902 -1.1140 -0.1775  0.3832
13983TIP3    H263441   4.606   4.552  16.961 -0.2029 -0.1965 -0.3527
13984TIP3   OH263442   0.222   3.213  14.912  0.4800 -0.2270 -0.0316
13984TIP3    H163443   0.260   3.157  14.844 -3.2982 -1.9254 -0.9972
13984TIP3    H263444   0.229   3.161  14.992 -0.3506 -0.8695 -0.3547
13985TIP3   OH263445   6.469   4.955  12.596  0.3767 -0.1253  0.1158
13985TIP3    H163446   6.458   4.860  12.593 -0.6824 -0.1368  2.3767
13985TIP3    H263447   6.379   4.989  12.599  0.7396  0.9814 -0.8716
13986TIP3   OH263448   3.964   1.153  15.551  0.0276 -0.4448 -0.3282
13986TIP3    H163449   4.023   1.218  15.589  0.2446 -1.0539  0.4091
13986TIP3    H263450   4.018   1.074  15.543 -0.2195 -0.5296 -1.2550
13987TIP3   OH263451   5.276   5.084   3.128  0.0518 -0.8812 -0.5396
13987TIP3    H163452   5.325   5.044   3.056 -1.4062 -0.3845 -1.8544
13987TIP3    H263453   5.269   5.015   3.193  1.8433 -1.1871 -0.6172
13988TIP3   OH263454   0.360   4.123   0.686 -0.4233 -0.1510  0.3810
13988TIP3    H163455   0.274   4.165   0.684  0.7442  2.5125  1.5199
13988TIP3    H263456   0.366   4.084   0.773 -0.7825 -1.1535 -0.0231
13989TIP3   OH263457   0.780   1.751   0.342  0.6112  0.5306  0.6115
13989TIP3    H163458   0.819   1.711   0.420 -1.1572 -0.5348  1.0076
13989TIP3    H263459   0.694   1.781   0.371 -1.0049 -1.8078 -1.3216
13990TIP3   OH263460   0.836   4.840   5.926 -0.0304  0.2508 -0.2838
13990TIP3    H163461   0.826   4.807   5.837  1.9734 -1.4586  0.0387
13990TIP3    H263462   0.747   4.839   5.962 -0.6170 -0.8803 -1.6555
13991TIP3   OH263463   6.294   2.230   1.235 -0.3113  0.5226 -0.0834
13991TIP3    H163464   6.299   2.248   1.329 -1.0843  0.7748 -0.0815
13991TIP3    H263465   6.256   2.143   1.229 -0.1529  0.4584 -0.1630
13992TIP3   OH263466   5.801   3.590   5.085 -0.1831  0.6670 -0.3027
13992TIP3    H163467   5.761   3.622   5.166  0.4274  2.8731 -0.8217
13992TIP3    H263468   5.866   3.526   5.114 -1.8573 -0.6379  0.7416
13993TIP3   OH263469   0.850   0.479  13.971  0.0148  0.1459 -0.0504
13993TIP3    H163470   0.832   0.504  13.880  2.0785  0.3724 -0.4447
13993TIP3    H263471   0.939   0.509  13.986  0.0679 -0.8218  1.7383
13994TIP3   OH263472   2.883   4.567  17.084 -0.4663  0.5764  0.3565
13994TIP3    H163473   2.930   4.646  17.059 -0.3620  0.1687 -0.8041
13994TIP3    H263474   2.795   4.598  17.108 -0.3012  1.0834  0.3195
13995TIP3   OH263475   1.323   6.423   4.824  0.0641 -0.0005  0.2714
13995TIP3    H163476   1.309   6.497   4.883  2.0727 -0.0948  0.9567
13995TIP3    H263477   1.290   6.347   4.873  0.2902  0.1255  0.6256
13996TIP3   OH263478   2.847   4.679   6.546  0.3053 -0.4398 -0.3415
13996TIP3    H163479   2.901   4.642   6.476  0.9083  1.2765 -0.8215
13996TIP3    H263480   2.821   4.603   6.599  2.5123 -1.4025 -0.5526
13997TIP3   OH263481   3.695   6.052   4.947 -0.0567 -0.6055  0.2473
13997TIP3    H163482   3.611   6.081   4.910  0.1919 -1.8049 -1.3379
13997TIP3    H263483   3.673   5.977   5.002 -0.1015 -0.5158  0.3517
13998TIP3   OH263484   2.715   1.325  15.306  0.1076 -0.1568 -0.4396
13998TIP3    H163485   2.744   1.345  15.217  0.2724  1.1547 -0.1190
13998TIP3    H263486   2.776   1.259  15.338 -0.9766 -1.9595 -1.8716
13999TIP3   OH263487   3.339   6.112   0.852 -0.2764 -0.7069 -0.6972
13999TIP3    H163488   3.312   6.148   0.768 -0.7487  1.5222  0.3142
13999TIP3    H263489   3.258   6.109   0.903  0.4353  1.0332  0.6581
14000TIP3   OH263490   5.276   6.402   0.835 -0.5074 -0.0402  0.3548
14000TIP3    H163491   5.318   6.398   0.920 -1.3876  1.4069  0.8952
14000TIP3    H263492   5.349   6.406   0.772  0.1562  0.5844  1.1446
14001TIP3   OH263493   5.007   0.797   2.724  0.3976 -0.3437  0.0197
14001TIP3    H163494   5.066   0.858   2.680 -1.4315  1.2236 -0.4261
14001TIP3    H263495   4.960   0.754   2.652 -0.0843 -0.4225  0.3740
14002TIP3   OH263496   0.933   4.576   3.665  0.7075  0.1393  0.4677
14002TIP3    H163497   0.949   4.629   3.743  0.6099 -0.9962  1.2884
14002TIP3    H263498   0.982   4.495   3.680  1.2039  0.1456 -0.9524
14003TIP3   OH263499   1.921   0.847   6.043  0.5601  0.5431 -0.5975
14003TIP3    H163500   1.829   0.857   6.065  0.7955 -1.6754  1.8502
14003TIP3    H263501   1.964   0.925   6.078  0.0075  0.0459  1.3023
14004TIP3   OH263502   4.737   3.683   3.759 -0.4320  0.1084 -0.1981
14004TIP3    H163503   4.776   3.682   3.672 -0.2196 -1.9904 -0.1416
14004TIP3    H263504   4.669   3.749   3.754  0.5435  1.0745 -1.4934
14005TIP3   OH263505   4.739   0.769  13.320  0.2362  0.1409 -0.3696
14005TIP3    H163506   4.660   0.799  13.364  0.8319  0.0048  0.8250
14005TIP3    H263507   4.767   0.844  13.268 -0.7510  0.1401 -0.9250
14006TIP3   OH263508   5.727   3.777   2.965  0.2212  0.0959 -0.1722
14006TIP3    H163509   5.764   3.706   3.017 -1.5546  0.9338  2.4364
14006TIP3    H263510   5.644   3.743   2.933  0.0887  0.4825 -0.2437
14007TIP3   OH263511   2.562   0.630  13.704  0.3670 -0.1787 -0.0631
14007TIP3    H163512   2.558   0.535  13.695 -0.6361 -0.2934  1.3829
14007TIP3    H263513   2.655   0.650  13.694  0.6307 -1.3360 -0.1025
14008TIP3   OH263514   4.300   4.418   0.600  0.2847  0.2255  0.6180
14008TIP3    H163515   4.284   4.504   0.638  1.6265  0.9420 -0.3924
14008TIP3    H263516   4.352   4.372   0.665  0.5031  0.5672  0.6836
14009TIP3   OH263517   0.901   0.434  12.531 -0.8267 -0.2389  0.3405
14009TIP3    H163518   0.962   0.508  12.526 -0.2204 -0.5969  1.8889
14009TIP3    H263519   0.939   0.368  12.472 -0.1590 -0.1453  0.6545
14010TIP3   OH263520   5.018   1.636  17.062 -0.0827 -0.5414  0.1658
14010TIP3    H163521   4.995   1.577  16.990  0.4829 -0.0807 -0.3987
14010TIP3    H263522   4.960   1.711  17.052 -1.5479 -1.4342  1.5134
14011TIP3   OH263523   6.539   1.595  13.291  0.2491 -0.1431  0.4414
14011TIP3    H163524   6.494   1.591  13.376 -0.6423 -3.1527 -0.0585
14011TIP3    H263525   6.470   1.580  13.226  1.2924 -0.3630 -0.6539
14012TIP3   OH263526   3.163   5.550   3.692  0.2255 -0.0000 -0.1328
14012TIP3    H163527   3.232   5.553   3.758 -0.5116 -2.2088  0.8537
14012TIP3    H263528   3.203   5.586   3.613  1.4958  1.6562  1.1963
14013TIP3   OH263529   3.773   5.193   5.279  0.0529  0.8046 -0.4082
14013TIP3    H163530   3.860   5.156   5.264  0.1449  0.5816  0.5919
14013TIP3    H263531   3.714   5.139   5.227  0.1341 -1.0729  1.3262
14014TIP3   OH263532   6.446   2.691  13.125  0.0227 -0.2499  0.5079
14014TIP3    H163533   6.525   2.641  13.103  0.6077  1.6569 -2.3049
14014TIP3    H263534   6.374   2.632  13.101  0.6820 -0.3406 -1.4428
14015TIP3   OH263535   3.510   3.410  16.126  0.6077  0.1727 -0.4845
14015TIP3    H163536   3.517   3.489  16.073 -1.1854 -0.1016 -1.1893
14015TIP3    H263537   3.503   3.339  16.062 -1.8456 -0.1524  0.0567
14016TIP3   OH263538   2.913   0.110  13.996  0.3066 -0.1968 -0.3861
14016TIP3    H163539   2.912   0.204  13.975  0.0831 -0.1157 -0.0146
14016TIP3    H263540   2.947   0.105  14.085 -1.6440 -0.2927  0.3995
14017TIP3   OH263541   0.141   0.663   1.560 -0.4213 -0.3332  0.3029
14017TIP3    H163542   0.156   0.735   1.621  1.5655 -1.3229  1.0800
14017TIP3    H263543   0.086   0.701   1.492 -1.0654  1.3616  1.6708
14018TIP3   OH263544   3.661   6.776  16.930  0.1666  0.0206 -0.4423
14018TIP3    H163545   3.718   6.848  16.957  1.0959 -0.8081 -0.1156
14018TIP3    H263546   3.711   6.729  16.864 -0.1985 -0.6332 -0.2646
14019TIP3   OH263547   2.277   1.562  13.415 -0.8683  0.2889 -0.5848
14019TIP3    H163548   2.323   1.592  13.493 -0.3931 -0.7237 -0.4578
14019TIP3    H263549   2.205   1.624  13.403 -1.4166  0.0086  1.0930
14020TIP3   OH263550   2.637   0.352  12.095 -0.4202 -0.5406  0.3111
14020TIP3    H163551   2.629   0.407  12.016 -1.3738 -0.0021  0.7697
14020TIP3    H263552   2.586   0.273  12.075 -0.0060 -0.7565  0.0938
14021TIP3   OH263553   0.015   6.481  13.314 -0.2419 -0.5248  0.2948
14021TIP3    H163554  -0.060   6.526  13.275  0.3094  0.9961  0.9254
14021TIP3    H263555   0.069   6.551  13.350  0.4906 -1.7243  1.6174
14022TIP3   OH263556   3.818   2.918  10.713 -0.6030 -0.2123 -0.5916
14022TIP3    H163557   3.824   3.001  10.665 -3.1565 -0.7410 -2.0113
14022TIP3    H263558   3.893   2.867  10.682  1.2111  1.5845  0.5533
14023TIP3   OH263559   3.328   6.300   4.646 -0.6045  0.7813 -0.0515
14023TIP3    H163560   3.329   6.289   4.551 -0.0327  1.0284 -0.0800
14023TIP3    H263561   3.312   6.394   4.658 -1.5116  0.6149  0.1156
14024TIP3   OH263562   4.889   0.767  14.257 -0.0587  0.7058  0.6054
14024TIP3    H163563   4.798   0.793  14.273 -0.4060  0.0989 -0.2924
14024TIP3    H263564   4.940   0.820  14.318 -0.7885  2.8305 -0.5023
14025TIP3   OH263565   4.041   2.565  12.427 -0.1664  0.4764 -0.2311
14025TIP3    H163566   4.037   2.575  12.332 -1.4644  1.1297 -0.1295
14025TIP3    H263567   3.950   2.553  12.453  0.2540 -0.4995  0.8618
14026TIP3   OH263568   4.761   6.524   3.183  0.0970  0.0783 -0.0201
14026TIP3    H163569   4.675   6.482   3.190  0.2355 -0.1750  0.1868
14026TIP3    H263570   4.808   6.471   3.119  0.5310 -0.5338  0.7920
14027TIP3   OH263571   4.111   2.395  15.215  0.0914 -0.2915  0.2611
14027TIP3    H163572   4.119   2.319  15.273 -0.4154 -0.7007 -0.1888
14027TIP3    H263573   4.155   2.466  15.262  0.0071 -0.7004  0.9763
14028TIP3   OH263574   1.064   3.982   0.598  0.1173  0.4328 -0.2961
14028TIP3    H163575   1.095   3.898   0.632 -1.9946  0.3049  1.5556
14028TIP3    H263576   0.976   3.962   0.564 -0.5728  1.9542  0.5280
14029TIP3   OH263577   4.389   0.306  16.687  0.0079 -0.3633  0.8173
14029TIP3    H163578   4.315   0.360  16.714  1.6297  1.4054  2.0224
14029TIP3    H263579   4.353   0.219  16.675 -2.1852  0.3709  1.6815
14030TIP3   OH263580   4.659   1.849  16.644  0.4032 -0.2518  0.6920
14030TIP3    H163581   4.576   1.804  16.627  0.1812  0.7096 -0.9570
14030TIP3    H263582   4.637   1.918  16.706  0.1497 -0.5468  0.9305
14031TIP3   OH263583   6.568   1.198   3.027 -0.2397 -0.5235 -0.4870
14031TIP3    H163584   6.618   1.141   2.969 -0.7026  0.3990 -1.8511
14031TIP3    H263585   6.624   1.274   3.041 -0.6461 -0.1568 -0.8055
14032TIP3   OH263586   3.520   5.423  14.165  0.0158  0.7022 -0.1536
14032TIP3    H163587   3.571   5.355  14.120 -0.1332  1.3284 -1.2986
14032TIP3    H263588   3.555   5.423  14.254  1.4711  0.5610 -0.6993
14033TIP3   OH263589   3.349   1.168   1.753  0.0927  0.2369  0.3192
14033TIP3    H163590   3.404   1.089   1.752  0.5889  0.5809 -0.3072
14033TIP3    H263591   3.260   1.135   1.748  0.1950 -0.3608  1.9144
14034TIP3   OH263592   1.150   3.134  14.971  0.4623 -0.0989 -0.0193
14034TIP3    H163593   1.149   3.214  15.024  0.8235  2.0999 -3.0765
14034TIP3    H263594   1.071   3.086  14.998 -0.2633  1.7042  1.2718
14035TIP3   OH263595   2.347   4.002   5.146  0.5795 -0.0317 -0.1049
14035TIP3    H163596   2.272   4.021   5.090  1.0317 -1.5623 -1.3034
14035TIP3    H263597   2.350   4.074   5.209 -0.0365  1.6685 -1.9421
14036TIP3   OH263598   3.668   4.690  11.397 -0.0291  0.3676 -0.0905
14036TIP3    H163599   3.678   4.640  11.478 -1.2749  1.0484  0.5185
14036TIP3    H263600   3.660   4.624  11.328 -4.6966 -0.5678  1.0094
14037TIP3   OH263601   0.937   4.199   0.791 -0.3179 -0.0880 -0.1619
14037TIP3    H163602   0.983   4.149   0.724  0.0329 -0.1657  0.1322
14037TIP3    H263603   0.948   4.148   0.871 -0.0642  0.3935  0.1148
14038TIP3   OH263604   4.848   1.996  16.845  0.7720 -0.3396 -0.1380
14038TIP3    H163605   4.935   2.036  16.835  0.0351  1.3945  0.1148
14038TIP3    H263606   4.787   2.062  16.813 -0.3876 -2.2895 -2.2396
14039TIP3   OH263607   3.759   5.867   2.185  0.3588  0.3905  0.7130
14039TIP3    H163608   3.855   5.876   2.191  0.3564 -0.0194  1.4141
14039TIP3    H263609   3.732   5.843   2.273 -0.4636  1.1150  0.6648
14040TIP3   OH263610   2.576   4.904   6.335 -0.2422  0.2799 -0.5253
14040TIP3    H163611   2.643   4.898   6.403 -0.2229 -1.0406 -0.6467
14040TIP3    H263612   2.518   4.974   6.365 -1.1009 -1.2598  1.6456
14041TIP3   OH263613   3.013   5.546   1.748 -0.0808 -0.0991 -0.4527
14041TIP3    H163614   3.049   5.503   1.671  1.3159  1.2255 -0.5791
14041TIP3    H263615   3.067   5.624   1.760 -1.5623  0.8136  0.6690
14042TIP3   OH263616   2.326   1.327  17.005 -0.3312 -0.2550  0.2545
14042TIP3    H163617   2.400   1.267  17.006 -0.7654 -0.8029 -0.0128
14042TIP3    H263618   2.267   1.293  16.938 -1.2290 -0.3259  1.0484
14043TIP3   OH263619   0.965   0.280   3.183  0.2030  0.1519  0.0151
14043TIP3    H163620   0.903   0.208   3.190 -1.1094  1.3206  1.1221
14043TIP3    H263621   0.911   0.357   3.164  1.2811  1.2212  1.0614
14044TIP3   OH263622   0.428   5.951  11.719 -0.1480 -0.5260  0.6035
14044TIP3    H163623   0.518   5.984  11.713 -0.0910 -0.8987 -1.0504
14044TIP3    H263624   0.435   5.858  11.699 -0.6457 -1.0758  2.7074
14045TIP3   OH263625   2.798   2.973  16.243  0.5223  0.4573  0.3246
14045TIP3    H163626   2.716   3.021  16.229  0.5340  0.6213  0.8035
14045TIP3    H263627   2.830   2.954  16.155  0.0928  0.6041  0.1346
14046TIP3   OH263628   4.648   5.343  15.233 -0.2417 -0.3238  0.1184
14046TIP3    H163629   4.674   5.257  15.264  0.3489 -0.1536  0.1023
14046TIP3    H263630   4.692   5.353  15.149 -0.5791 -0.1422 -0.0405
14047TIP3   OH263631   0.306   2.752  15.075  0.1991  0.7062  0.1839
14047TIP3    H163632   0.355   2.682  15.034 -0.4014 -0.5634  1.5574
14047TIP3    H263633   0.235   2.771  15.013 -0.7036 -1.1861  0.5776
14048TIP3   OH263634   2.595   5.983  12.105  0.2856 -0.0705 -0.0228
14048TIP3    H163635   2.516   6.009  12.153  0.8318 -1.0104  1.4678
14048TIP3    H263636   2.609   5.892  12.131  0.6046 -0.6428 -2.0554
14049TIP3   OH263637   2.813   0.928  16.067 -0.3806 -0.7633 -0.1193
14049TIP3    H163638   2.859   0.900  16.146 -1.3380 -0.6495  0.4864
14049TIP3    H263639   2.749   0.860  16.050 -1.6043  0.2127  0.4166
14050TIP3   OH263640   3.092   1.509   0.727  0.1425  0.0252  0.2572
14050TIP3    H163641   3.176   1.549   0.706 -0.3092  0.7835 -0.1835
14050TIP3    H263642   3.072   1.538   0.815 -0.8881  2.0883 -0.5959
14051TIP3   OH263643   3.346   3.080  11.469  0.0686  0.2562  0.2954
14051TIP3    H163644   3.424   3.027  11.485  0.5285  1.1769  1.2180
14051TIP3    H263645   3.273   3.018  11.475  0.7304 -0.7148 -1.0931
14052TIP3   OH263646   0.742   1.510   0.949 -0.0210  0.5176 -0.0132
14052TIP3    H163647   0.723   1.466   1.032 -1.2823  0.7252 -0.1810
14052TIP3    H263648   0.730   1.442   0.883  0.4447  0.4990 -0.0869
14053TIP3   OH263649   2.154   3.859   6.056  0.5757  0.0667  0.0208
14053TIP3    H163650   2.234   3.822   6.019  1.5027  0.6136  1.4226
14053TIP3    H263651   2.144   3.944   6.013  0.7862  0.0343 -0.0927
14054TIP3   OH263652   3.929   5.158   1.050 -0.6006  0.8127 -0.0506
14054TIP3    H163653   3.998   5.126   1.109 -1.2886 -0.9432 -0.1266
14054TIP3    H263654   3.973   5.170   0.966 -0.4245 -0.6384 -0.1949
14055TIP3   OH263655   0.477   1.347  15.393 -0.2481 -0.1155  0.0172
14055TIP3    H163656   0.436   1.266  15.423  0.0360 -0.3945 -0.3446
14055TIP3    H263657   0.430   1.416  15.440 -0.0550 -0.5230  0.8431
14056TIP3   OH263658   5.122   1.014   5.569 -0.4343  0.3210  0.0069
14056TIP3    H163659   5.208   0.984   5.541 -0.7605 -0.0698 -0.5998
14056TIP3    H263660   5.140   1.085   5.630  0.3196  0.1152  0.0347
14057TIP3   OH263661   6.369   2.795   2.300  0.5795  0.2862 -0.0896
14057TIP3    H163662   6.293   2.847   2.276  0.1306 -0.3398 -0.0328
14057TIP3    H263663   6.430   2.806   2.227  0.6789  1.2429  0.1208
14058TIP3   OH263664   0.119   4.149  16.691 -0.1299 -0.4520  0.5105
14058TIP3    H163665   0.083   4.201  16.762  0.4194 -0.8822  1.1166
14058TIP3    H263666   0.084   4.061  16.706  0.5595 -0.7011  0.6584
14059TIP3   OH263667   2.333   4.356   5.828  0.5376  0.0807 -0.3436
14059TIP3    H163668   2.288   4.366   5.744 -1.5222  1.2171  0.8154
14059TIP3    H263669   2.401   4.423   5.827 -1.5589  2.3185  0.1157
14060TIP3   OH263670   0.379   2.070  15.669 -0.1999 -0.3512  0.2164
14060TIP3    H163671   0.317   2.101  15.604 -0.8983  0.1549  1.0871
14060TIP3    H263672   0.464   2.075  15.626 -0.7749 -1.2639 -1.0695
14061TIP3   OH263673   5.579   2.566  14.597 -0.9757  0.1246  0.4267
14061TIP3    H163674   5.502   2.615  14.628 -1.4901 -0.0672 -0.5128
14061TIP3    H263675   5.574   2.482  14.643 -1.4952  0.0076  0.1676
14062TIP3   OH263676   2.385   1.645   0.921  0.4416 -0.5262  0.5097
14062TIP3    H163677   2.346   1.585   0.984  0.7560  0.1523  1.3702
14062TIP3    H263678   2.314   1.706   0.899  0.9331  0.6311  1.9789
14063TIP3   OH263679   4.524   6.178  13.080 -0.3006 -0.1397 -0.3872
14063TIP3    H163680   4.577   6.117  13.030  0.3617  0.2993 -0.2291
14063TIP3    H263681   4.556   6.264  13.055 -0.5646  0.1129  0.1261
14064TIP3   OH263682   1.805   4.183  15.030 -0.0477 -0.0308  0.0226
14064TIP3    H163683   1.799   4.097  15.073  2.1820  0.4199  1.3916
14064TIP3    H263684   1.730   4.232  15.063 -1.8426 -1.6704 -1.4261
14065TIP3   OH263685   5.611   0.829  10.636  0.0600  0.1606 -0.2041
14065TIP3    H163686   5.531   0.859  10.592 -1.3323 -1.8471  0.8047
14065TIP3    H263687   5.624   0.892  10.707 -0.1292  0.9803 -0.8808
14066TIP3   OH263688   4.167   3.344  14.587 -0.3472 -0.2267 -0.7135
14066TIP3    H163689   4.108   3.286  14.636  0.4874 -1.0952 -0.7097
14066TIP3    H263690   4.151   3.322  14.496 -0.3364 -0.1511 -0.7340
14067TIP3   OH263691   5.173   2.691   2.543 -0.5955  0.1377  0.4566
14067TIP3    H163692   5.265   2.684   2.518 -0.7008 -1.1522  0.3241
14067TIP3    H263693   5.126   2.650   2.470 -1.2870  0.8562  0.4853
14068TIP3   OH263694   6.031   0.483  16.041  0.3016 -0.0179  0.3101
14068TIP3    H163695   6.013   0.398  16.082  0.3359 -0.8252 -1.2576
14068TIP3    H263696   6.126   0.485  16.030  0.2965  0.2091  0.3057
14069TIP3   OH263697   1.113   1.046  10.991  0.8677 -0.8237  0.0618
14069TIP3    H163698   1.052   0.992  10.942  1.9852 -1.1982 -0.9525
14069TIP3    H263699   1.156   1.101  10.925  1.1912 -0.1220  0.8300
14070TIP3   OH263700   3.958   2.702  11.859 -0.3186 -0.2831 -0.3947
14070TIP3    H163701   3.947   2.794  11.884  1.7111 -0.4426  1.3228
14070TIP3    H263702   3.960   2.704  11.763 -1.0354  1.3317 -0.4194
14071TIP3   OH263703   3.829   4.991  11.661  0.4304 -0.5059 -0.1669
14071TIP3    H163704   3.769   5.059  11.693 -0.2395 -0.0195 -2.2699
14071TIP3    H263705   3.916   5.031  11.667  0.3471 -0.4792  1.0803
14072TIP3   OH263706   3.171   4.287  15.978 -0.0207  0.0035  0.3780
14072TIP3    H163707   3.080   4.264  15.959 -0.1530 -0.5685  1.5812
14072TIP3    H263708   3.172   4.305  16.072  1.4123 -1.6253  0.7427
14073TIP3   OH263709   2.999   2.333  11.287 -0.8545 -0.0490  0.5521
14073TIP3    H163710   3.045   2.376  11.359 -0.4054  0.2774  0.0778
14073TIP3    H263711   2.947   2.403  11.247 -1.7601 -0.4097  1.0697
14074TIP3   OH263712   1.923   1.961   1.125 -0.1728 -0.5251  0.4369
14074TIP3    H163713   1.967   2.043   1.104  0.2061 -1.1981 -1.6672
14074TIP3    H263714   1.995   1.899   1.139 -0.4223 -1.1018 -0.7252
14075TIP3   OH263715   3.308   4.270  11.646 -0.0934 -0.3392 -0.2824
14075TIP3    H163716   3.291   4.259  11.552  1.4330 -3.1657 -0.3346
14075TIP3    H263717   3.242   4.216  11.689 -0.4080  0.4692  0.2679
14076TIP3   OH263718   4.293   5.231  16.389  0.2211  0.0083 -0.0968
14076TIP3    H163719   4.220   5.249  16.449  0.3333 -1.1695  0.4155
14076TIP3    H263720   4.289   5.137  16.373  2.0157 -0.2171  0.4932
14077TIP3   OH263721   5.187   4.270   4.378 -0.6530 -0.1138 -0.1070
14077TIP3    H163722   5.232   4.243   4.459  0.3535  0.0503 -0.5923
14077TIP3    H263723   5.181   4.189   4.327  2.7318  0.4674 -1.7374
14078TIP3   OH263724   1.693   3.756  11.276 -0.1088 -0.0460 -0.1289
14078TIP3    H163725   1.704   3.730  11.184 -1.8733 -0.3222 -0.3002
14078TIP3    H263726   1.681   3.673  11.323  0.2756  0.1258  0.2849
14079TIP3   OH263727   6.752   6.020  16.682 -0.0264  0.0847  0.4310
14079TIP3    H163728   6.659   6.037  16.669 -0.5135 -1.9847  0.7679
14079TIP3    H263729   6.782   6.092  16.738 -1.7382  0.1163  1.3875
14080TIP3   OH263730   5.928   5.958   3.041  0.0699  0.0062 -0.1116
14080TIP3    H163731   5.894   5.869   3.035  0.7426 -0.2444 -0.2727
14080TIP3    H263732   5.893   6.003   2.965  1.2390 -0.6484 -1.0723
14081TIP3   OH263733   0.624   5.657  12.011  0.6464 -0.1023  0.0417
14081TIP3    H163734   0.529   5.642  12.007  0.6432 -0.4804  1.2176
14081TIP3    H263735   0.643   5.707  11.931 -0.2137 -1.7394 -1.2704
14082TIP3   OH263736   0.047   1.205  15.102  0.0541  0.7105 -0.3067
14082TIP3    H163737   0.071   1.235  15.014 -0.0706  2.7910  0.3119
14082TIP3    H263738  -0.012   1.273  15.135 -0.5884 -0.4714  1.0804
14083TIP3   OH263739   4.056   3.416   6.243 -0.6329 -0.3824 -0.9093
14083TIP3    H163740   3.969   3.390   6.272 -0.7404  0.4928 -0.4038
14083TIP3    H263741   4.067   3.505   6.277  1.9787 -1.7490  2.4385
14084TIP3   OH263742   5.297   2.232  14.721  0.1780  0.0065  0.7912
14084TIP3    H163743   5.316   2.192  14.805 -0.9840 -0.1148  1.0185
14084TIP3    H263744   5.259   2.317  14.743 -0.9485 -0.3789  0.4447
14085TIP3   OH263745   1.040   1.731   1.432 -0.3492  1.1781 -0.6536
14085TIP3    H163746   1.008   1.763   1.347 -0.5029  2.4410 -0.1378
14085TIP3    H263747   1.023   1.803   1.493  0.4515  0.5810  0.3052
14086TIP3   OH263748   6.285   4.529   6.013  0.3193  0.3754  0.2584
14086TIP3    H163749   6.281   4.625   6.011  0.1790  0.4820  2.8227
14086TIP3    H263750   6.377   4.509   6.030  0.0253  0.1746  1.7714
14087TIP3   OH263751   6.319   0.565  10.881 -0.4087 -0.1596  0.1928
14087TIP3    H163752   6.343   0.656  10.894  0.2150 -0.1220 -1.0390
14087TIP3    H263753   6.237   0.554  10.929 -1.8185  1.6877 -1.6386
14088TIP3   OH263754   3.232   4.236   1.031  0.5754 -0.1863 -0.4764
14088TIP3    H163755   3.315   4.211   1.071  1.1622  1.3152 -0.6602
14088TIP3    H263756   3.258   4.294   0.958 -0.6430  0.8304 -0.1326
14089TIP3   OH263757   1.793   2.605   1.302 -0.4558  0.2951  0.6518
14089TIP3    H163758   1.783   2.542   1.231 -0.5025 -1.5016  2.1644
14089TIP3    H263759   1.741   2.681   1.275 -1.8917 -1.0254 -0.4530
14090TIP3   OH263760   1.163   4.526  16.212 -0.3160 -0.0980 -0.4794
14090TIP3    H163761   1.225   4.519  16.284 -0.0362  1.0350 -0.5893
14090TIP3    H263762   1.202   4.473  16.142 -0.9093 -1.7360  0.3800
14091TIP3   OH263763   6.348   1.712  11.866  0.0646  0.2887  0.5981
14091TIP3    H163764   6.256   1.703  11.842  0.5658  1.0508 -1.7916
14091TIP3    H263765   6.350   1.785  11.929 -0.9267  0.4007  0.5051
14092TIP3   OH263766   6.303   1.647  13.137 -0.3462 -0.6803  0.6892
14092TIP3    H163767   6.240   1.642  13.209  0.3434  0.5717  1.4203
14092TIP3    H263768   6.249   1.646  13.058 -1.4132  1.3664  1.3086
14093TIP3   OH263769   5.854   2.248   2.212  0.2432 -0.1108  0.1167
14093TIP3    H163770   5.901   2.199   2.145 -0.0258 -0.5339  0.2289
14093TIP3    H263771   5.909   2.241   2.290 -0.1813 -0.9544  0.3618
14094TIP3   OH263772   0.373   5.529  11.920 -0.2240 -0.4342  0.4496
14094TIP3    H163773   0.360   5.458  11.982 -1.6013 -0.4133  0.2268
14094TIP3    H263774   0.395   5.486  11.838  3.3009 -0.4115  1.2397
14095TIP3   OH263775   6.786   0.186  14.783 -0.4339  0.0077 -0.3548
14095TIP3    H163776   6.694   0.210  14.791 -0.7197 -0.7462 -1.2140
14095TIP3    H263777   6.801   0.123  14.854  0.0787  1.8968  1.3156
14096TIP3   OH263778   3.247   5.454   2.304  0.3068 -0.0216 -0.3726
14096TIP3    H163779   3.243   5.547   2.322  0.8676  0.0983 -0.8092
14096TIP3    H263780   3.232   5.447   2.209  0.9734 -0.3036 -0.4657
14097TIP3   OH263781   3.985   1.797  12.802  0.4354  0.5128  0.1342
14097TIP3    H163782   3.975   1.711  12.842 -0.7641  0.7269  0.3544
14097TIP3    H263783   3.918   1.799  12.733  2.4311  0.1636 -1.9210
14098TIP3   OH263784   0.198   1.426  14.183 -0.2498 -0.4347 -0.0078
14098TIP3    H163785   0.239   1.362  14.125 -2.1916 -0.4856 -1.4149
14098TIP3    H263786   0.234   1.510  14.154  0.9254 -0.7023  0.6306
14099TIP3   OH263787   2.191   3.666  13.863  0.1547  0.3193  0.0124
14099TIP3    H163788   2.124   3.733  13.849 -0.4524 -0.0094  1.2844
14099TIP3    H263789   2.211   3.670  13.956  0.3632 -1.0329  0.0504
14100TIP3   OH263790   4.255   1.793  12.714 -0.0732  0.2921  0.3620
14100TIP3    H163791   4.163   1.799  12.737 -0.5214  0.9377 -1.4644
14100TIP3    H263792   4.298   1.857  12.770 -0.4448 -1.1045  2.3577
14101TIP3   OH263793   1.601   1.910   0.532  0.0738 -0.3266 -0.5109
14101TIP3    H163794   1.566   1.870   0.612  0.4557  0.0186 -0.1717
14101TIP3    H263795   1.535   1.890   0.465 -0.3661 -0.4060 -0.0583
14102TIP3   OH263796   5.282   4.314   2.958  0.0814  0.4177  0.0596
14102TIP3    H163797   5.301   4.403   2.986  0.6575  0.4690 -0.4763
14102TIP3    H263798   5.367   4.278   2.932 -0.3177  0.1101 -0.8471
14103TIP3   OH263799   5.767   3.149   4.414 -0.8254  0.0731  0.4162
14103TIP3    H163800   5.805   3.135   4.501 -1.5379 -0.1103  0.7017
14103TIP3    H263801   5.681   3.107   4.418 -0.1792 -1.4946 -0.9361
14104TIP3   OH263802   2.781   5.221  15.765  0.3442 -0.4311  0.4855
14104TIP3    H163803   2.837   5.169  15.823 -0.0454  0.4326  1.6784
14104TIP3    H263804   2.803   5.312  15.785  1.4831 -0.0818 -2.0407
14105TIP3   OH263805   3.891   1.194   3.919  0.5107 -0.7283 -0.3515
14105TIP3    H163806   3.859   1.145   3.844  1.1345 -0.8856 -0.5203
14105TIP3    H263807   3.986   1.179   3.919  0.5249 -0.6740  0.4235
14106TIP3   OH263808   2.970   3.318   5.305 -0.2358 -0.3046 -0.1944
14106TIP3    H163809   2.979   3.412   5.292 -0.8360 -0.3431 -0.9370
14106TIP3    H263810   2.947   3.284   5.218 -0.6164 -1.0589  0.1943
14107TIP3   OH263811   3.417   2.283   0.418  0.4783 -0.7910  0.5744
14107TIP3    H163812   3.379   2.199   0.443  1.9264 -1.8058 -0.4220
14107TIP3    H263813   3.414   2.283   0.322  0.7468  0.1741  0.5563
14108TIP3   OH263814   2.062   5.065  10.878 -0.5834  0.6508  0.2270
14108TIP3    H163815   1.996   5.014  10.925 -0.5821  0.4421  0.0044
14108TIP3    H263816   2.144   5.017  10.892 -0.4410  1.0206  0.6735
14109TIP3   OH263817   5.096   1.384   3.047 -0.0599 -0.1013 -0.6183
14109TIP3    H163818   5.037   1.446   3.091 -0.0243 -0.2357 -0.3789
14109TIP3    H263819   5.045   1.351   2.973 -0.1866 -0.0100 -0.5717
14110TIP3   OH263820   0.846   5.624  13.782 -0.0239 -0.0190  0.0247
14110TIP3    H163821   0.815   5.696  13.836  0.6851  0.0184  0.3923
14110TIP3    H263822   0.938   5.613  13.807  0.0818 -0.5471 -0.5750
14111TIP3   OH263823   1.947   6.513   4.412 -0.2444  0.2610 -0.4990
14111TIP3    H163824   1.899   6.450   4.357  0.1328 -0.8325  0.3717
14111TIP3    H263825   1.936   6.479   4.501  1.1698  0.6478 -0.1615
14112TIP3   OH263826   2.316   5.468  13.253  0.3168 -0.2092 -0.2198
14112TIP3    H163827   2.297   5.547  13.203 -1.4727 -1.0393 -0.9271
14112TIP3    H263828   2.354   5.408  13.189 -0.2318 -0.6291 -0.1503
14113TIP3   OH263829   1.170   6.728  14.231 -0.0921 -0.3892 -0.0956
14113TIP3    H163830   1.096   6.672  14.256 -0.9796  0.0864 -1.5590
14113TIP3    H263831   1.132   6.816  14.227  0.4423 -0.2063 -1.2959
14114TIP3   OH263832   4.878   1.009  15.570  0.2527 -0.4596 -0.6932
14114TIP3    H163833   4.787   1.027  15.545  0.5609 -0.1827 -1.6649
14114TIP3    H263834   4.879   0.915  15.589 -0.5746 -0.1807  0.8937
14115TIP3   OH263835   0.639   5.812  16.389 -0.4729  0.0006 -0.2294
14115TIP3    H163836   0.565   5.784  16.335 -1.5484 -0.0290  1.2174
14115TIP3    H263837   0.633   5.757  16.467  0.2705  0.9410  0.5050
14116TIP3   OH263838   4.950   5.352   0.712  0.4031 -0.2957 -0.1116
14116TIP3    H163839   4.999   5.328   0.633  2.8083 -0.3368  1.3130
14116TIP3    H263840   4.915   5.269   0.745  1.7483 -0.7078  0.3373
14117TIP3   OH263841   1.683   6.392  11.449 -0.2851 -0.0792 -0.3368
14117TIP3    H163842   1.762   6.364  11.494 -0.6432 -1.0055 -0.2618
14117TIP3    H263843   1.620   6.321  11.464 -1.8076  1.5523  1.3492
14118TIP3   OH263844   4.793   5.977  11.686  0.0971 -0.1208 -0.2628
14118TIP3    H163845   4.815   6.036  11.759 -0.3232 -0.5919  0.2519
14118TIP3    H263846   4.788   6.034  11.610 -0.7191  0.5820  0.2998
14119TIP3   OH263847   6.318   2.577   6.339 -0.1318 -0.1240 -0.2648
14119TIP3    H163848   6.302   2.611   6.427  1.6176 -0.4339  0.2098
14119TIP3    H263849   6.239   2.600   6.290 -0.4983  1.4509  0.9637
14120TIP3   OH263850   2.929   1.138   2.082 -0.0329  0.1471 -0.2597
14120TIP3    H163851   2.837   1.119   2.066  0.1257 -1.2141  0.3311
14120TIP3    H263852   2.962   1.168   1.997 -0.8057 -0.2093 -0.6980
14121TIP3   OH263853   4.341   4.351  16.254 -0.7349 -0.4128  0.4567
14121TIP3    H163854   4.344   4.270  16.203  0.1527 -1.3231  1.8723
14121TIP3    H263855   4.248   4.371  16.261 -0.9764 -1.3147  0.0735
14122TIP3   OH263856   1.733   4.765   0.123  0.5895  0.3875 -0.1724
14122TIP3    H163857   1.699   4.679   0.098 -1.5328  1.0918  0.0794
14122TIP3    H263858   1.716   4.771   0.218  0.7336  1.0693 -0.1846
14123TIP3   OH263859   1.102   3.239   0.692  0.1534  0.7967 -0.4206
14123TIP3    H163860   1.162   3.168   0.712  2.1151  2.3148 -0.6244
14123TIP3    H263861   1.155   3.318   0.699 -1.9088  2.2518 -0.3319
14124TIP3   OH263862   0.914   3.234  11.538  0.1978 -0.9449  0.2135
14124TIP3    H163863   0.995   3.278  11.510 -0.2761 -0.4431 -0.4045
14124TIP3    H263864   0.888   3.182  11.462 -1.5510  1.0647 -0.6405
14125TIP3   OH263865   4.057   4.037  11.775  0.1718  0.0300 -0.1447
14125TIP3    H163866   4.070   4.060  11.683  0.6217  2.1961  0.4178
14125TIP3    H263867   4.144   4.012  11.806 -0.1747 -1.8266 -0.5459
14126TIP3   OH263868   6.223   0.348   3.802 -0.1334  0.1069 -0.2584
14126TIP3    H163869   6.199   0.319   3.890 -0.2109  0.5468 -0.1320
14126TIP3    H263870   6.140   0.367   3.759 -0.2181 -1.7207 -1.0156
14127TIP3   OH263871   0.929   0.605  12.299 -0.0760 -0.3469 -0.5073
14127TIP3    H163872   0.839   0.602  12.332  0.4507 -1.8002  0.9419
14127TIP3    H263873   0.941   0.521  12.255  0.7172 -0.3884 -0.2241
14128TIP3   OH263874   3.191   2.380  13.840 -0.3720 -0.5362  0.6439
14128TIP3    H163875   3.199   2.450  13.774  1.4039 -0.4812  0.8682
14128TIP3    H263876   3.162   2.425  13.919 -0.0286 -0.1703  0.5680
14129TIP3   OH263877   6.371   2.417  15.844 -0.2963  0.0519 -0.6813
14129TIP3    H163878   6.284   2.456  15.856  0.4624  1.3326  1.1312
14129TIP3    H263879   6.362   2.361  15.767 -2.7828 -0.0302 -0.4042
14130TIP3   OH263880   1.325   1.888  12.389  0.3502  0.3324  0.2220
14130TIP3    H163881   1.243   1.861  12.350 -0.5269  2.5749  0.3607
14130TIP3    H263882   1.301   1.924  12.474  1.6816 -0.2823  0.9013
14131TIP3   OH263883   1.451   3.532   5.430 -0.6005  0.4406 -0.1368
14131TIP3    H163884   1.439   3.488   5.346 -0.3978  0.7386 -0.3249
14131TIP3    H263885   1.546   3.534   5.442 -0.6436 -1.5254  1.1250
14132TIP3   OH263886   6.701   2.058  16.351 -0.0800 -0.2553  0.1047
14132TIP3    H163887   6.742   2.095  16.429 -0.7493  3.9811 -1.3120
14132TIP3    H263888   6.612   2.094  16.351 -0.0624 -0.0078 -2.6133
14133TIP3   OH263889   4.568   5.076  16.184  0.0670  0.7706 -0.1084
14133TIP3    H163890   4.532   4.998  16.228 -2.0604  0.6825 -1.8210
14133TIP3    H263891   4.648   5.044  16.143 -0.5782 -0.4893 -0.4811
14134TIP3   OH263892   3.790   1.090  13.166  0.3814 -0.9854 -0.0574
14134TIP3    H163893   3.751   1.126  13.086  0.3385 -0.3118  0.2642
14134TIP3    H263894   3.716   1.076  13.225  0.5512 -0.2472  0.3412
14135TIP3   OH263895   4.636   5.889   0.842 -0.2776  0.1047 -0.2728
14135TIP3    H163896   4.699   5.945   0.798 -1.5089  1.6826 -0.1219
14135TIP3    H263897   4.557   5.895   0.788 -0.2639 -2.0520 -0.6200
14136TIP3   OH263898   1.929   4.912  10.572  0.1742 -1.0858  0.2362
14136TIP3    H163899   1.924   4.852  10.646  0.8403 -2.4526 -0.7697
14136TIP3    H263900   1.873   4.873  10.505  0.0973 -0.2313 -0.2144
14137TIP3   OH263901   4.298   1.044  13.509 -0.6226 -0.4763  0.4060
14137TIP3    H163902   4.223   1.079  13.461  0.0961 -0.1627 -0.5168
14137TIP3    H263903   4.332   1.120  13.557  0.0744 -0.2359 -0.4611
14138TIP3   OH263904   6.720   3.017  10.702  0.0036  0.1681  0.4438
14138TIP3    H163905   6.664   3.054  10.634 -0.5340 -0.8504  0.3126
14138TIP3    H263906   6.808   3.049  10.681  0.0465 -1.0529 -1.4217
14139TIP3   OH263907   6.685   2.499   0.691  0.1639 -0.0951 -0.9171
14139TIP3    H163908   6.780   2.495   0.699  0.0146  0.3003  4.0738
14139TIP3    H263909   6.667   2.591   0.673  0.8179  0.6239  1.5723
14140TIP3   OH263910   0.026   4.778  14.498  0.3933 -0.2394  0.2630
14140TIP3    H163911   0.024   4.702  14.556 -1.1160 -2.2759 -2.2453
14140TIP3    H263912  -0.061   4.818  14.509  0.8369  0.5953  0.8529
14141TIP3   OH263913   6.240   1.351   0.798  0.3767  0.5342 -0.0240
14141TIP3    H163914   6.286   1.271   0.770  0.5120 -0.1806  2.1025
14141TIP3    H263915   6.268   1.364   0.888 -1.6629  1.5198  0.5139
14142TIP3   OH263916   1.063   1.950   2.457 -0.6392  0.0872  0.2284
14142TIP3    H163917   1.003   2.023   2.444 -0.8888 -0.1516  0.0381
14142TIP3    H263918   1.007   1.876   2.481 -0.2863  0.2401  1.5901
14143TIP3   OH263919   5.277   0.876  12.454  0.4196  0.0308  0.2398
14143TIP3    H163920   5.216   0.876  12.380 -0.3825  1.4877  0.8593
14143TIP3    H263921   5.330   0.954  12.442  0.4899  0.1160  1.0193
14144TIP3   OH263922   4.295   1.010   2.061  0.2047 -0.1276  0.0396
14144TIP3    H163923   4.319   1.013   2.154  1.4991 -0.8289 -0.2395
14144TIP3    H263924   4.206   0.976   2.061  0.3360 -0.5219  1.0128
14145TIP3   OH263925   5.382   4.767   1.174 -0.7125 -0.2996 -0.7527
14145TIP3    H163926   5.450   4.727   1.120 -3.0984 -1.4358 -3.1432
14145TIP3    H263927   5.312   4.702   1.176 -1.7524  0.7723  1.6934
14146TIP3   OH263928   5.946   3.951  11.596  0.1842 -0.5884 -0.3915
14146TIP3    H163929   6.008   4.022  11.583  0.7354 -1.1339 -0.7918
14146TIP3    H263930   5.961   3.892  11.521 -0.4899 -0.9573 -0.2447
14147TIP3   OH263931   5.619   4.768  16.353 -0.2251 -0.4826  0.5926
14147TIP3    H163932   5.614   4.751  16.259 -0.3485 -0.6045  0.6207
14147TIP3    H263933   5.626   4.863  16.360  1.1994 -0.5514  0.4013
14148TIP3   OH263934   5.475   4.263  11.098  0.8812 -0.4647  0.0626
14148TIP3    H163935   5.476   4.249  11.004  1.1692  3.2454 -0.6031
14148TIP3    H263936   5.394   4.220  11.128 -0.5176  0.3472 -2.2877
14149TIP3   OH263937   2.799   1.627  11.305  0.1069 -0.1216 -0.9604
14149TIP3    H163938   2.867   1.638  11.238  0.3477 -0.7101 -0.8134
14149TIP3    H263939   2.717   1.647  11.259  0.3885  0.8384 -1.0731
14150TIP3   OH263940   6.294   1.269   3.680 -0.0789 -0.3261 -0.1029
14150TIP3    H163941   6.235   1.220   3.738 -0.8502  0.2218 -0.4138
14150TIP3    H263942   6.273   1.237   3.592 -0.2113  0.1783 -0.2543
14151TIP3   OH263943   0.195   4.695  11.293 -0.0862  0.0300 -0.4053
14151TIP3    H163944   0.183   4.630  11.223 -0.8152  1.2646 -1.4933
14151TIP3    H263945   0.280   4.735  11.274 -0.7229  1.0545 -1.2309
14152TIP3   OH263946   4.015   3.552   3.500 -0.1045  0.1613  1.3158
14152TIP3    H163947   3.937   3.558   3.555 -0.2183  0.5937  1.1058
14152TIP3    H263948   4.088   3.566   3.561 -0.2310  0.6806  1.3457
14153TIP3   OH263949   3.112   4.176   2.527 -0.6024  0.0033 -0.4361
14153TIP3    H163950   3.162   4.211   2.601 -1.0294 -1.3347  0.5313
14153TIP3    H263951   3.046   4.242   2.508  0.2856  0.9121 -0.4429
14154TIP3   OH263952   2.414   4.721   2.128  0.1520  0.5413  0.0765
14154TIP3    H163953   2.395   4.697   2.037  1.2280 -1.1920  0.2704
14154TIP3    H263954   2.481   4.659   2.156  0.5493  1.6585  1.7684
14155TIP3   OH263955   0.317   5.157   2.456 -0.0324 -0.2705  0.3034
14155TIP3    H163956   0.310   5.157   2.360 -0.4113  0.9938  0.3187
14155TIP3    H263957   0.231   5.185   2.486  0.0152 -0.8886  1.0356
14156TIP3   OH263958   2.633   4.851   5.178 -0.4004  0.2107 -0.5656
14156TIP3    H163959   2.567   4.887   5.237  2.9354  3.3503  1.7055
14156TIP3    H263960   2.659   4.925   5.123  2.8469 -0.0446  0.4031
14157TIP3   OH263961   6.431   4.091  11.908 -0.3946 -0.7482 -0.0007
14157TIP3    H163962   6.385   4.155  11.854 -0.4912  1.2263  2.2156
14157TIP3    H263963   6.395   4.105  11.996  0.7990 -2.7349  0.8592
14158TIP3   OH263964   5.084   0.048   4.095  0.5264 -0.3546 -0.4540
14158TIP3    H163965   4.995   0.085   4.097  0.7040  0.0749 -0.4505
14158TIP3    H263966   5.071  -0.043   4.069  0.1465 -0.0683 -1.3129
14159TIP3   OH263967   6.593   1.037   4.235  0.3615  0.3071  0.5142
14159TIP3    H163968   6.648   0.962   4.257  0.8788  0.9592  1.5009
14159TIP3    H263969   6.654   1.099   4.195 -0.0051  0.3306 -0.0170
14160TIP3   OH263970   1.019   0.404  15.110 -0.5609 -0.2077 -0.0768
14160TIP3    H163971   1.070   0.334  15.150  2.4611  2.7932  2.0125
14160TIP3    H263972   0.953   0.426  15.176  0.6752  0.9410  0.8592
14161TIP3   OH263973   2.067   6.564  12.117 -0.0258  0.1507 -0.8183
14161TIP3    H163974   2.070   6.659  12.108  1.2757  0.0536 -1.7322
14161TIP3    H263975   2.025   6.533  12.036  0.2603 -0.0765 -0.8855
14162TIP3   OH263976   3.067   4.081  13.023  0.0468 -0.2078  0.9046
14162TIP3    H163977   3.081   4.092  13.117 -1.7977  2.4718  0.9790
14162TIP3    H263978   3.007   4.151  13.000  0.9166 -0.4098 -2.4204
14163TIP3   OH263979   0.418   5.268  16.084  0.0084  0.7533 -0.1624
14163TIP3    H163980   0.327   5.253  16.060  0.3495 -3.2313  0.4894
14163TIP3    H263981   0.414   5.335  16.152 -2.4260  0.5870 -0.0763
14164TIP3   OH263982   6.121   3.211  16.759  0.1684  0.0905  0.4283
14164TIP3    H163983   6.045   3.247  16.806 -0.9415  0.3960 -1.4813
14164TIP3    H263984   6.196   3.235  16.813 -0.8292  2.4407  0.8883
14165TIP3   OH263985   0.116   0.026  13.718 -0.2911  0.1428 -0.1642
14165TIP3    H163986   0.061  -0.040  13.760  0.0078 -0.1610 -0.2528
14165TIP3    H263987   0.182   0.047  13.784 -0.3002  0.2504 -0.1892
14166TIP3   OH263988   2.804   0.988   3.978 -0.3260 -0.0585 -0.2169
14166TIP3    H163989   2.742   1.057   3.952 -0.3977 -0.0387  0.0073
14166TIP3    H263990   2.889   1.032   3.980 -0.3401 -0.0280 -0.2880
14167TIP3   OH263991   6.634   4.866  13.966  0.0719 -0.0306 -0.1821
14167TIP3    H163992   6.640   4.787  14.020  2.1800 -0.2306 -0.6055
14167TIP3    H263993   6.626   4.833  13.876 -2.4157  0.3000 -0.1500
14168TIP3   OH263994   1.986   1.346  16.048  0.4251 -0.2013  0.0559
14168TIP3    H163995   2.041   1.314  16.120 -0.7983  1.4496  1.8060
14168TIP3    H263996   2.033   1.422  16.015 -0.8350  1.3640  1.7201
14169TIP3   OH263997   5.256   2.998   1.234 -0.1137  0.3764  0.0528
14169TIP3    H163998   5.268   2.958   1.320 -0.3352  0.2959  0.0466
14169TIP3    H263999   5.345   3.008   1.199  0.0819  1.5890  0.8199
14170TIP3   OH264000   4.697   2.856   4.664 -0.9446  0.2994 -0.2830
14170TIP3    H164001   4.603   2.839   4.671 -0.9894 -1.3209 -3.1296
14170TIP3    H264002   4.730   2.785   4.608  1.9179  1.0330  0.3054
14171TIP3   OH264003   4.644   2.326   5.050 -0.1278 -0.2635  0.1892
14171TIP3    H164004   4.739   2.338   5.051 -0.0668 -0.5020 -1.1321
14171TIP3    H264005   4.611   2.403   5.003 -0.5138 -0.6179 -0.1210
14172TIP3   OH264006   5.366   1.809   3.672 -0.2376 -0.0840 -0.0790
14172TIP3    H164007   5.323   1.729   3.701  0.5317  0.7140  3.8458
14172TIP3    H264008   5.458   1.786   3.662 -0.1623  0.1045  0.1667
14173TIP3   OH264009   1.445   4.226  10.690 -0.1386  0.2164 -0.1924
14173TIP3    H164010   1.499   4.149  10.670 -0.9490 -0.5189  0.3587
14173TIP3    H264011   1.508   4.297  10.702  0.5846 -0.1360 -1.6004
14174TIP3   OH264012   6.199   3.754   5.022  0.1273  0.0295 -0.0039
14174TIP3    H164013   6.210   3.818   5.092  1.5775  0.5408 -0.6666
14174TIP3    H264014   6.261   3.684   5.043 -1.7555 -1.4454  0.9615
14175TIP3   OH264015   1.335   3.067  11.106 -0.0045  0.5166 -0.7084
14175TIP3    H164016   1.330   3.106  11.019  0.2441  1.6593 -0.2337
14175TIP3    H264017   1.265   3.002  11.107  0.8324 -0.4539 -2.1890
14176TIP3   OH264018   5.652   5.142  15.990  0.3550 -0.2597  0.4484
14176TIP3    H164019   5.729   5.141  16.047  0.3158 -0.2369  0.5012
14176TIP3    H264020   5.687   5.120  15.903  0.5392  0.4710  0.3271
14177TIP3   OH264021   5.508   2.712   6.528  0.2301 -0.1916 -0.7004
14177TIP3    H164022   5.441   2.736   6.464 -1.5819 -0.7841  0.8616
14177TIP3    H264023   5.501   2.616   6.535  0.0757 -0.1010  0.6609
14178TIP3   OH264024   0.865   6.621   6.782  0.5341 -0.4966  0.4433
14178TIP3    H164025   0.891   6.584   6.698 -1.0068  0.1415 -0.3548
14178TIP3    H264026   0.889   6.554   6.846  1.9324 -0.8930 -0.4555
14179TIP3   OH264027   3.097   4.942   5.958 -0.7072  0.2394  0.2711
14179TIP3    H164028   3.159   5.013   5.940 -0.8429  0.3587  0.2757
14179TIP3    H264029   3.102   4.886   5.880  0.6075 -0.6290  0.9462
14180TIP3   OH264030   0.437   4.933  16.544  0.0528  0.5649  0.1866
14180TIP3    H164031   0.431   4.971  16.456 -1.0091 -1.3084 -0.6024
14180TIP3    H264032   0.427   4.839  16.530  4.2873 -0.3722  1.8126
14181TIP3   OH264033   0.938   2.426  12.769 -0.2218  0.3341 -0.3419
14181TIP3    H164034   0.973   2.385  12.689  0.5935 -0.2949  0.3252
14181TIP3    H264035   0.994   2.502  12.784 -0.3186  0.3996 -0.3118
14182TIP3   OH264036   2.632   6.688   1.051 -0.2779  0.4279 -0.3124
14182TIP3    H164037   2.643   6.604   1.094  0.1518  0.4411 -0.3855
14182TIP3    H264038   2.538   6.707   1.056 -0.0505  1.2573  2.1853
14183TIP3   OH264039   1.792   1.486   5.232 -0.2229  0.5684 -0.5843
14183TIP3    H164040   1.812   1.447   5.317 -3.4668  2.6662  1.3477
14183TIP3    H264041   1.735   1.422   5.189  1.7551 -0.6821 -1.4822
14184TIP3   OH264042   2.678   0.563  13.972  0.4665  0.0963  0.8997
14184TIP3    H164043   2.659   0.524  13.886  0.6322  0.7961  0.5363
14184TIP3    H264044   2.593   0.568  14.015  0.0417  1.6496 -0.0493
14185TIP3   OH264045   5.442   4.995   4.864  0.0124 -0.2107 -0.4594
14185TIP3    H164046   5.527   5.039   4.855 -1.3204  2.2571 -2.1513
14185TIP3    H264047   5.413   5.017   4.953  1.2173 -1.3448  0.2531
14186TIP3   OH264048   5.484   0.580  16.754 -0.3437  0.2496  0.9007
14186TIP3    H164049   5.562   0.605  16.803  0.0313  1.3159 -0.1894
14186TIP3    H264050   5.497   0.619  16.667 -1.3512 -0.9000  0.2013
14187TIP3   OH264051   5.566   5.255   2.448 -0.3227 -0.0909  0.1620
14187TIP3    H164052   5.563   5.338   2.401 -1.1699 -0.7157 -0.9222
14187TIP3    H264053   5.477   5.242   2.481 -0.3473 -0.8527 -0.1904
14188TIP3   OH264054   0.874   2.280   2.524  0.3075  0.0407 -0.1100
14188TIP3    H164055   0.924   2.293   2.443  0.2573  1.1046  0.0251
14188TIP3    H264056   0.937   2.297   2.594  0.5709 -1.6531  0.1155
14189TIP3   OH264057   2.495   2.314  13.211 -0.4934  0.1206 -0.0770
14189TIP3    H164058   2.555   2.242  13.191  2.0357  1.3570  2.4318
14189TIP3    H264059   2.421   2.271  13.253 -0.0794 -1.1922 -0.6207
14190TIP3   OH264060   4.717   2.227  16.734  0.0061  1.1503 -0.1306
14190TIP3    H164061   4.636   2.275  16.750  1.0291  2.6246  0.9404
14190TIP3    H264062   4.708   2.193  16.645 -2.5604 -0.3818  0.6176
14191TIP3   OH264063   2.151   1.053   0.619 -0.5147  0.3055  0.7634
14191TIP3    H164064   2.235   1.018   0.591 -1.3710  0.2941 -2.0859
14191TIP3    H264065   2.171   1.142   0.649  0.6218 -0.0462  1.1035
14192TIP3   OH264066   2.886   0.243   4.556  0.6024 -0.1753  0.3595
14192TIP3    H164067   2.800   0.278   4.533  0.2315 -0.5686  1.1019
14192TIP3    H264068   2.867   0.167   4.611  1.4224  0.2680  1.2922
14193TIP3   OH264069   1.381   3.772  17.083  0.1601 -0.5863  0.7232
14193TIP3    H164070   1.471   3.741  17.075  0.4856  0.4130  0.4085
14193TIP3    H264071   1.388   3.858  17.125 -0.6088 -0.2850  0.2646
14194TIP3   OH264072   6.558   2.126   0.855  0.1631  0.1685 -0.3094
14194TIP3    H164073   6.639   2.145   0.808  0.0680  0.7588 -0.2426
14194TIP3    H264074   6.490   2.136   0.789  0.2623 -2.1191 -0.8337
14195TIP3   OH264075   0.985   6.496   5.349 -0.6083  0.0819  0.0187
14195TIP3    H164076   1.056   6.495   5.412 -0.7950  0.5432  0.2427
14195TIP3    H264077   1.023   6.462   5.269  0.1296  1.1962 -0.1314
14196TIP3   OH264078   1.859   4.211  13.076 -0.0178  0.7136 -0.3060
14196TIP3    H164079   1.854   4.277  13.007 -0.4587 -0.0649 -1.0336
14196TIP3    H264080   1.775   4.219  13.122 -0.2065  0.4516 -0.5982
14197TIP3   OH264081   5.884   0.447  14.651  0.2018 -0.1913 -0.2011
14197TIP3    H164082   5.880   0.410  14.740  1.7434 -1.5253 -0.6282
14197TIP3    H264083   5.832   0.387  14.598 -0.3808  0.3762 -0.2801
14198TIP3   OH264084   0.750   6.363   5.401  0.3704  0.1749 -0.0511
14198TIP3    H164085   0.692   6.390   5.330  1.4193  2.4083 -0.1444
14198TIP3    H264086   0.837   6.358   5.360  0.5749 -1.2546  0.4977
14199TIP3   OH264087   1.220   0.613  15.332 -0.9062 -0.2094  0.6317
14199TIP3    H164088   1.304   0.602  15.287 -0.6034  0.7792  0.9367
14199TIP3    H264089   1.237   0.678  15.401 -1.8741 -0.1160  0.8023
14200TIP3   OH264090   3.574   4.036   5.735 -0.5657 -0.3603  0.5886
14200TIP3    H164091   3.561   4.008   5.645  1.0756  0.0905  0.1920
14200TIP3    H264092   3.551   4.129   5.735 -0.0514 -0.2349  0.5223
14201TIP3   OH264093   1.309   4.212  15.107 -0.5847  0.3958 -0.4879
14201TIP3    H164094   1.281   4.229  15.017 -0.6603  3.3412 -0.0029
14201TIP3    H264095   1.229   4.188  15.153 -0.8528  0.6427 -0.8209
14202TIP3   OH264096   0.761   3.998  16.757 -0.0291  0.0535 -0.1261
14202TIP3    H164097   0.763   4.047  16.675 -0.1229  0.1043 -0.0976
14202TIP3    H264098   0.845   4.018  16.799  0.1368 -0.1898 -0.3352
14203TIP3   OH264099   4.145   5.392   5.179  0.1150  0.1654 -0.1777
14203TIP3    H164100   4.223   5.447   5.185  0.3193 -0.2099  0.8911
14203TIP3    H264101   4.164   5.330   5.109  0.6240  0.3089 -0.1686
14204TIP3   OH264102   0.992   1.652   1.009 -0.1304  0.0972 -0.7659
14204TIP3    H164103   0.949   1.581   0.962 -1.0555  0.1361  0.0054
14204TIP3    H264104   0.986   1.727   0.950 -1.6546  0.2540 -0.4521
14205TIP3   OH264105   6.338   1.479  16.222 -0.2644 -0.2197  0.3604
14205TIP3    H164106   6.309   1.426  16.295 -0.1266 -0.7219  0.0533
14205TIP3    H264107   6.396   1.545  16.261  0.0694 -0.6889  0.6538
14206TIP3   OH264108   3.100   4.418  14.267  0.1954 -0.3913 -0.1485
14206TIP3    H164109   3.182   4.428  14.220  1.2829  0.5154  1.8458
14206TIP3    H264110   3.117   4.453  14.355 -2.0543 -0.9907  0.6067
14207TIP3   OH264111   4.225   1.407  14.560 -0.2238  0.3683 -0.3578
14207TIP3    H164112   4.189   1.442  14.642 -0.5259 -2.3476  0.7686
14207TIP3    H264113   4.193   1.468  14.493  1.1982  3.5141  1.5805
14208TIP3   OH264114   1.050   1.047  15.434 -0.5266  0.2802 -0.1156
14208TIP3    H164115   0.956   1.037  15.421 -0.6393 -0.1914  1.0244
14208TIP3    H264116   1.060   1.070  15.526  0.5591 -1.0756  0.1390
14209TIP3   OH264117   1.419   1.576   3.426  0.5929  0.1452  0.0564
14209TIP3    H164118   1.450   1.621   3.347  0.7814  0.7689  0.4785
14209TIP3    H264119   1.391   1.490   3.395 -1.2765  1.0899 -1.0575
14210TIP3   OH264120   6.175   5.634   1.413 -0.0706 -0.1673  0.6492
14210TIP3    H164121   6.107   5.613   1.349  0.9728 -0.0408 -0.5406
14210TIP3    H264122   6.257   5.628   1.364  0.6501  1.5538  1.5622
14211TIP3   OH264123   4.576   4.481   0.051 -0.4860  0.2574 -0.3547
14211TIP3    H164124   4.662   4.512   0.079 -1.1584  2.3377 -0.4483
14211TIP3    H264125   4.524   4.560   0.043 -2.4798 -0.9745 -0.1303
14212TIP3   OH264126   1.737   2.152  13.815  0.7011  0.7929  0.0701
14212TIP3    H164127   1.809   2.196  13.770  1.3018  0.5507  0.7671
14212TIP3    H264128   1.777   2.073  13.852 -0.5431 -0.8532 -1.9357
14213TIP3   OH264129   2.768   6.243   6.121 -0.7008  0.0571  0.4398
14213TIP3    H164130   2.724   6.159   6.133 -0.1004 -0.8838 -3.0305
14213TIP3    H264131   2.842   6.224   6.064  0.6682  2.6559  1.1810
14214TIP3   OH264132   0.224   5.963  10.493 -0.4320  0.3126 -0.3643
14214TIP3    H164133   0.211   5.948  10.587 -2.3954  1.0521 -0.4650
14214TIP3    H264134   0.270   6.047  10.488 -0.4463  0.3396 -0.0540
14215TIP3   OH264135   3.025   6.113   1.537 -0.1494 -0.2196  0.2268
14215TIP3    H164136   2.954   6.061   1.499 -1.7021  2.8265 -1.4031
14215TIP3    H264137   3.100   6.095   1.480 -0.4164 -1.1953  0.1540
14216TIP3   OH264138   0.443   1.758   3.047  0.5523 -0.3512  0.1165
14216TIP3    H164139   0.368   1.807   3.012  0.7687  1.4246  1.9488
14216TIP3    H264140   0.517   1.818   3.039  0.8082 -0.2722  2.5386
14217TIP3   OH264141   2.303   6.247   2.684  0.5141 -0.3246  0.2761
14217TIP3    H164142   2.228   6.210   2.731  1.9425 -1.7471  1.5592
14217TIP3    H264143   2.334   6.318   2.740  0.6166 -0.2657  0.1450
14218TIP3   OH264144   2.229   5.918  12.290  0.1237 -0.2927  0.4406
14218TIP3    H164145   2.233   5.823  12.286  0.3991 -0.3440  1.7608
14218TIP3    H264146   2.312   5.945  12.328  0.9457  0.6426 -1.8068
14219TIP3   OH264147   6.343   4.699  16.946  0.3618 -0.5277 -0.3342
14219TIP3    H164148   6.315   4.758  17.017 -0.1740 -1.1149 -0.0404
14219TIP3    H264149   6.275   4.631  16.945  1.4466 -1.6497 -0.0429
14220TIP3   OH264150   6.057   4.053   0.956  0.3728 -0.3707  0.2511
14220TIP3    H164151   6.019   4.075   0.871 -1.4878 -1.0810  0.8542
14220TIP3    H264152   6.086   4.136   0.993  1.0550 -0.0392 -0.9846
14221TIP3   OH264153   4.121   4.566  14.134  0.1135  0.3351 -0.5052
14221TIP3    H164154   4.025   4.570  14.133  0.0983 -0.0272 -0.7251
14221TIP3    H264155   4.143   4.508  14.061  0.4822  0.0661 -0.1841
14222TIP3   OH264156   3.601   4.428  14.662 -0.0731 -0.4151 -0.0892
14222TIP3    H164157   3.627   4.346  14.621 -2.2882  0.0212 -2.6718
14222TIP3    H264158   3.506   4.418  14.676 -0.0125  0.9151  1.5936
14223TIP3   OH264159   6.820   2.431  14.021 -0.6137  0.4328  0.1241
14223TIP3    H164160   6.732   2.460  14.045 -0.8587 -0.2135  0.0287
14223TIP3    H264161   6.833   2.465  13.932 -0.3119  1.4918  0.5517
14224TIP3   OH264162   5.749   1.878   0.673 -0.5210  0.2443 -0.1311
14224TIP3    H164163   5.758   1.909   0.764 -3.5940  2.1037 -0.3148
14224TIP3    H264164   5.709   1.792   0.682 -1.8106  0.8609  0.3312
14225TIP3   OH264165   0.048   5.292  16.933 -0.2042 -0.1222  0.1176
14225TIP3    H164166   0.081   5.203  16.947  1.4369  0.2013 -1.2870
14225TIP3    H264167   0.030   5.296  16.839 -0.3839  0.9896  0.1831
14226TIP3   OH264168   4.354   4.994   2.157  0.1738  0.0277 -0.1060
14226TIP3    H164169   4.324   4.990   2.066  0.5333 -0.2614 -0.2154
14226TIP3    H264170   4.426   4.932   2.161  0.9961  0.9561  0.0595
14227TIP3   OH264171   6.217   0.985   2.067 -0.2682 -0.3091 -1.1235
14227TIP3    H164172   6.251   1.036   2.141  2.8366 -0.3130 -2.3917
14227TIP3    H264173   6.136   1.028   2.043  0.5039  1.9306  0.0344
14228TIP3   OH264174   0.395   5.223  13.453  0.3816  0.3067  0.9665
14228TIP3    H164175   0.462   5.227  13.385  0.7666  2.5853  1.4095
14228TIP3    H264176   0.442   5.243  13.534 -0.0797 -2.2645  1.9709
14229TIP3   OH264177   0.794   0.793  12.890 -0.4634  0.0945 -0.3783
14229TIP3    H164178   0.793   0.698  12.892 -0.6222  0.0924 -0.4981
14229TIP3    H264179   0.877   0.816  12.848 -0.5895  0.0009 -0.6845
14230TIP3   OH264180   2.630   3.841  11.792  0.3382 -0.3643  0.2980
14230TIP3    H164181   2.656   3.790  11.714 -0.1703 -0.7091  0.3512
14230TIP3    H264182   2.608   3.775  11.857  0.9128 -0.0740  0.7902
14231TIP3   OH264183   4.844   2.308  13.147 -0.1617 -0.1184 -0.5980
14231TIP3    H164184   4.776   2.253  13.186 -1.0253  0.2341 -1.5541
14231TIP3    H264185   4.831   2.394  13.186 -0.7771  0.1373 -1.3280
14232TIP3   OH264186   6.682   4.204  12.615  0.5522  0.3595  0.1591
14232TIP3    H164187   6.750   4.186  12.679  0.2232  2.2563  1.0941
14232TIP3    H264188   6.646   4.117  12.593  0.9417 -0.3825  2.2180
14233TIP3   OH264189   6.626   2.451   2.445  0.0117  0.4316  0.4142
14233TIP3    H164190   6.693   2.434   2.512 -0.9338 -0.8593  1.0827
14233TIP3    H264191   6.651   2.536   2.407  3.5443 -1.1432 -1.2456
14234TIP3   OH264192   0.634   0.449   4.695 -0.0638  0.2213  0.3309
14234TIP3    H164193   0.633   0.528   4.640 -0.3819  0.0487  0.0895
14234TIP3    H264194   0.628   0.483   4.785 -1.8628  0.4171  0.1681
14235TIP3   OH264195   5.165   4.326   5.368 -0.2221 -0.1329 -0.3604
14235TIP3    H164196   5.124   4.410   5.388 -0.3196  0.2377 -1.9418
14235TIP3    H264197   5.259   4.342   5.377 -0.2884 -0.2027  0.5183
14236TIP3   OH264198   4.000   3.922  12.161 -0.2980 -0.2468 -0.3369
14236TIP3    H164199   4.024   3.829  12.156  0.4288 -0.0623 -0.4956
14236TIP3    H264200   4.066   3.960  12.218 -0.4615  0.2143 -0.4531
14237TIP3   OH264201   2.277   4.487   5.598 -0.2471 -0.6030 -0.5311
14237TIP3    H164202   2.324   4.418   5.551 -1.0419 -1.2999 -0.3352
14237TIP3    H264203   2.184   4.469   5.581 -0.5049 -0.1509  0.3008
14238TIP3   OH264204   3.096   4.859  15.400  0.6409 -0.1937 -0.0347
14238TIP3    H164205   3.151   4.782  15.415  1.5230  0.4659  0.2296
14238TIP3    H264206   3.079   4.894  15.488  2.3289  1.3030 -0.2329
14239TIP3   OH264207   3.492   0.353   1.417 -0.6398  0.8511 -0.2992
14239TIP3    H164208   3.499   0.302   1.336  1.0405  2.4114 -1.2089
14239TIP3    H264209   3.410   0.323   1.457 -1.0130 -0.6757 -2.0673
14240TIP3   OH264210   0.101   6.036  13.609 -0.1917 -0.6821  0.0676
14240TIP3    H164211   0.168   5.999  13.552 -0.2749 -1.2295  0.3185
14240TIP3    H264212   0.018   6.012  13.568 -0.2951 -2.3995  1.1864
14241TIP3   OH264213   1.029   2.687  11.638 -0.3526 -0.4410 -0.2035
14241TIP3    H164214   1.005   2.778  11.623  0.9252 -0.0233  0.1802
14241TIP3    H264215   1.122   2.690  11.661 -0.3967 -1.7974  0.2372
14242TIP3   OH264216   4.726   5.129   4.851 -0.3257  0.2298 -0.1862
14242TIP3    H164217   4.782   5.193   4.897  1.3346 -1.1842 -0.1134
14242TIP3    H264218   4.697   5.175   4.772  2.1545  0.6072 -0.9664
14243TIP3   OH264219   6.573   0.521   0.770  0.2109 -0.9506 -0.2065
14243TIP3    H164220   6.574   0.557   0.858 -0.3129 -2.2325  0.3663
14243TIP3    H264221   6.479   0.513   0.749  0.3308 -0.7407 -0.8370
14244TIP3   OH264222   5.666   6.735   2.676 -0.3744  0.2093 -0.4109
14244TIP3    H164223   5.742   6.786   2.703 -0.8078  0.9736 -0.6112
14244TIP3    H264224   5.644   6.683   2.753  1.7416 -1.7861 -1.0471
14245TIP3   OH264225   0.777   3.518  15.904 -0.0666 -0.2082 -0.1541
14245TIP3    H164226   0.759   3.462  15.980 -0.9473 -3.0310 -2.2699
14245TIP3    H264227   0.839   3.468  15.851  2.0577  2.5473 -0.4848
14246TIP3   OH264228   5.536   5.799  15.713 -0.7014 -0.0369  0.0001
14246TIP3    H164229   5.505   5.711  15.694  0.8986 -0.3692 -1.2448
14246TIP3    H264230   5.463   5.856  15.688 -0.6617 -0.8356 -2.1798
14247TIP3   OH264231   2.331   5.687  11.407  0.1515  0.2320 -0.3823
14247TIP3    H164232   2.423   5.667  11.387  0.0085 -1.6413  0.6286
14247TIP3    H264233   2.281   5.626  11.353 -0.4225 -0.1418  0.5586
14248TIP3   OH264234   0.073   0.284   0.965 -1.2271 -0.3131 -0.3100
14248TIP3    H164235   0.138   0.328   1.020 -0.0878 -2.1437 -0.1202
14248TIP3    H264236   0.070   0.338   0.886 -0.5185  0.5862  0.2435
14249TIP3   OH264237   3.651   6.125   0.172 -0.2044  0.1825  0.2370
14249TIP3    H164238   3.675   6.041   0.133  1.4853  1.4230 -1.5974
14249TIP3    H264239   3.578   6.156   0.118 -0.2686  0.2728  0.3751
14250TIP3   OH264240   5.495   0.098  15.151 -0.5268  0.3076 -0.3398
14250TIP3    H164241   5.456   0.171  15.103  0.4831 -0.2310 -2.0481
14250TIP3    H264242   5.589   0.108  15.137 -0.1709  0.1883  1.6598
14251TIP3   OH264243   4.255   2.869  13.234  0.1273  0.0050 -0.8750
14251TIP3    H164244   4.311   2.859  13.311 -1.0320 -1.6445 -0.2041
14251TIP3    H264245   4.312   2.847  13.160  0.7860 -0.1250 -0.3362
14252TIP3   OH264246   6.521   5.988   0.442  0.2468 -0.4278  0.1932
14252TIP3    H164247   6.538   6.057   0.507 -0.2858  0.1920 -0.2990
14252TIP3    H264248   6.606   5.950   0.423  0.2947 -1.2163  1.8976
14253TIP3   OH264249   2.756   4.247   3.115 -0.5721 -0.0376  0.1326
14253TIP3    H164250   2.772   4.175   3.175  3.7516 -1.1698 -2.0203
14253TIP3    H264251   2.708   4.207   3.042 -0.5457 -0.0741  0.1354
14254TIP3   OH264252   0.281   2.709  16.692 -0.0789 -0.1062  0.2786
14254TIP3    H164253   0.268   2.789  16.641 -4.7580 -0.5574  0.3278
14254TIP3    H264254   0.264   2.736  16.783 -3.6051 -1.2608  0.1095
14255TIP3   OH264255   6.168   2.815   1.844 -0.2390 -0.4240 -0.6811
14255TIP3    H164256   6.249   2.831   1.892 -0.8058 -1.2717  0.6107
14255TIP3    H264257   6.180   2.862   1.762  0.1625  2.3625  0.8481
14256TIP3   OH264258   3.940   3.404  13.235  0.3318 -0.8663 -0.2398
14256TIP3    H164259   3.982   3.320  13.253 -0.6206 -0.7681  2.9781
14256TIP3    H264260   3.947   3.414  13.140  3.2046 -3.0853 -0.4034
14257TIP3   OH264261   1.182   2.342   1.554 -0.3109  0.0677  0.6352
14257TIP3    H164262   1.166   2.256   1.515 -1.0986 -1.0481  3.1917
14257TIP3    H264263   1.271   2.336   1.588  0.4237  1.0805 -0.9917
14258TIP3   OH264264   0.005   0.962  12.443  0.2780 -0.1292 -0.7429
14258TIP3    H164265   0.035   0.919  12.363 -0.5738  1.5285 -2.0137
14258TIP3    H264266   0.085   0.988  12.489  0.7742 -0.2130 -1.5593
14259TIP3   OH264267   5.064   1.046  11.456  0.1707 -0.1594  0.1634
14259TIP3    H164268   5.040   1.009  11.371 -0.4792 -1.5446  0.9125
14259TIP3    H264269   5.027   1.135  11.455 -2.2327 -1.0904  0.0083
14260TIP3   OH264270   3.155   6.427   4.088  0.5943  0.2908  0.6299
14260TIP3    H164271   3.213   6.394   4.019 -0.4954  0.1777 -0.2589
14260TIP3    H264272   3.183   6.519   4.099 -0.0613  0.7110 -0.9162
14261TIP3   OH264273   5.253   0.392  12.036 -0.3571 -0.0318 -0.7281
14261TIP3    H164274   5.313   0.462  12.010 -1.1583  0.9783  0.0528
14261TIP3    H264275   5.169   0.437  12.050 -1.1062 -1.2929 -1.0414
14262TIP3   OH264276   2.795   4.977   4.817 -0.6618  0.3220 -0.2755
14262TIP3    H164277   2.770   4.920   4.744 -0.9258 -0.5282  0.4511
14262TIP3    H264278   2.860   5.036   4.781  1.7275 -2.2064 -0.4468
14263TIP3   OH264279   2.230   4.809  10.452 -0.0413  0.2717  0.4196
14263TIP3    H164280   2.224   4.903  10.434 -0.0763  0.4903  1.4772
14263TIP3    H264281   2.159   4.792  10.514  0.1352 -0.3937  0.4489
14264TIP3   OH264282   3.256   0.506   4.098 -0.0411  0.4418  0.5321
14264TIP3    H164283   3.311   0.546   4.030 -2.3092 -0.1979 -1.8449
14264TIP3    H264284   3.292   0.419   4.110  0.7045  0.7449  0.5714
14265TIP3   OH264285   5.946   3.426  15.367  0.0574 -0.6557  0.5852
14265TIP3    H164286   5.993   3.502  15.401 -0.2156  1.0099 -2.4381
14265TIP3    H264287   6.009   3.354  15.373  0.9991  0.2253  1.7393
14266TIP3   OH264288   2.831   3.504  13.315  0.7364 -0.1632 -0.6758
14266TIP3    H164289   2.776   3.560  13.261  1.2053  1.7500  0.7226
14266TIP3    H264290   2.822   3.417  13.276 -3.4801 -0.0917 -0.4200
14267TIP3   OH264291   0.514   6.127  14.494  0.7045 -0.5405  0.4584
14267TIP3    H164292   0.510   6.058  14.427  0.2355  0.2808 -0.3874
14267TIP3    H264293   0.519   6.208  14.444 -0.1394  0.1317  1.4162
14268TIP3   OH264294   3.792   0.289   0.004 -0.1209 -0.4014  0.1469
14268TIP3    H164295   3.717   0.295   0.063 -0.5984  1.2628 -0.5889
14268TIP3    H264296   3.768   0.222  -0.059 -1.5564  0.9558 -0.8190
14269TIP3   OH264297   6.103   3.129   4.012 -0.3169  0.0987  0.5007
14269TIP3    H164298   6.013   3.118   4.043 -0.3516  0.8430  0.6826
14269TIP3    H264299   6.117   3.056   3.951 -1.1747  0.2136  0.1596
14270TIP3   OH264300   1.098   6.270   0.160 -0.2412 -0.2048  0.0649
14270TIP3    H164301   1.181   6.278   0.206 -0.0544  0.0369 -0.3173
14270TIP3    H264302   1.032   6.280   0.228  0.0218 -2.9571  0.8503
14271TIP3   OH264303   3.324   5.240   5.186  0.3198  0.6024 -0.2963
14271TIP3    H164304   3.404   5.290   5.203  0.9887 -0.5575  0.0448
14271TIP3    H264305   3.313   5.244   5.091  1.1661  0.2109 -0.4159
14272TIP3   OH264306   4.978   1.106  15.804 -0.2202 -0.0668  0.3480
14272TIP3    H164307   4.940   1.082  15.719 -0.7449 -0.4177  0.6732
14272TIP3    H264308   4.902   1.123  15.860  0.1292  0.9543  0.5295
14273TIP3   OH264309   2.868   1.476  11.538 -0.6370  0.6049  0.1616
14273TIP3    H164310   2.868   1.563  11.497 -0.7376 -0.3140 -1.9066
14273TIP3    H264311   2.777   1.460  11.561 -0.6343  1.0081  0.4543
14274TIP3   OH264312   5.017   3.107  12.982  0.3442 -0.3673  0.0766
14274TIP3    H164313   5.086   3.047  12.954  0.2675 -0.6500  0.4838
14274TIP3    H264314   4.990   3.152  12.902 -0.0394 -1.3327 -0.3634
14275TIP3   OH264315   6.060   1.851   0.706  0.0638 -0.0188 -0.0754
14275TIP3    H164316   6.149   1.872   0.736 -0.0335  1.4511 -0.7506
14275TIP3    H264317   6.023   1.799   0.777  1.2194 -0.0376  0.5396
14276TIP3   OH264318   0.342   3.700  11.515 -0.4984 -0.0713  0.0696
14276TIP3    H164319   0.411   3.760  11.487  0.3886 -1.0179  0.1659
14276TIP3    H264320   0.293   3.681  11.435 -0.4498  0.3411 -0.0606
14277TIP3   OH264321   5.795   0.670  10.713 -0.0449  0.1136  0.0733
14277TIP3    H164322   5.730   0.717  10.660 -0.3905 -1.3612 -0.8581
14277TIP3    H264323   5.879   0.692  10.673  0.1678  2.5272  1.6559
14278TIP3   OH264324   1.712   1.804   3.518  0.7786  0.1780  0.1985
14278TIP3    H164325   1.707   1.708   3.526 -1.1508  0.1249 -1.0057
14278TIP3    H264326   1.795   1.827   3.560  1.2891 -2.0172  0.5296
14279TIP3   OH264327   2.990   0.988   0.359 -0.0609  0.2739  0.1625
14279TIP3    H164328   3.021   0.904   0.394 -0.0739  0.8017  1.4820
14279TIP3    H264329   2.898   0.992   0.387  0.2241  1.1847  1.0088
14280TIP3   OH264330   5.508   1.261   2.549 -0.1290 -0.3086 -0.1655
14280TIP3    H164331   5.489   1.345   2.591 -0.8422  0.7058 -2.3317
14280TIP3    H264332   5.584   1.279   2.493  0.5531 -1.4962  0.3368
14281TIP3   OH264333   5.265   1.137  14.693 -0.3372  0.0850  0.3575
14281TIP3    H164334   5.202   1.174  14.755 -0.5787  2.2761 -1.0743
14281TIP3    H264335   5.277   1.206  14.627  0.6934 -1.7129 -1.4587
14282TIP3   OH264336   0.182   4.003   3.998 -0.0836  0.1036  0.8132
14282TIP3    H164337   0.242   3.935   4.027 -0.2870  0.1433  1.3320
14282TIP3    H264338   0.100   3.957   3.981  0.2290 -0.0437 -0.4290
14283TIP3   OH264339   4.390   2.051  14.110 -0.1706  0.4449 -0.6051
14283TIP3    H164340   4.440   2.111  14.164  0.6228 -0.1566 -0.6611
14283TIP3    H264341   4.415   2.072  14.020  2.8811 -2.2363 -0.5656
14284TIP3   OH264342   1.421   6.709  11.138  0.5316  0.1597 -0.3699
14284TIP3    H164343   1.372   6.727  11.218  0.7164 -2.2525  0.3561
14284TIP3    H264344   1.423   6.793  11.091  0.3082  1.6033  2.0625
14285TIP3   OH264345   1.809   4.450  13.301 -0.1677 -0.1751 -0.2392
14285TIP3    H164346   1.752   4.374  13.290  0.6706 -0.5263 -2.7766
14285TIP3    H264347   1.895   4.412  13.318 -0.0686  0.2798  0.3126
14286TIP3   OH264348   6.747   4.837  11.480 -0.0541  0.5084 -0.0319
14286TIP3    H164349   6.680   4.769  11.490 -0.1995  0.5550 -0.5974
14286TIP3    H264350   6.818   4.810  11.537 -0.4427  0.3070  0.3641
14287TIP3   OH264351   2.114   6.834  12.207  0.4892 -0.3318  0.1477
14287TIP3    H164352   2.123   6.928  12.223  0.0765  0.0416 -1.6724
14287TIP3    H264353   2.177   6.794  12.268  0.6147  1.0950  1.0099
14288TIP3   OH264354   0.829   6.011  16.078  0.0150  0.1134 -0.4349
14288TIP3    H164355   0.798   5.928  16.112 -1.6883 -0.0198 -2.1123
14288TIP3    H264356   0.912   5.991  16.035  1.5831  0.0757  2.3944
14289TIP3   OH264357   5.364   0.975  14.449 -0.3482 -0.3436 -0.1830
14289TIP3    H164358   5.363   0.984  14.544 -1.1493 -1.3232 -0.0748
14289TIP3    H264359   5.354   1.064  14.416 -0.8241 -0.0680  0.6668
14290TIP3   OH264360   6.520   4.400  10.270  0.1309  0.2397  0.2415
14290TIP3    H164361   6.599   4.408  10.217  0.6205 -2.3062  0.4785
14290TIP3    H264362   6.552   4.388  10.359 -0.3122 -3.2701  0.0506
14291TIP3   OH264363   4.315   1.455  12.517  0.1642 -0.1023  0.3351
14291TIP3    H164364   4.227   1.493  12.510  1.5280  3.2173 -1.3396
14291TIP3    H264365   4.315   1.382  12.455 -1.4137 -0.2814  0.5058
14292TIP3   OH264366   4.632   1.341   1.807  0.1096 -0.7288 -0.1723
14292TIP3    H164367   4.668   1.268   1.857 -0.6652 -3.0982 -2.8403
14292TIP3    H264368   4.579   1.300   1.738 -3.3778  2.3989  0.2880
14293TIP3   OH264369   0.647   0.622   0.691  0.7674  0.2358  0.0658
14293TIP3    H164370   0.579   0.561   0.664  0.3555  0.2774  0.9585
14293TIP3    H264371   0.724   0.596   0.641  0.9790 -1.9093  1.4058
14294TIP3   OH264372   6.432   0.285  11.395 -0.2700 -0.1538  0.5619
14294TIP3    H164373   6.427   0.265  11.302  0.5835  0.1225  0.4528
14294TIP3    H264374   6.364   0.230  11.434  0.1033 -1.1074 -0.0890
14295TIP3   OH264375   0.472   6.783   1.409 -0.1421 -0.1557 -0.9431
14295TIP3    H164376   0.500   6.737   1.330  0.3673 -0.3462 -0.6600
14295TIP3    H264377   0.548   6.780   1.467  0.0834  1.4504 -1.0931
14296TIP3   OH264378   1.652   5.513  14.321 -0.2542 -0.5630  0.3444
14296TIP3    H164379   1.587   5.536  14.255 -0.8374 -1.2239  0.6672
14296TIP3    H264380   1.664   5.593  14.372  0.8896  0.2365 -1.0900
14297TIP3   OH264381   0.054   0.315  12.310 -0.4838 -0.2075  0.7451
14297TIP3    H164382   0.003   0.383  12.354  1.7939  1.1088  1.5357
14297TIP3    H264383   0.107   0.276  12.379 -0.1221 -1.2300 -0.0907
14298TIP3   OH264384   2.007   4.130  15.765 -0.5536 -0.3997 -0.6346
14298TIP3    H164385   2.039   4.048  15.802  1.7306  0.1692 -1.1780
14298TIP3    H264386   2.086   4.181  15.748 -1.9284  2.2640  0.4322
14299TIP3   OH264387   2.161   5.099  15.482 -0.4338 -0.0560  0.3469
14299TIP3    H164388   2.098   5.036  15.447 -1.4687  0.7945  0.6182
14299TIP3    H264389   2.246   5.065  15.455 -1.1189  0.2707 -2.5845
14300TIP3   OH264390   3.213   5.854   0.942 -0.0562  0.0235 -0.8705
14300TIP3    H164391   3.239   5.768   0.974 -0.5298  0.2514  0.1632
14300TIP3    H264392   3.221   5.847   0.847 -0.7728 -1.3932 -0.8607
14301TIP3   OH264393   1.189   5.153  14.278 -0.0095  0.8126  0.0612
14301TIP3    H164394   1.254   5.175  14.344  1.4238  0.6909 -1.2536
14301TIP3    H264395   1.182   5.057  14.282 -0.5016  0.8627  0.5387
14302TIP3   OH264396   2.408   5.350   4.484  0.0463 -0.1654  0.5937
14302TIP3    H164397   2.344   5.406   4.439 -1.5776 -1.7803  0.7678
14302TIP3    H264398   2.452   5.303   4.414  1.4568  1.3052  0.4433
14303TIP3   OH264399   0.197   5.483   2.503  1.0094 -0.0437 -0.2725
14303TIP3    H164400   0.145   5.403   2.490  0.8838  0.0143 -0.1379
14303TIP3    H264401   0.234   5.473   2.591  1.2431 -0.0932 -0.3768
14304TIP3   OH264402   4.551   0.021  16.767  0.3964  0.0697  0.0028
14304TIP3    H164403   4.546  -0.031  16.847 -2.1760 -1.9158 -1.2851
14304TIP3    H264404   4.460   0.026  16.737  1.0158  2.5726 -1.7039
14305TIP3   OH264405   0.780   5.931   3.860 -0.3141  0.5987 -0.2067
14305TIP3    H164406   0.811   5.842   3.874  0.5915  1.2081  2.1341
14305TIP3    H264407   0.851   5.987   3.890 -1.4916  2.1144 -0.0727
14306TIP3   OH264408   5.338   1.512  14.138  0.0927  0.3326 -0.3680
14306TIP3    H164409   5.250   1.474  14.139 -0.8666  2.4658  1.3099
14306TIP3    H264410   5.393   1.444  14.177 -0.2957 -1.9310 -3.3797
14307TIP3   OH264411   4.815   6.403  13.664  0.4186 -1.0057 -0.8821
14307TIP3    H164412   4.894   6.457  13.666  0.1014 -0.5433 -0.6282
14307TIP3    H264413   4.757   6.443  13.728  0.6134 -2.3341  0.1829
14308TIP3   OH264414   3.065   3.581   6.633 -0.4099  0.5835  0.6677
14308TIP3    H164415   3.062   3.602   6.727 -2.6048 -2.3118  1.3872
14308TIP3    H264416   3.145   3.530   6.623 -0.1090  0.9940  0.9149
14309TIP3   OH264417   2.236   3.509   4.568 -0.3210  0.9937 -0.2418
14309TIP3    H164418   2.205   3.436   4.622  2.4912  0.7977  1.2712
14309TIP3    H264419   2.187   3.585   4.600 -1.1449  0.2847  0.2157
14310TIP3   OH264420   1.041   6.363   2.412  0.1344  0.1447  0.1168
14310TIP3    H164421   1.019   6.304   2.340  0.6110  3.2865 -2.8057
14310TIP3    H264422   0.957   6.399   2.440 -0.2446 -2.1774  2.3813
14311TIP3   OH264423   3.145   4.007   2.777 -0.2067  0.2140 -0.1780
14311TIP3    H164424   3.147   4.102   2.776 -0.2682  0.2765  1.6248
14311TIP3    H264425   3.054   3.985   2.800  0.3182 -0.1684  1.7388
14312TIP3   OH264426   2.694   0.794   1.809  0.1722  0.4808  0.0534
14312TIP3    H164427   2.650   0.733   1.749 -0.1703  0.0083  0.7805
14312TIP3    H264428   2.770   0.824   1.759  0.7988 -1.1514 -0.0453
14313TIP3   OH264429   2.737   3.672   1.193  0.1266  0.0952  0.0389
14313TIP3    H164430   2.735   3.736   1.264  0.0351 -0.4587  0.5461
14313TIP3    H264431   2.793   3.711   1.126  0.6305  0.3995  0.6336
14314TIP3   OH264432   1.411   5.838   3.660 -0.0576  0.1533 -0.0016
14314TIP3    H164433   1.341   5.901   3.677  0.0888 -0.0294  1.3754
14314TIP3    H264434   1.436   5.854   3.569 -2.1379 -0.0297 -0.6540
14315TIP3   OH264435   1.029   3.185  12.325  0.6723  0.2426 -0.2223
14315TIP3    H164436   1.075   3.106  12.298  1.0876  0.8171 -1.2435
14315TIP3    H264437   1.048   3.249  12.256 -1.6462  0.5063 -0.7186
14316TIP3   OH264438   2.196   0.203  12.349 -0.7951 -0.2421  0.1170
14316TIP3    H164439   2.269   0.265  12.341 -0.1854 -0.6043  2.2838
14316TIP3    H264440   2.206   0.165  12.436 -2.0724 -2.2383 -0.5299
14317TIP3   OH264441   2.317   0.754   5.434 -0.3477 -0.1627 -0.4846
14317TIP3    H164442   2.308   0.841   5.395 -0.9314 -0.8758 -2.0096
14317TIP3    H264443   2.367   0.704   5.370  1.4112 -0.5310  1.1051
14318TIP3   OH264444   4.267   4.831   2.364  0.1048  0.5899 -0.2543
14318TIP3    H164445   4.272   4.905   2.303 -0.0482 -0.8817 -2.1769
14318TIP3    H264446   4.356   4.797   2.367 -0.3217 -0.8145 -1.6955
14319TIP3   OH264447   1.504   0.968  14.612 -0.3622 -0.0736 -0.0044
14319TIP3    H164448   1.499   0.900  14.545 -0.6060  0.0351 -0.0977
14319TIP3    H264449   1.452   1.040  14.576  0.6116  0.5043 -0.3119
14320TIP3   OH264450   3.255   6.623  15.983 -0.3751 -0.0084  0.6212
14320TIP3    H164451   3.188   6.591  15.922  0.7607 -0.4632 -0.4436
14320TIP3    H264452   3.327   6.650  15.926 -0.0422  1.4630  1.6824
14321TIP3   OH264453   0.738   1.340   2.762 -0.2773 -0.0892  0.2054
14321TIP3    H164454   0.810   1.320   2.702 -1.1208  1.1882 -1.3116
14321TIP3    H264455   0.738   1.436   2.769 -1.3921 -0.1072  0.7422
14322TIP3   OH264456   0.810   3.547  11.919  0.5626  0.1455 -0.0235
14322TIP3    H164457   0.876   3.607  11.882  0.7424 -1.3970 -2.4366
14322TIP3    H264458   0.729   3.598  11.919  0.4887  0.2004 -2.9987
14323TIP3   OH264459   3.332   0.399   3.725  0.3486  0.6200 -0.0199
14323TIP3    H164460   3.270   0.455   3.678  1.1906  1.5926 -0.0087
14323TIP3    H264461   3.279   0.327   3.759 -0.6509  1.0787 -0.5714
14324TIP3   OH264462   0.882   6.714   2.797  0.0160  0.7593 -0.4032
14324TIP3    H164463   0.954   6.771   2.824 -1.1684  1.0864  2.4564
14324TIP3    H264464   0.896   6.633   2.846 -1.8809  1.0944  0.8084
14325TIP3   OH264465   6.776   1.375   5.724 -0.2814 -0.3609  0.3575
14325TIP3    H164466   6.870   1.392   5.730 -0.4531  1.0983 -0.4762
14325TIP3    H264467   6.752   1.345   5.812  0.5875  1.4906  1.3007
14326TIP3   OH264468   2.889   3.493  14.840  0.0143 -0.1384  0.1142
14326TIP3    H164469   2.940   3.560  14.886  0.2568 -0.6430  0.5962
14326TIP3    H264470   2.931   3.487  14.754  2.5024 -2.3595  1.3327
14327TIP3   OH264471   6.252   2.462   5.281  0.7312  0.1984  0.3686
14327TIP3    H164472   6.239   2.557   5.282  2.0636  0.4101  0.0552
14327TIP3    H264473   6.303   2.446   5.202  0.3544 -0.8090  0.3192
14328TIP3   OH264474   5.625   1.828   3.638 -0.4800  0.4409  0.2481
14328TIP3    H164475   5.642   1.911   3.592 -0.6706  1.3117  1.6803
14328TIP3    H264476   5.675   1.835   3.719 -1.9091 -0.0698  1.2153
14329TIP3   OH264477   1.744   0.079  16.977 -0.2991  0.1971  0.0557
14329TIP3    H164478   1.710   0.138  16.911  1.5067 -1.0320 -2.1408
14329TIP3    H264479   1.821   0.123  17.012 -0.1511  0.0323 -0.0605
14330TIP3   OH264480   5.790   6.051   5.366  0.0464  0.1293  0.1575
14330TIP3    H164481   5.730   6.125   5.369  0.9204  0.9035 -0.6806
14330TIP3    H264482   5.857   6.071   5.431  0.0461 -0.1526  0.2493
14331TIP3   OH264483   5.234   1.095   0.764 -0.0020 -0.1921 -0.4145
14331TIP3    H164484   5.199   1.083   0.676  0.3766 -0.1674 -0.5685
14331TIP3    H264485   5.191   1.027   0.817 -1.4676  0.8167 -0.2607
14332TIP3   OH264486   4.228   1.557   2.197 -0.2624  0.4979 -0.3391
14332TIP3    H164487   4.271   1.628   2.150  0.2769  1.4690  1.5408
14332TIP3    H264488   4.183   1.599   2.270  0.3776 -1.0934  1.0430
14333TIP3   OH264489   2.051   3.052  11.052  0.0513  0.7136  0.3648
14333TIP3    H164490   2.052   2.967  11.094  0.2393 -0.5228 -1.9519
14333TIP3    H264491   2.143   3.080  11.051 -0.0091  0.9563  1.1140
14334TIP3   OH264492   4.861   2.863   1.152  0.2211  0.6488  0.2223
14334TIP3    H164493   4.935   2.922   1.169  1.7899 -0.8361 -1.0906
14334TIP3    H264494   4.844   2.872   1.058  0.6644 -1.1195 -0.0654
14335TIP3   OH264495   0.956   2.584  15.186 -0.6017  0.8406  0.5183
14335TIP3    H164496   1.008   2.530  15.127  0.3370  1.7408  0.5112
14335TIP3    H264497   0.909   2.644  15.128  0.2802  1.6899  0.6554
14336TIP3   OH264498   0.010   4.331   5.031  0.7132 -0.0863  0.0709
14336TIP3    H164499   0.043   4.339   4.942  1.1747 -0.1893  0.2287
14336TIP3    H264500   0.088   4.313   5.084  0.4571  0.0668  0.5069
14337TIP3   OH264501   1.954   4.629  14.364  0.0059  0.2965 -0.1525
14337TIP3    H164502   2.008   4.626  14.443 -0.4159  1.5788  0.2165
14337TIP3    H264503   2.016   4.653  14.295  0.0617  1.0594  0.1428
14338TIP3   OH264504   5.577   2.164   0.327 -0.0400  0.6320 -0.7744
14338TIP3    H164505   5.622   2.212   0.258  0.2589  0.9060 -0.3917
14338TIP3    H264506   5.484   2.167   0.301  0.1007  0.4788 -1.3106
14339TIP3   OH264507   4.437   3.126   6.143  0.2279  0.2358 -0.1463
14339TIP3    H164508   4.526   3.099   6.165 -0.2576  0.1491  1.9235
14339TIP3    H264509   4.381   3.074   6.200 -1.1203  0.8083 -0.8889
14340TIP3   OH264510   4.759   2.649  15.130 -0.0352  0.3780  0.3196
14340TIP3    H164511   4.798   2.568  15.097  1.3004  1.2201 -0.2842
14340TIP3    H264512   4.673   2.653  15.089 -1.3000 -2.0422  2.4570
14341TIP3   OH264513   0.909   1.873   5.154 -0.1829 -0.4461 -0.3940
14341TIP3    H164514   0.832   1.923   5.183  1.5641  2.6559 -0.6898
14341TIP3    H264515   0.962   1.861   5.233  0.8603  0.9987 -0.8410
14342TIP3   OH264516   4.679   4.026  14.765  0.5325  0.2203  0.3065
14342TIP3    H164517   4.744   4.048  14.698  0.9742  1.8666  1.2176
14342TIP3    H264518   4.729   3.976  14.830  0.3591 -0.4426 -0.0698
14343TIP3   OH264519   3.847   3.528  12.241 -0.1490  0.2392 -0.7679
14343TIP3    H164520   3.795   3.502  12.316 -1.1175 -0.7363 -1.7455
14343TIP3    H264521   3.938   3.520  12.271 -0.5184  1.2957  0.7372
14344TIP3   OH264522   4.660   4.756  16.587  0.6090  0.2056 -0.0134
14344TIP3    H164523   4.626   4.846  16.588  1.6233  0.5968  1.4088
14344TIP3    H264524   4.582   4.701  16.597  0.0715  0.9569  0.0501
14345TIP3   OH264525   3.608   0.711   1.442 -0.0922 -0.0726  0.4654
14345TIP3    H164526   3.703   0.709   1.452 -0.1733 -2.3352  1.5528
14345TIP3    H264527   3.578   0.630   1.484 -2.3785 -0.2160 -1.2324
14346TIP3   OH264528   1.496   1.083   4.922  0.0598 -0.1604  0.5221
14346TIP3    H164529   1.585   1.047   4.925  0.4380  0.7789  1.0913
14346TIP3    H264530   1.443   1.020   4.972  0.6056 -0.2198  1.0415
14347TIP3   OH264531   1.725   0.265   5.577 -0.0122  0.5307  0.5139
14347TIP3    H164532   1.710   0.176   5.547  1.2054  0.1242  1.0240
14347TIP3    H264533   1.763   0.254   5.665  2.0269  1.4603 -0.2023
14348TIP3   OH264534   4.817   3.198  16.558 -0.0620  0.0498 -0.3512
14348TIP3    H164535   4.736   3.231  16.597 -0.2343  0.7469 -1.2374
14348TIP3    H264536   4.851   3.273  16.509  0.2383 -0.7231 -1.3508
14349TIP3   OH264537   0.498   2.787   1.896  0.1287  0.3181  0.1487
14349TIP3    H164538   0.467   2.718   1.837  2.0202  0.1924 -0.7717
14349TIP3    H264539   0.431   2.855   1.890  0.2085  0.2734 -2.1132
14350TIP3   OH264540   5.865   0.446  13.117 -0.1595  0.2437  0.3649
14350TIP3    H164541   5.896   0.375  13.062  0.3801  0.7626 -0.0167
14350TIP3    H264542   5.837   0.514  13.056 -0.5873  0.4002  0.7242
14351TIP3   OH264543   3.530   5.587  16.976  0.1759 -0.6431  0.6695
14351TIP3    H164544   3.513   5.646  16.903 -1.8419 -0.8425  0.9254
14351TIP3    H264545   3.594   5.525  16.942  0.3021  0.0854 -0.4767
14352TIP3   OH264546   3.541   6.101  12.820 -0.3325 -0.2251  0.3395
14352TIP3    H164547   3.472   6.145  12.771 -1.3076 -2.9842 -0.9572
14352TIP3    H264548   3.589   6.051  12.754  1.4774 -0.1894  1.5500
14353TIP3   OH264549   3.834   4.946  12.693 -0.0808 -0.3158 -0.2918
14353TIP3    H164550   3.891   4.901  12.631  0.1320 -0.5691  0.0851
14353TIP3    H264551   3.750   4.954  12.648  0.7171  1.6643 -1.5786
14354TIP3   OH264552   1.208   4.714   0.588 -0.0227  0.4592  0.2701
14354TIP3    H164553   1.178   4.729   0.499 -0.0236  0.1142  0.2110
14354TIP3    H264554   1.186   4.622   0.606 -0.2921  0.6076  0.7269
14355TIP3   OH264555   6.313   3.171   1.065 -0.0072 -0.1257  0.2386
14355TIP3    H164556   6.220   3.192   1.050  0.2574  2.5042  1.6646
14355TIP3    H264557   6.315   3.137   1.154  0.5608  1.6510  0.9516
14356TIP3   OH264558   6.091   2.440  11.098 -0.3357 -0.4734  0.4308
14356TIP3    H164559   6.099   2.475  11.010  0.6655 -1.0184  0.2887
14356TIP3    H264560   6.132   2.505  11.155 -0.5951 -0.3220  0.4447
14357TIP3   OH264561   6.181   1.146  14.973  0.6136  0.3642  0.6722
14357TIP3    H164562   6.186   1.228  14.923  0.8986  0.6664  1.1867
14357TIP3    H264563   6.250   1.091  14.936 -0.0039  0.0951 -0.1185
14358TIP3   OH264564   0.707   3.330   5.145  0.2919  0.1421  0.0260
14358TIP3    H164565   0.719   3.370   5.230  1.3266 -0.1907  0.0527
14358TIP3    H264566   0.656   3.394   5.095  1.7913  1.4516  0.0981
14359TIP3   OH264567   0.641   5.776  16.066 -0.3560  0.0188  0.2543
14359TIP3    H164568   0.555   5.737  16.081  1.0851 -2.4760  3.3656
14359TIP3    H264569   0.669   5.741  15.982 -1.3197 -1.3641  0.4766
14360TIP3   OH264570   4.923   1.538   0.800  0.2062  0.3762 -0.7475
14360TIP3    H164571   4.838   1.579   0.782  0.0712  1.4157  1.7881
14360TIP3    H264572   4.975   1.607   0.840  0.5357 -1.4071  2.2298
14361TIP3   OH264573   2.463   4.278   0.053  0.4284 -0.6101 -0.8064
14361TIP3    H164574   2.528   4.271   0.123 -0.4728  1.6619  0.3294
14361TIP3    H264575   2.392   4.220   0.079  0.2658 -0.0622 -0.0241
14362TIP3   OH264576   3.149   6.606  11.773  0.3127  0.0252  0.4327
14362TIP3    H164577   3.200   6.550  11.715 -0.8756  1.2251 -1.9535
14362TIP3    H264578   3.211   6.672  11.804  0.5045  0.8598 -1.5926
14363TIP3   OH264579   0.646   6.211  16.109 -0.2191 -0.4821 -0.0391
14363TIP3    H164580   0.717   6.147  16.118 -0.0799 -0.2924  0.2109
14363TIP3    H264581   0.566   6.158  16.116 -0.1055 -0.6982 -0.3449
14364TIP3   OH264582   5.702   5.160  11.722  0.1526  0.6478 -0.1071
14364TIP3    H164583   5.748   5.129  11.644  3.5073  0.1594  1.8541
14364TIP3    H264584   5.709   5.255  11.717 -1.6235  0.7566 -1.4022
14365TIP3   OH264585   3.343   6.564  15.701 -0.4814 -0.1762  0.3045
14365TIP3    H164586   3.360   6.470  15.707 -1.6991 -0.3738  1.3388
14365TIP3    H264587   3.377   6.590  15.616  1.7040 -1.1328  0.8249
14366TIP3   OH264588   5.400   6.394   5.791  0.3656  0.2799  0.1015
14366TIP3    H164589   5.328   6.334   5.808  0.3930 -0.6255 -2.4853
14366TIP3    H264590   5.359   6.471   5.753  0.5692  0.8527  1.0125
14367TIP3   OH264591   0.591   1.154   0.542 -0.1964 -0.0362  0.2375
14367TIP3    H164592   0.655   1.105   0.593  0.4234  0.7019  0.1785
14367TIP3    H264593   0.572   1.232   0.595  0.3931  0.6962 -0.5952
14368TIP3   OH264594   6.021   5.676   3.284 -0.1238  0.2227 -0.5046
14368TIP3    H164595   6.087   5.634   3.228  0.8287  2.2055 -0.9615
14368TIP3    H264596   5.937   5.648   3.249  0.4774  0.2331 -1.9930
14369TIP3   OH264597   3.427   3.841  13.366 -0.0021 -0.4158  0.2126
14369TIP3    H164598   3.422   3.794  13.282 -0.5414 -0.7214  0.4116
14369TIP3    H264599   3.337   3.841  13.399 -0.2721  1.8270 -0.3575
14370TIP3   OH264600   0.753   3.591   6.354 -0.6681  0.0178  0.0465
14370TIP3    H164601   0.719   3.676   6.327  1.5465  0.1622 -2.7961
14370TIP3    H264602   0.704   3.528   6.302  0.1317 -0.1024 -0.5982
14371TIP3   OH264603   3.533   3.145   4.538 -0.2818  0.0227  0.2244
14371TIP3    H164604   3.604   3.209   4.544 -0.1326 -0.2120  1.0124
14371TIP3    H264605   3.482   3.174   4.463  0.5412  0.2982 -0.2400
14372TIP3   OH264606   6.285   6.760  12.457 -0.2416 -0.1266  0.1834
14372TIP3    H164607   6.193   6.787  12.465 -0.1960  0.0037  0.2727
14372TIP3    H264608   6.281   6.665  12.448 -0.3830 -0.1271  0.2485
14373TIP3   OH264609   5.099   6.587  16.641 -0.0405  0.1280 -0.2700
14373TIP3    H164610   5.068   6.619  16.725  0.7634  0.5356 -0.1201
14373TIP3    H264611   5.061   6.647  16.577 -2.1320 -1.2166 -0.3943
14374TIP3   OH264612   4.863   5.158  12.092 -0.1158 -0.6675  0.1431
14374TIP3    H164613   4.872   5.227  12.157 -1.2352 -1.0069  0.6853
14374TIP3    H264614   4.895   5.196  12.011  1.2069 -0.1974  0.8542
14375TIP3   OH264615   6.747   1.795   4.101  0.0095 -0.0918  0.5748
14375TIP3    H164616   6.707   1.847   4.171 -0.4926 -0.5392  0.6205
14375TIP3    H264617   6.802   1.858   4.053 -4.3499  1.8487 -2.5446
14376TIP3   OH264618   0.545   1.784   4.016 -0.2631  0.2747  0.1513
14376TIP3    H164619   0.609   1.854   4.023 -0.3008  0.2256  1.0524
14376TIP3    H264620   0.480   1.803   4.084  0.5039 -1.4269  1.4251
14377TIP3   OH264621   2.166   5.449  10.443  0.6853 -0.3510  0.4963
14377TIP3    H164622   2.144   5.367  10.486 -0.4484 -0.5797 -0.4728
14377TIP3    H264623   2.082   5.494  10.431  1.0410  0.0328 -0.7809
14378TIP3   OH264624   0.893   3.509   3.972 -0.0233 -0.1488 -0.8620
14378TIP3    H164625   0.939   3.461   4.041  0.4818  0.8195 -0.5150
14378TIP3    H264626   0.886   3.446   3.900 -1.3199 -1.4667  0.3507
14379TIP3   OH264627   4.362   2.450   6.620  0.1809  0.3626  0.4750
14379TIP3    H164628   4.370   2.542   6.644 -0.4868  1.4457 -2.9159
14379TIP3    H264629   4.438   2.432   6.566 -0.4902 -0.6242 -0.1803
14380TIP3   OH264630   0.435   0.991  14.919  0.0754 -0.2340 -0.0005
14380TIP3    H164631   0.463   0.900  14.917  0.6442 -0.1982  2.4546
14380TIP3    H264632   0.484   1.033  14.849  1.1891 -1.4810 -0.0050
14381TIP3   OH264633   1.168   2.839  13.345 -0.2093 -0.0461  0.2438
14381TIP3    H164634   1.219   2.840  13.264 -1.0548  0.7594 -0.3132
14381TIP3    H264635   1.184   2.925  13.384  1.6079 -1.0581  1.8975
14382TIP3   OH264636   3.440   1.116   4.919  0.0920 -0.7543 -0.0109
14382TIP3    H164637   3.428   1.082   5.008  1.7250 -0.1219  0.4864
14382TIP3    H264638   3.426   1.210   4.927  2.3035 -0.3776  0.0664
14383TIP3   OH264639   2.967   6.805  14.489  0.5208 -0.0453  1.0460
14383TIP3    H164640   2.974   6.819  14.583 -2.3125 -1.0676  1.4948
14383TIP3    H264641   2.976   6.710  14.478 -0.8883 -0.1330  0.5160
14384TIP3   OH264642   2.048   0.161  15.718 -0.2059  0.5628 -0.0450
14384TIP3    H164643   2.054   0.131  15.809 -1.0217 -0.2967 -0.2693
14384TIP3    H264644   2.071   0.254  15.723  1.2717  0.1860  0.8125
14385TIP3   OH264645   3.985   6.066  16.532  0.8271 -0.3017 -0.2458
14385TIP3    H164646   3.901   6.025  16.510  1.4100 -0.8737 -1.4864
14385TIP3    H264647   3.982   6.077  16.627 -0.3325 -1.0308 -0.1795
14386TIP3   OH264648   0.373   2.582   1.703 -0.4880  0.4349  0.2589
14386TIP3    H164649   0.345   2.511   1.761 -2.2750 -0.4312 -1.5202
14386TIP3    H264650   0.322   2.568   1.623  1.5220  1.8371 -1.3553
14387TIP3   OH264651   1.227   2.422  15.610  0.0100  0.1176  0.8051
14387TIP3    H164652   1.293   2.402  15.677  0.4341  0.3654  0.4647
14387TIP3    H264653   1.272   2.407  15.527 -0.7126 -0.8396  0.5661
14388TIP3   OH264654   4.086   4.410   4.768 -0.5109 -0.1610 -0.3561
14388TIP3    H164655   4.083   4.336   4.707 -1.0325 -0.2966 -0.1750
14388TIP3    H264656   4.158   4.465   4.736 -0.2130 -0.6718 -0.5746
14389TIP3   OH264657   0.069   3.202  15.401  0.6738  0.0261  0.2780
14389TIP3    H164658   0.160   3.179  15.418  0.3513 -1.3471  0.2374
14389TIP3    H264659   0.033   3.126  15.356  0.4346  1.9074 -3.0870
14390TIP3   OH264660   4.235   3.113  11.142  0.1798  0.0979 -0.3291
14390TIP3    H164661   4.295   3.132  11.069  0.2302 -0.0030 -0.3141
14390TIP3    H264662   4.153   3.088  11.100 -0.4156  1.9204 -0.3670
14391TIP3   OH264663   3.330   1.060   6.558  0.1339  0.1712  0.2844
14391TIP3    H164664   3.267   1.011   6.506 -0.8487  0.9464  0.7148
14391TIP3    H264665   3.278   1.103   6.626  1.1675  0.5673  0.8572
14392TIP3   OH264666   6.541   0.447  16.780 -0.1155 -0.2322  0.0530
14392TIP3    H164667   6.454   0.488  16.784  0.1396  0.6603 -2.1221
14392TIP3    H264668   6.537   0.391  16.703  0.2205 -2.8656  1.8383
14393TIP3   OH264669   2.201   2.795  11.564 -0.2323  0.2724  0.1064
14393TIP3    H164670   2.134   2.852  11.602 -0.7339 -0.4150  0.2805
14393TIP3    H264671   2.154   2.713  11.545  0.6497 -0.3533  0.5816
14394TIP3   OH264672   6.484   5.898   5.084  0.1787  0.1090 -0.0413
14394TIP3    H164673   6.548   5.827   5.094 -2.3104 -2.4135 -0.7337
14394TIP3    H264674   6.417   5.862   5.026 -1.4005  2.9650 -0.1754
14395TIP3   OH264675   4.753   2.464  11.713  0.2211 -0.3374  0.1658
14395TIP3    H164676   4.750   2.377  11.672  0.4696 -0.7899  1.0843
14395TIP3    H264677   4.841   2.469  11.751 -0.4091 -0.4359  1.6931
14396TIP3   OH264678   4.079   4.545   4.167 -0.3578  0.6738 -0.2957
14396TIP3    H164679   4.064   4.615   4.231 -0.6569 -0.7805  1.3105
14396TIP3    H264680   3.993   4.502   4.158 -0.1442  0.4022 -1.1244
14397TIP3   OH264681   5.477   2.618   4.969 -0.3332 -0.5182 -0.5019
14397TIP3    H164682   5.483   2.709   4.999  1.1315 -0.6805 -0.2201
14397TIP3    H264683   5.401   2.583   5.016  0.1673  0.0520  0.8007
14398TIP3   OH264684   5.267   4.307   1.246 -0.2499  0.6654 -0.5843
14398TIP3    H164685   5.217   4.330   1.324 -1.0891  2.0076 -1.4730
14398TIP3    H264686   5.274   4.211   1.249 -0.8560  0.6401  0.7624
14399TIP3   OH264687   6.720   0.122   0.681 -0.3631 -0.0782  0.0665
14399TIP3    H164688   6.728   0.052   0.616 -3.0193 -0.1788 -0.2605
14399TIP3    H264689   6.810   0.149   0.699  0.6253 -2.3310 -1.1487
14400TIP3   OH264690   3.975   5.642   2.545 -0.2750  0.1947  0.2975
14400TIP3    H164691   3.936   5.567   2.499 -1.2066  0.9608 -0.1814
14400TIP3    H264692   3.938   5.719   2.502  0.5358  0.9423  0.9015
14401TIP3   OH264693   5.870   1.267   2.109 -0.4373 -0.1636 -0.1239
14401TIP3    H164694   5.884   1.361   2.124  1.5494  0.2195 -3.4151
14401TIP3    H264695   5.879   1.228   2.196 -3.6266  2.7693  1.8305
14402TIP3   OH264696   6.647   0.791   3.953  0.5795  0.3334  0.2276
14402TIP3    H164697   6.659   0.758   3.864  2.9415  1.5529 -0.0091
14402TIP3    H264698   6.554   0.813   3.959  0.0463 -1.2796 -1.3608
14403TIP3   OH264699   1.616   1.437   1.582 -0.4818 -0.2046 -0.0171
14403TIP3    H164700   1.692   1.416   1.527 -1.6738 -0.6659 -1.5902
14403TIP3    H264701   1.611   1.364   1.644  0.3375 -0.1903  0.0774
14404TIP3   OH264702   2.026   4.636   0.918  0.4999 -0.7984  0.3039
14404TIP3    H164703   2.022   4.730   0.901 -1.8902 -1.0345 -0.9073
14404TIP3    H264704   1.952   4.620   0.976 -0.4382 -2.1933 -1.1940
14405TIP3   OH264705   2.464   3.848  12.214  0.3102  0.4297 -0.1607
14405TIP3    H164706   2.380   3.869  12.174 -0.5143 -1.0281  0.7401
14405TIP3    H264707   2.529   3.876  12.149 -0.9347 -3.0017 -3.2530
14406TIP3   OH264708   4.546   6.236  14.787 -0.5920  0.1780  0.3104
14406TIP3    H164709   4.478   6.169  14.798  0.2011 -1.1514 -2.1821
14406TIP3    H264710   4.624   6.198  14.826 -0.2488 -0.1935 -0.7102
14407TIP3   OH264711   1.187   1.171  14.972  0.0601  0.3847  0.1458
14407TIP3    H164712   1.160   1.260  14.993 -0.4396  0.0537  0.9700
14407TIP3    H264713   1.144   1.117  15.038 -0.2840 -0.5591 -0.8280
14408TIP3   OH264714   4.948   5.902   2.259  0.7379 -0.7101 -0.7864
14408TIP3    H164715   4.949   5.903   2.354 -0.2593 -3.7900 -0.6273
14408TIP3    H264716   4.963   5.993   2.233  1.4869  0.1333  2.2612
14409TIP3   OH264717   3.789   2.739  16.193  0.0339  0.5312  0.4876
14409TIP3    H164718   3.756   2.719  16.106 -0.9518 -1.0012  1.1698
14409TIP3    H264719   3.792   2.654  16.238  1.4406  1.1528  1.6389
14410TIP3   OH264720   0.823   1.631   5.031 -0.4780 -0.0355  0.4614
14410TIP3    H164721   0.815   1.711   5.082 -0.3284  0.5416 -0.3911
14410TIP3    H264722   0.885   1.653   4.961 -2.6860  0.0794 -1.6095
14411TIP3   OH264723   5.806   4.548   0.039 -0.5905  0.2131 -0.4750
14411TIP3    H164724   5.863   4.562   0.115 -0.8480 -0.4130 -0.1613
14411TIP3    H264725   5.857   4.490  -0.018 -1.5052 -1.6898  0.5334
14412TIP3   OH264726   1.966   5.218   6.160  0.4973 -0.2094 -0.1269
14412TIP3    H164727   1.911   5.289   6.127 -1.4698 -0.9667  1.2533
14412TIP3    H264728   1.978   5.238   6.253  1.2083 -0.8880 -0.0621
14413TIP3   OH264729   6.404   2.010   5.142  0.3179  0.0300  0.1409
14413TIP3    H164730   6.350   2.056   5.078  1.4691 -0.2612 -1.0887
14413TIP3    H264731   6.493   2.015   5.107  0.8874 -0.7435  1.3781
14414TIP3   OH264732   4.655   4.526   3.620 -0.4859  0.0048  0.8383
14414TIP3    H164733   4.624   4.542   3.531 -1.3199  0.3394  1.1804
14414TIP3    H264734   4.665   4.430   3.625 -1.3382 -0.0997  0.6692
14415TIP3   OH264735   0.952   2.015   3.144 -0.4334 -0.2585 -0.4491
14415TIP3    H164736   1.022   1.956   3.174  0.5724  0.2923 -1.6346
14415TIP3    H264737   0.966   2.094   3.195  1.2661  0.6702 -2.2145
14416TIP3   OH264738   1.295   0.341   0.109 -0.2031  0.4155  0.0264
14416TIP3    H164739   1.381   0.329   0.150 -0.4603 -0.8591  0.2374
14416TIP3    H264740   1.310   0.317   0.017 -0.0469  1.4834 -0.2408
14417TIP3   OH264741   1.802   3.962  12.349 -0.0443  0.3293 -0.1828
14417TIP3    H164742   1.780   4.016  12.425  1.4979 -1.5940  1.7594
14417TIP3    H264743   1.736   3.893  12.349 -1.7706  1.8381 -2.4217
14418TIP3   OH264744   2.203   5.889   4.955 -0.7670  0.4946 -0.2453
14418TIP3    H164745   2.209   5.803   4.912  1.6411 -0.3282  1.5136
14418TIP3    H264746   2.112   5.897   4.982 -1.0809 -1.4420 -0.6101
14419TIP3   OH264747   2.653   5.686   1.298 -0.8499  0.3298  0.4137
14419TIP3    H164748   2.572   5.639   1.277 -1.1877  1.2089 -0.3316
14419TIP3    H264749   2.720   5.645   1.243 -0.9602  0.1572  0.4083
14420TIP3   OH264750   3.080   5.228   3.017 -0.1167 -0.0355  0.0451
14420TIP3    H164751   3.038   5.217   2.932 -1.1967 -0.5272  0.6126
14420TIP3    H264752   3.129   5.147   3.030  0.4162  0.2265 -0.2926
14421TIP3   OH264753   4.696   4.028  11.177 -0.3317  0.0501  0.4637
14421TIP3    H164754   4.694   3.960  11.244 -1.5136 -0.9452 -0.5213
14421TIP3    H264755   4.666   4.107  11.221  0.3294 -0.2262  1.4429
14422TIP3   OH264756   1.120   1.729   4.372 -0.1620 -0.4165  0.2199
14422TIP3    H164757   1.105   1.704   4.280  0.6596  0.1920 -0.0982
14422TIP3    H264758   1.207   1.770   4.371 -0.2704 -0.1468  1.2221
14423TIP3   OH264759   1.467   1.939   6.047 -0.2455 -0.6022 -0.5748
14423TIP3    H164760   1.400   1.922   6.113  0.1053  2.1878  0.6153
14423TIP3    H264761   1.548   1.908   6.087  0.0133  1.3530  0.5190
14424TIP3   OH264762   5.489   0.981   3.262 -0.3317  0.0169  0.1796
14424TIP3    H164763   5.564   0.992   3.320  1.7654  2.9288 -2.6610
14424TIP3    H264764   5.429   1.051   3.288  0.2665  0.8443 -0.6053
14425TIP3   OH264765   2.615   3.052  16.527 -0.3899 -0.2751 -0.1064
14425TIP3    H164766   2.669   2.973  16.526 -0.2330 -0.1697 -0.4119
14425TIP3    H264767   2.667   3.116  16.478 -0.8131 -0.1857 -0.4439
14426TIP3   OH264768   1.140   5.415   5.412 -0.1497  0.3514  0.5546
14426TIP3    H164769   1.048   5.419   5.387  0.9012  1.2364 -3.9710
14426TIP3    H264770   1.174   5.338   5.367  1.5148  0.4266  1.5899
14427TIP3   OH264771   1.989   4.794   2.955 -0.4547  0.2174 -0.3718
14427TIP3    H164772   1.923   4.776   2.889 -1.9949  2.0235  0.5681
14427TIP3    H264773   1.979   4.888   2.973  0.0618 -0.1544  2.2124
14428TIP3   OH264774   5.798   0.773   3.990 -0.3813  0.3991  0.2470
14428TIP3    H164775   5.798   0.759   4.084  2.2587  0.2746  0.3243
14428TIP3    H264776   5.747   0.852   3.977 -1.7549 -0.2242  1.6334
14429TIP3   OH264777   3.488   3.406   3.224 -0.1514  0.7420  0.6395
14429TIP3    H164778   3.442   3.391   3.141 -0.3967  1.3857  0.6472
14429TIP3    H264779   3.576   3.434   3.197  0.5821 -1.4403  0.6351
14430TIP3   OH264780   3.012   1.891   0.957 -0.6838 -0.0420  0.1421
14430TIP3    H164781   2.949   1.944   0.909 -0.8466 -1.5317 -1.3933
14430TIP3    H264782   2.961   1.849   1.026 -1.3516 -1.0092 -0.9112
14431TIP3   OH264783   3.996   4.067   4.908 -0.0889  0.1776  0.6314
14431TIP3    H164784   3.931   4.112   4.855 -0.2064  0.6483  1.1588
14431TIP3    H264785   4.075   4.064   4.853  0.2623  2.0078  0.9558
14432TIP3   OH264786   1.317   0.614   3.740  0.0862  0.1045 -0.1930
14432TIP3    H164787   1.273   0.600   3.656 -0.0365 -0.1402 -0.0899
14432TIP3    H264788   1.355   0.702   3.734  2.3046 -0.8657 -1.5126
14433TIP3   OH264789   1.577   1.922   2.941 -0.2954 -0.1867 -0.2646
14433TIP3    H164790   1.517   1.996   2.937  1.1726  1.0732  0.4868
14433TIP3    H264791   1.520   1.845   2.927 -1.9029  1.0117 -0.6056
14434TIP3   OH264792   1.911   5.934   4.970  0.0053  0.3566 -0.8058
14434TIP3    H164793   1.909   5.958   5.062 -0.7134 -1.2043 -0.3760
14434TIP3    H264794   1.911   6.017   4.923  0.1686  1.1713  0.5969
14435TIP3   OH264795   4.856   1.807  15.381  0.3150  0.2167  0.2089
14435TIP3    H164796   4.820   1.811  15.293  1.1354 -2.0276 -0.2757
14435TIP3    H264797   4.914   1.731  15.381  1.8263  1.2447  2.1459
14436TIP3   OH264798   5.557   0.280   5.137 -0.6065 -0.3785  0.4414
14436TIP3    H164799   5.513   0.332   5.070 -1.2777 -0.1421  1.0535
14436TIP3    H264800   5.509   0.197   5.138 -0.0522 -0.7111  0.0360
14437TIP3   OH264801   2.311   0.464  12.639  0.3764  0.1200 -0.6486
14437TIP3    H164802   2.331   0.395  12.702  1.7233 -0.1378 -1.3320
14437TIP3    H264803   2.240   0.514  12.680  0.3258 -0.8333  0.4696
14438TIP3   OH264804   4.113   3.600   0.139  0.1429  0.0685  0.2874
14438TIP3    H164805   4.155   3.680   0.169  0.2724  0.7305 -1.5501
14438TIP3    H264806   4.179   3.557   0.085 -0.5495 -0.3253 -0.2709
14439TIP3   OH264807   1.065   6.061  11.480  0.3115 -0.0911  0.0595
14439TIP3    H164808   1.105   6.141  11.515  0.9676 -0.4675  0.1780
14439TIP3    H264809   0.991   6.092  11.427 -0.0736  0.5386  0.9514
14440TIP3   OH264810   4.913   5.014   4.280  0.1275 -0.4335 -0.0318
14440TIP3    H164811   4.968   5.066   4.222  1.0539  0.8561  1.9292
14440TIP3    H264812   4.971   4.984   4.349 -0.7676 -2.6607 -0.1378
14441TIP3   OH264813   0.476   6.670  14.359 -0.7073  0.1405 -0.1285
14441TIP3    H164814   0.407   6.639  14.300 -2.2679 -0.0321  1.6748
14441TIP3    H264815   0.435   6.671  14.446  1.9789 -1.3081  1.2974
14442TIP3   OH264816   5.806   4.515  13.082  0.4049 -0.1226 -0.5245
14442TIP3    H164817   5.753   4.484  13.156 -0.4137 -1.5751 -1.6455
14442TIP3    H264818   5.890   4.470  13.092 -0.5350 -2.3110 -1.7456
14443TIP3   OH264819   4.357   1.148   1.540 -0.5176 -0.0518 -0.1948
14443TIP3    H164820   4.387   1.206   1.609  0.9177 -0.8995 -0.0640
14443TIP3    H264821   4.423   1.156   1.471 -1.9978  0.8982 -1.5729
14444TIP3   OH264822   6.222   0.070   0.650 -0.3226  0.3168  0.1832
14444TIP3    H164823   6.316   0.070   0.664 -0.0450 -1.2434 -1.3003
14444TIP3    H264824   6.185   0.106   0.730  1.5243  0.9611  0.7850
14445TIP3   OH264825   4.323   5.666   1.049  0.9979  0.2961  0.5918
14445TIP3    H164826   4.375   5.599   1.092  1.4909 -0.1074 -0.6029
14445TIP3    H264827   4.341   5.655   0.956  0.1068  1.2700  0.2820
14446TIP3   OH264828   5.252   5.128  14.889 -0.1672  0.6348  0.0269
14446TIP3    H164829   5.208   5.152  14.807  0.0988  0.2725 -0.2253
14446TIP3    H264830   5.251   5.209  14.941  0.9664  1.2934 -0.9253
14447TIP3   OH264831   4.376   1.866  13.067  0.4848 -0.5035 -0.3993
14447TIP3    H164832   4.337   1.780  13.055  2.0746 -1.1479 -1.2830
14447TIP3    H264833   4.302   1.927  13.060 -0.8459 -1.8007  1.3785
14448TIP3   OH264834   4.828   4.124   0.189  0.0890  0.6706  0.2612
14448TIP3    H164835   4.832   4.176   0.109  1.2419 -0.9113 -0.7696
14448TIP3    H264836   4.843   4.034   0.160  0.6625  0.0676  2.2698
14449TIP3   OH264837   0.336   2.295  15.084 -0.3157  0.4180 -0.7521
14449TIP3    H164838   0.343   2.205  15.117 -0.1931 -0.0164 -1.9169
14449TIP3    H264839   0.296   2.344  15.156  0.7711 -0.2946  0.3641
14450TIP3   OH264840   4.436   3.747  16.735  0.5683  0.1577  0.3671
14450TIP3    H164841   4.469   3.803  16.665  0.6539 -0.7602 -0.3488
14450TIP3    H264842   4.515   3.718  16.781  0.4114  2.7775  2.5089
14451TIP3   OH264843   0.337   1.978  12.395 -0.0163 -0.0196 -0.0682
14451TIP3    H164844   0.303   1.889  12.385  0.7260 -0.2244 -0.8916
14451TIP3    H264845   0.427   1.967  12.424 -0.2602  0.5045  0.9768
14452TIP3   OH264846   3.519   1.141   3.333  0.0413 -0.2690  0.2390
14452TIP3    H164847   3.429   1.139   3.365 -0.0313 -3.0808  0.0595
14452TIP3    H264848   3.510   1.164   3.240 -0.9731 -4.2098 -0.8034
14453TIP3   OH264849   0.148   5.592  16.260 -0.5472 -0.0252 -0.2345
14453TIP3    H164850   0.190   5.614  16.176 -0.2290 -0.7391 -0.2729
14453TIP3    H264851   0.206   5.629  16.326 -0.3649 -0.1693 -0.3124
14454TIP3   OH264852   5.724   0.316  14.910 -0.3994 -0.3817  0.1695
14454TIP3    H164853   5.761   0.388  14.961 -0.0054 -0.2345 -0.3163
14454TIP3    H264854   5.716   0.244  14.972  0.8430 -0.4622  0.2668
14455TIP3   OH264855   5.281   2.345   4.701  0.3240 -0.1340  0.0883
14455TIP3    H164856   5.196   2.337   4.658  0.7393  0.1759 -0.8186
14455TIP3    H264857   5.329   2.267   4.673  1.4848  1.2572 -2.1195
14456TIP3   OH264858   2.580   2.096  13.809  0.1604  0.2487  0.5432
14456TIP3    H164859   2.660   2.129  13.850  0.0535 -0.4663  1.3541
14456TIP3    H264860   2.581   2.134  13.722  1.5741 -0.0420  0.4054
14457TIP3   OH264861   3.776   4.762   6.679 -0.0945  1.1055 -0.7218
14457TIP3    H164862   3.807   4.768   6.588 -0.2041 -1.5810 -1.0308
14457TIP3    H264863   3.827   4.827   6.727  0.8106  1.7667 -2.4921
14458TIP3   OH264864   1.298   6.462   0.761  0.1428  0.3443 -0.1075
14458TIP3    H164865   1.264   6.374   0.743  1.1042 -0.2010  0.6256
14458TIP3    H264866   1.367   6.448   0.826  2.3815  1.2449 -2.1084
14459TIP3   OH264867   5.044   0.757   2.169 -0.0712  0.5207  0.5817
14459TIP3    H164868   4.993   0.730   2.093  0.3015 -0.2221  0.5815
14459TIP3    H264869   5.133   0.731   2.149  0.1549  0.9687  0.9751
14460TIP3   OH264870   2.430   2.475  12.794 -0.4569  0.3470  0.3835
14460TIP3    H164871   2.339   2.445  12.787 -0.3017  0.2772 -3.5093
14460TIP3    H264872   2.427   2.567  12.768  0.7602 -0.2732 -2.3068
14461TIP3   OH264873   6.492   0.306   0.202 -0.2076 -0.0080 -0.1322
14461TIP3    H164874   6.426   0.370   0.178 -1.2077 -0.6005  0.9400
14461TIP3    H264875   6.573   0.339   0.162 -1.1666  0.6086 -1.6656
14462TIP3   OH264876   4.874   5.736  14.190 -0.0070  0.6539  0.0843
14462TIP3    H164877   4.822   5.745  14.111  0.1498 -0.3054 -0.1472
14462TIP3    H264878   4.939   5.669  14.168 -0.1028  0.2049  1.0856
14463TIP3   OH264879   5.000   0.513  12.447  0.0322  0.6244  0.4264
14463TIP3    H164880   4.982   0.606  12.459 -1.3902  0.4575 -0.2453
14463TIP3    H264881   5.002   0.501  12.352 -1.5522 -0.3209  0.4723
14464TIP3   OH264882   2.088   2.023   6.286  0.4389 -0.1234 -0.2917
14464TIP3    H164883   2.042   2.010   6.204  1.2438  0.9749 -0.9418
14464TIP3    H264884   2.050   2.103   6.323  1.9291  0.9669 -0.9769
14465TIP3   OH264885   6.094   0.842   5.304 -0.2412 -0.2409  0.0416
14465TIP3    H164886   6.175   0.799   5.278  1.3367  1.8573  1.0871
14465TIP3    H264887   6.120   0.934   5.317 -2.8882  0.5748  0.0545
14466TIP3   OH264888   6.235   1.884   1.754  0.4816 -0.2738  0.3798
14466TIP3    H164889   6.269   1.887   1.664  2.1650  0.8434  1.0091
14466TIP3    H264890   6.143   1.907   1.745  0.8859  0.9764 -0.9498
14467TIP3   OH264891   4.786   4.437  12.301 -0.7529  0.0116 -0.4468
14467TIP3    H164892   4.742   4.460  12.219  0.4115 -1.3272 -1.4978
14467TIP3    H264893   4.838   4.514  12.323  2.4731 -0.9924 -3.4842
14468TIP3   OH264894   3.988   0.423  15.062  0.2171  0.2221  0.1343
14468TIP3    H164895   4.051   0.360  15.030  1.2178  0.4851  1.4849
14468TIP3    H264896   4.036   0.506  15.065 -0.5117  0.6568  0.1837
14469TIP3   OH264897   3.040   5.181  12.891  0.2988  0.5042  0.0333
14469TIP3    H164898   3.116   5.165  12.836  1.0981  0.3010  1.1553
14469TIP3    H264899   3.052   5.270  12.924  1.4485 -0.3867  2.2498
14470TIP3   OH264900   3.607   3.404   1.663  0.0625  0.4191  0.1049
14470TIP3    H164901   3.672   3.396   1.593 -0.7974 -0.1500 -0.6462
14470TIP3    H264902   3.582   3.496   1.663 -0.0535  0.3874 -0.4379
14471TIP3   OH264903   2.424   4.565   3.660 -0.2924  0.0150 -0.4356
14471TIP3    H164904   2.384   4.529   3.581  0.7567 -1.4385 -0.3619
14471TIP3    H264905   2.439   4.488   3.716 -1.1401  1.0243  1.2503
14472TIP3   OH264906   1.204   2.062   1.273  0.0359  0.4631  0.4575
14472TIP3    H164907   1.217   2.053   1.367 -1.2062 -1.0179  0.5266
14472TIP3    H264908   1.270   2.126   1.246  2.0339 -0.8103  1.9435
14473TIP3   OH264909   2.404   2.740  11.230  0.1771 -0.1823  0.2956
14473TIP3    H164910   2.398   2.810  11.295 -0.5621  1.6904 -1.6698
14473TIP3    H264911   2.474   2.768  11.171  0.5859 -1.6412  0.0444
14474TIP3   OH264912   3.271   1.383   0.192 -0.4472 -0.3024 -0.3501
14474TIP3    H164913   3.310   1.305   0.232  1.6093  1.0253  0.3936
14474TIP3    H264914   3.334   1.411   0.126  0.2322  2.1710  1.1805
14475TIP3   OH264915   3.476   3.708   1.342  0.7502 -0.0161 -0.4009
14475TIP3    H164916   3.422   3.629   1.339  0.7302 -0.0781  0.9286
14475TIP3    H264917   3.565   3.676   1.323  0.5704 -0.1619 -1.0264
14476TIP3   OH264918   1.146   0.345   3.400  0.5525 -0.0003  0.2293
14476TIP3    H164919   1.229   0.303   3.378  2.1347  3.8014 -1.9764
14476TIP3    H264920   1.090   0.329   3.324 -0.8555 -2.3713  1.6205
14477TIP3   OH264921   4.178   0.658  11.597  0.5135 -0.7451  0.1323
14477TIP3    H164922   4.209   0.621  11.679  1.3089 -1.8255 -0.6321
14477TIP3    H264923   4.241   0.628  11.531  0.8689  1.5113 -0.6316
14478TIP3   OH264924   1.304   5.296   0.406  0.2780 -0.3527  0.1342
14478TIP3    H164925   1.400   5.292   0.400  0.3488 -0.7607  1.2103
14478TIP3    H264926   1.286   5.383   0.443  0.1196  0.3652 -1.5522
14479TIP3   OH264927   2.952   0.236  16.418  0.0693 -0.2305 -0.6010
14479TIP3    H164928   3.007   0.173  16.465 -0.1692 -0.4693 -0.6460
14479TIP3    H264929   2.978   0.226  16.326 -0.0964 -0.3885 -0.6304
14480TIP3   OH264930   4.436   1.723  16.540  0.0431  0.1779 -0.0480
14480TIP3    H164931   4.351   1.698  16.503 -0.7790  0.5716  1.4877
14480TIP3    H264932   4.468   1.644  16.583  0.5688 -0.0278 -0.8043
14481TIP3   OH264933   2.506   0.619  12.062 -0.3818 -0.0273  0.6867
14481TIP3    H164934   2.549   0.692  12.106  0.7081 -0.0806 -0.2743
14481TIP3    H264935   2.464   0.658  11.985 -0.8076 -0.2276  0.8102
14482TIP3   OH264936   6.526   1.230   3.544 -0.0321 -0.1958 -0.2094
14482TIP3    H164937   6.566   1.155   3.588  0.4293 -0.4375 -1.0167
14482TIP3    H264938   6.456   1.258   3.602  0.3220 -0.7422  0.4911
14483TIP3   OH264939   5.347   4.278  14.604  0.4644  0.1633 -0.2748
14483TIP3    H164940   5.299   4.352  14.567  0.2484 -0.1564 -0.6459
14483TIP3    H264941   5.287   4.239  14.667  0.4403  0.0932 -0.3397
14484TIP3   OH264942   0.238   3.683   2.909  0.3218  0.8897  0.1301
14484TIP3    H164943   0.277   3.625   2.844  1.5737  2.4396 -0.5809
14484TIP3    H264944   0.289   3.667   2.989 -0.4069 -0.1286  0.4053
14485TIP3   OH264945   1.663   1.065   5.363 -0.5801  0.0678 -0.6123
14485TIP3    H164946   1.719   0.988   5.369 -0.5701  0.0506 -0.9372
14485TIP3    H264947   1.574   1.029   5.365 -0.7613  0.2673  3.7192
14486TIP3   OH264948   0.152   1.644  11.503 -0.3214  0.0153 -0.0548
14486TIP3    H164949   0.133   1.613  11.414 -0.2534  0.5310 -0.2497
14486TIP3    H264950   0.138   1.738  11.499 -0.1413  0.0626  0.4383
14487TIP3   OH264951   4.576   3.312  16.611  0.0422  0.3084  0.2139
14487TIP3    H164952   4.537   3.348  16.690  0.0990  0.5424  0.1381
14487TIP3    H264953   4.513   3.332  16.542 -0.2235 -0.3056  0.2750
14488TIP3   OH264954   5.652   3.256   2.081  0.2474 -0.1412 -0.1924
14488TIP3    H164955   5.702   3.271   2.161 -1.3827  0.8869  0.7116
14488TIP3    H264956   5.609   3.172   2.095  0.2786 -0.1495 -0.1480
14489TIP3   OH264957   1.823   3.720  16.742 -0.4562  0.1487  0.1757
14489TIP3    H164958   1.866   3.642  16.707  0.9000  0.0538  1.8887
14489TIP3    H264959   1.879   3.747  16.815 -1.0610  2.5609 -0.1850
14490TIP3   OH264960   5.533   0.130   5.431  0.5355  0.0916 -0.1529
14490TIP3    H164961   5.587   0.074   5.376 -0.0045 -0.8021  0.2142
14490TIP3    H264962   5.590   0.155   5.504  0.3637 -1.1458  0.4276
14491TIP3   OH264963   5.915   1.004   3.781  0.5084  0.1841 -0.6598
14491TIP3    H164964   5.871   1.053   3.712 -0.3441  0.8330  0.3120
14491TIP3    H264965   5.870   0.920   3.784  0.0112  0.4514 -0.3850
14492TIP3   OH264966   0.773   3.748  16.867  0.1400 -0.3302 -0.0941
14492TIP3    H164967   0.854   3.713  16.830  0.7342  0.0392  0.8147
14492TIP3    H264968   0.771   3.839  16.837 -0.3164 -0.5350 -0.7069
14493TIP3   OH264969   5.084   4.293   2.396 -0.0888  0.2566  0.0439
14493TIP3    H164970   5.029   4.351   2.448 -1.9988 -0.5230 -1.0408
14493TIP3    H264971   5.037   4.281   2.314  0.1748 -2.8947  0.2331
14494TIP3   OH264972   5.852   2.468  17.081  0.2670  0.8745 -0.2069
14494TIP3    H164973   5.927   2.511  17.040  0.0159  0.4197 -1.1681
14494TIP3    H264974   5.794   2.446  17.008 -0.5607  0.7523  0.4751
14495TIP3   OH264975   5.169   6.340   5.558  0.1455  0.2730 -0.3347
14495TIP3    H164976   5.119   6.363   5.636 -1.4174 -1.3737 -0.7790
14495TIP3    H264977   5.203   6.252   5.576  1.8639  0.8631 -0.5493
14496TIP3   OH264978   6.794   2.219  15.232 -0.1186 -0.4067 -0.0016
14496TIP3    H164979   6.811   2.261  15.317 -1.2303 -1.9120  1.0175
14496TIP3    H264980   6.881   2.195  15.200  0.6525  2.9966 -0.9086
14497TIP3   OH264981   0.398   2.791   3.081 -0.8750 -0.0660  0.2030
14497TIP3    H164982   0.427   2.821   2.995  0.2125 -0.3598  0.4561
14497TIP3    H264983   0.303   2.806   3.081 -0.6042  1.8973 -0.2535
14498TIP3   OH264984   3.235   3.373  16.990  0.2928  0.7917 -0.4003
14498TIP3    H164985   3.286   3.384  16.910  0.2549  1.0433 -0.3896
14498TIP3    H264986   3.157   3.326  16.963  1.5090 -1.6049 -0.0545
14499TIP3   OH264987   4.062   3.731  11.086  0.0104 -0.3247  0.1681
14499TIP3    H164988   3.974   3.698  11.072 -0.1766  0.0157  0.5378
14499TIP3    H264989   4.113   3.653  11.110 -0.5700 -0.2669  1.6682
14500TIP3   OH264990   5.546   1.490   2.037 -0.2650  0.1060  0.1486
14500TIP3    H164991   5.613   1.427   2.010 -0.4739 -0.2064  0.3436
14500TIP3    H264992   5.592   1.574   2.042 -0.4140  0.3907 -2.1393
14501TIP3   OH264993   0.842   6.193  16.567  0.7314 -0.0799 -0.0600
14501TIP3    H164994   0.790   6.117  16.595  0.3780  0.7975  1.8327
14501TIP3    H264995   0.850   6.183  16.472 -1.1606 -1.3411 -0.1459
14502TIP3   OH264996   0.268   3.743   4.596  0.7936  0.4035 -0.3221
14502TIP3    H164997   0.224   3.826   4.579 -2.6447 -0.6409  2.2188
14502TIP3    H264998   0.266   3.697   4.512 -0.1080  1.6820 -1.0338
14503TIP3   OH264999   3.998   2.721  11.235 -0.0052  0.1335 -0.5051
14503TIP3    H165000   4.075   2.773  11.258  0.0236  0.5109 -1.4383
14503TIP3    H265001   4.035   2.636  11.207 -0.0966 -0.8368  2.0354
14504TIP3   OH265002   2.349   3.327   5.436 -0.7520  0.2954 -0.1747
14504TIP3    H165003   2.409   3.332   5.511 -0.9836 -0.6102  0.0869
14504TIP3    H265004   2.403   3.348   5.360 -0.4073  0.7579  0.1936
14505TIP3   OH265005   1.221   4.121  13.180  0.2834  0.1101 -0.5228
14505TIP3    H165006   1.220   4.066  13.258 -2.7086  1.5167  0.5404
14505TIP3    H265007   1.276   4.196  13.204  0.0793  0.1237 -0.0943
14506TIP3   OH265008   0.659   5.261   0.070 -0.5527  0.0517  0.1368
14506TIP3    H165009   0.652   5.305  -0.014 -0.2424  3.0966  1.5579
14506TIP3    H265010   0.588   5.299   0.123  0.2016 -0.6196  1.7205
14507TIP3   OH265011   3.714   1.193  11.029  0.4015  0.6585  0.3355
14507TIP3    H165012   3.671   1.215  10.946  0.3176  0.2106  0.2572
14507TIP3    H265013   3.690   1.264  11.088  1.7977  1.8499 -0.4753
14508TIP3   OH265014   1.732   6.336  14.895  0.3273  0.0612 -0.1288
14508TIP3    H165015   1.736   6.372  14.806 -0.2230  0.6119  0.0656
14508TIP3    H265016   1.823   6.335  14.925  0.6544 -1.0512 -1.0521
14509TIP3   OH265017   3.456   4.349  15.436 -0.1431 -0.0092  0.0072
14509TIP3    H165018   3.521   4.419  15.441 -0.5059  0.4028 -0.8224
14509TIP3    H265019   3.437   4.328  15.527 -2.3026  3.1443  0.4651
14510TIP3   OH265020   2.533   4.164   2.666 -0.7638  0.1730  0.3564
14510TIP3    H165021   2.477   4.232   2.628 -1.5122 -0.8014 -0.3385
14510TIP3    H265022   2.484   4.082   2.652  0.7097 -0.6775 -0.0336
14511TIP3   OH265023   5.204   5.745  11.342  0.4961  0.3741 -0.1186
14511TIP3    H165024   5.132   5.787  11.389 -0.3399 -1.7677  0.6151
14511TIP3    H265025   5.267   5.722  11.409 -0.9416 -3.1757  0.2162
14512TIP3   OH265026   4.145   1.529   1.010 -0.0703 -0.1084  0.2723
14512TIP3    H165027   4.119   1.618   1.032 -0.1212  0.6077 -2.4168
14512TIP3    H265028   4.084   1.473   1.059  0.6622  1.2205  2.8796
14513TIP3   OH265029   2.172   2.182  11.428 -0.8096 -0.3669  0.1142
14513TIP3    H165030   2.235   2.230  11.374 -0.9664 -1.4990 -1.1265
14513TIP3    H265031   2.088   2.222  11.406 -0.9328 -1.1290 -0.8736
14514TIP3   OH265032   5.841   2.418   1.848 -0.0011  0.4640  0.2954
14514TIP3    H165033   5.890   2.472   1.786 -0.0876  1.9187  1.4408
14514TIP3    H265034   5.834   2.472   1.927 -3.6611  0.4868  0.1279
14515TIP3   OH265035   5.650   2.320   3.234 -0.2910  0.7261  0.6971
14515TIP3    H165036   5.558   2.329   3.207 -0.3317  0.0065  0.5843
14515TIP3    H265037   5.693   2.397   3.197 -0.8970  1.2064  0.9733
14516TIP3   OH265038   1.179   5.058  15.072  0.4086  0.6703 -0.0213
14516TIP3    H165039   1.131   5.033  14.993 -3.6379 -1.2206  2.6173
14516TIP3    H265040   1.235   4.983  15.091 -0.7938 -0.1966  0.2805
14517TIP3   OH265041   0.227   4.205   5.131  0.4613 -0.4364 -0.1346
14517TIP3    H165042   0.283   4.132   5.105  0.0474 -1.3722  1.4466
14517TIP3    H265043   0.180   4.173   5.208 -0.8491  0.9891 -0.2869
14518TIP3   OH265044   1.375   1.533  16.240  0.9275  0.2508 -0.8366
14518TIP3    H165045   1.342   1.614  16.202  1.1143  0.1752 -1.1651
14518TIP3    H265046   1.301   1.498  16.289  0.1238 -0.4864 -2.4710
14519TIP3   OH265047   3.917   2.133   4.085 -0.1711 -0.0648 -0.6485
14519TIP3    H165048   4.006   2.140   4.119 -0.3871  0.2398 -0.1392
14519TIP3    H265049   3.861   2.134   4.162 -0.6603  0.5356 -0.9996
14520TIP3   OH265050   4.689   0.701   4.868 -0.3320  0.1600 -0.2627
14520TIP3    H165051   4.697   0.681   4.961 -0.5275  0.7732 -0.1069
14520TIP3    H265052   4.658   0.620   4.828 -2.7370  0.5865  0.5932
14521TIP3   OH265053   3.426   2.013   1.570  0.2324  0.1111 -0.2936
14521TIP3    H165054   3.433   2.037   1.477  2.0040 -0.2308 -0.2920
14521TIP3    H265055   3.511   2.036   1.607  0.8786 -3.0139  0.4453
14522TIP3   OH265056   5.378   5.920   3.569  0.5888 -0.1099  0.4434
14522TIP3    H165057   5.308   5.914   3.634  0.5270 -1.1649  0.2944
14522TIP3    H265058   5.422   5.836   3.572  0.5764 -0.1985 -0.8747
14523TIP3   OH265059   0.457   1.329  14.519  0.0918 -0.1084 -0.0054
14523TIP3    H165060   0.483   1.297  14.606  0.8840 -2.3903 -0.9845
14523TIP3    H265061   0.381   1.275  14.496 -1.2148  1.6800 -0.0707
14524TIP3   OH265062   6.127   4.762   1.296 -0.0539  0.2764 -0.5462
14524TIP3    H165063   6.175   4.691   1.338 -0.4671  1.4228  2.0417
14524TIP3    H265064   6.046   4.720   1.264 -0.2334 -0.4835  0.8134
14525TIP3   OH265065   2.390   0.951   0.505  0.1151 -0.1409 -0.0056
14525TIP3    H165066   2.417   0.871   0.550  0.6650 -0.8362 -1.4813
14525TIP3    H265067   2.467   1.007   0.507  0.2571 -0.3173 -0.3611
14526TIP3   OH265068   0.873   2.566  11.835  0.6631 -1.0411 -0.9505
14526TIP3    H165069   0.922   2.583  11.915 -0.1185  2.8364 -1.0875
14526TIP3    H265070   0.921   2.611  11.766  0.5690 -3.1152 -2.4788
14527TIP3   OH265071   1.169   6.830   4.248 -0.1787  0.2605  0.0742
14527TIP3    H165072   1.200   6.894   4.185 -0.1788  1.0994  0.9141
14527TIP3    H265073   1.151   6.880   4.327 -2.5465 -0.3491  0.0050
14528TIP3   OH265074   1.331   1.720   1.407 -0.2308  0.1524 -0.3929
14528TIP3    H165075   1.308   1.639   1.361 -2.1795 -0.6567  1.7979
14528TIP3    H265076   1.249   1.749   1.447  0.8038  2.2511  0.3623
14529TIP3   OH265077   5.295   1.371   2.022  0.0193  0.3468 -0.6471
14529TIP3    H165078   5.246   1.444   2.059 -0.6908 -0.4264 -0.0055
14529TIP3    H265079   5.387   1.394   2.037 -0.2228  0.3508  1.0999
14530TIP3   OH265080   6.815   2.247  11.265 -0.3247 -0.1945 -0.3691
14530TIP3    H165081   6.832   2.334  11.302  1.4170 -0.3000 -0.8325
14530TIP3    H265082   6.784   2.195  11.339  1.3843  0.0766  0.5899
14531TIP3   OH265083   0.334   0.730   0.170 -0.4370 -0.4355 -0.2445
14531TIP3    H165084   0.400   0.670   0.136  1.2563  1.3614 -0.2986
14531TIP3    H265085   0.296   0.684   0.245  0.7310 -1.6135 -0.3365
14532TIP3   OH265086   6.496   3.101  11.446  0.1438  0.2867  0.6649
14532TIP3    H165087   6.581   3.136  11.419  0.2128  0.2340  0.8099
14532TIP3    H265088   6.483   3.135  11.535 -0.4213  1.0720  0.2929
14533TIP3   OH265089   4.246   3.619  16.037  0.3526  0.1299  0.4904
14533TIP3    H165090   4.157   3.653  16.044  0.0995 -0.3458 -0.2907
14533TIP3    H265091   4.297   3.691  16.001  0.3281  0.4546  1.0847
14534TIP3   OH265092   1.106   1.819  11.580 -0.2117  0.1038 -0.0884
14534TIP3    H165093   1.037   1.758  11.554 -0.0506  0.2093 -0.7568
14534TIP3    H265094   1.147   1.777  11.656 -0.3508 -0.4353 -0.3070
14535TIP3   OH265095   4.000   0.570  13.436 -0.5866  0.3419 -0.6763
14535TIP3    H165096   3.932   0.631  13.465 -0.9277 -0.2157 -0.2959
14535TIP3    H265097   4.034   0.530  13.516 -3.8694 -3.7425 -0.9638
14536TIP3   OH265098   0.382   3.222  16.490 -0.3719 -0.4029  0.5875
14536TIP3    H165099   0.347   3.232  16.579  0.1556 -0.3274  0.7946
14536TIP3    H265100   0.401   3.311  16.462  1.5061 -0.5476  1.2581
14537TIP3   OH265101   5.854   6.476   0.117 -0.5143 -0.2190 -0.1231
14537TIP3    H165102   5.932   6.461   0.170  0.0427  0.0134 -0.8745
14537TIP3    H265103   5.886   6.481   0.027 -1.5741 -1.7502 -0.6284
14538TIP3   OH265104   2.921   4.981  14.778  0.3351  0.0939 -0.2817
14538TIP3    H165105   2.912   4.951  14.868  0.6160 -0.0852 -0.3107
14538TIP3    H265106   2.871   4.918  14.726 -0.4430  0.6198 -0.1776
14539TIP3   OH265107   5.851   5.222  13.103  0.2076  0.2944 -0.0073
14539TIP3    H165108   5.873   5.254  13.190 -0.3752 -0.4094  0.4123
14539TIP3    H265109   5.756   5.207  13.106  0.0206  1.1521 -1.0604
14540TIP3   OH265110   3.538   6.789  14.819 -0.4813  0.4283 -0.2513
14540TIP3    H165111   3.560   6.705  14.777  0.5499  0.4824  0.1734
14540TIP3    H265112   3.501   6.764  14.904  2.2325  0.4246  1.0127
14541TIP3   OH265113   1.343   6.015  10.829 -0.0154  0.1086 -0.4981
14541TIP3    H165114   1.260   6.028  10.876 -0.2550 -1.0281 -0.5943
14541TIP3    H265115   1.367   5.924  10.845  2.9677  1.1954  2.3172
14542TIP3   OH265116   6.771   6.552  13.718 -0.0098 -0.1878 -0.5897
14542TIP3    H165117   6.842   6.562  13.782 -0.8805 -1.0237  0.5635
14542TIP3    H265118   6.815   6.528  13.637  1.0618 -0.1110 -0.0491
14543TIP3   OH265119   2.728   6.623   5.870  0.2944  0.2668  0.7074
14543TIP3    H165120   2.708   6.569   5.946 -1.1759  0.5939  0.5710
14543TIP3    H265121   2.647   6.670   5.851  0.0281 -1.1082 -2.1275
14544TIP3   OH265122   1.864   0.588  16.945 -0.1635 -0.5455 -0.0741
14544TIP3    H165123   1.896   0.677  16.961  1.3181 -0.7826 -1.4940
14544TIP3    H265124   1.790   0.600  16.886  0.3788 -0.2582 -0.7189
14545TIP3   OH265125   1.204   5.284   0.161 -0.0907  0.7626 -0.3549
14545TIP3    H165126   1.239   5.275   0.250 -0.5913 -0.0643 -0.2214
14545TIP3    H265127   1.278   5.260   0.104 -0.2702 -0.5037 -0.0926
14546TIP3   OH265128   3.389   5.520  10.573 -0.6374 -0.8984  0.5441
14546TIP3    H165129   3.329   5.453  10.537 -0.6525 -0.5713 -0.0505
14546TIP3    H265130   3.406   5.490  10.662 -0.2477 -1.9750  0.1322
14547TIP3   OH265131   1.756   3.745   4.141  0.6950 -0.0321 -0.5070
14547TIP3    H165132   1.845   3.715   4.160  0.4739 -0.3469  0.0714
14547TIP3    H265133   1.706   3.664   4.125  0.4381  0.1220 -0.4937
14548TIP3   OH265134   2.676   6.392  13.928  0.2736  0.0950  0.0470
14548TIP3    H165135   2.635   6.320  13.880  1.5121 -0.7105  0.1555
14548TIP3    H265136   2.617   6.466  13.916 -2.1367 -1.4201  1.5922
14549TIP3   OH265137   2.627   2.680  13.145 -0.5886 -0.5147 -0.0682
14549TIP3    H165138   2.681   2.602  13.130  0.3010 -0.1486  1.0336
14549TIP3    H265139   2.562   2.652  13.209 -0.2529 -0.3682  0.3474
14550TIP3   OH265140   4.281   0.045  16.394 -0.0455 -0.1691  0.2703
14550TIP3    H165141   4.262  -0.046  16.415  0.8460 -0.0721  1.6553
14550TIP3    H265142   4.373   0.045  16.366 -0.1395  0.2525 -0.0558
14551TIP3   OH265143   2.864   1.948   0.096 -0.0446  0.1304  0.0786
14551TIP3    H165144   2.858   1.853   0.109 -1.0478  0.1562 -0.0928
14551TIP3    H265145   2.924   1.978   0.165 -1.0433 -0.4295  1.2401
14552TIP3   OH265146   3.548   0.739  15.410  0.4689  0.2293  0.1936
14552TIP3    H165147   3.569   0.786  15.329  0.8215 -1.4403 -0.7270
14552TIP3    H265148   3.633   0.705  15.440 -0.1240 -2.2517 -0.7602
14553TIP3   OH265149   4.269   4.845   0.648  0.2437 -0.1465  0.3943
14553TIP3    H165150   4.248   4.871   0.559  1.0416 -0.5849  0.0645
14553TIP3    H265151   4.184   4.839   0.693 -0.0899  1.0225 -0.0569
14554TIP3   OH265152   6.290   0.689  13.484 -0.2248  0.2423  0.3679
14554TIP3    H165153   6.235   0.712  13.409 -0.5154  0.2664  0.5868
14554TIP3    H265154   6.230   0.646  13.545 -0.0752  0.6041  0.7701
14555TIP3   OH265155   6.408   6.467   5.904 -0.3509  0.3119  0.1932
14555TIP3    H165156   6.319   6.455   5.938  0.4581 -0.9120  2.0659
14555TIP3    H265157   6.439   6.378   5.888 -0.2704  0.7829 -2.8916
14556TIP3   OH265158   1.038   1.399   0.677 -0.4175  0.4016  0.0689
14556TIP3    H165159   1.104   1.466   0.694 -1.6998  1.6536  0.3326
14556TIP3    H265160   1.025   1.401   0.582 -1.2952  1.3842  0.1983
14557TIP3   OH265161   1.893   6.324  15.686 -0.2819  0.4741  0.9294
14557TIP3    H165162   1.805   6.334  15.721 -0.5644 -0.4685  0.5084
14557TIP3    H265163   1.914   6.232  15.697  0.4540  0.5836  0.5608
14558TIP3   OH265164   5.275   4.297   3.975 -0.2295  0.4382  0.1871
14558TIP3    H165165   5.303   4.246   3.899 -1.9458 -0.7593  0.2892
14558TIP3    H265166   5.330   4.266   4.047  0.6136  0.7381 -0.3181
14559TIP3   OH265167   3.296   2.558  12.042 -0.1684  0.1345  0.1476
14559TIP3    H165168   3.297   2.652  12.024 -2.1301  0.2660  0.4771
14559TIP3    H265169   3.203   2.534  12.037  0.0683 -1.3950  2.0153
14560TIP3   OH265170   1.778   1.384  12.248  0.6659 -0.3515 -0.6645
14560TIP3    H165171   1.816   1.331  12.318  0.7137 -0.2259 -0.5953
14560TIP3    H265172   1.684   1.377  12.262  0.6857  0.6385  0.1415
14561TIP3   OH265173   1.283   0.363   4.407 -0.4230 -0.2122  0.3883
14561TIP3    H165174   1.282   0.426   4.479 -1.5658 -0.5791  0.7099
14561TIP3    H265175   1.280   0.418   4.328  0.2288  0.1723  0.6250
14562TIP3   OH265176   4.216   3.972   2.092  0.0991  0.4934  0.2186
14562TIP3    H165177   4.144   4.023   2.055 -0.9406 -0.0416  1.4050
14562TIP3    H265178   4.293   3.997   2.040 -0.9946  0.8217 -1.3291
14563TIP3   OH265179   3.946   0.262  15.825 -0.0982  1.1265 -0.9028
14563TIP3    H165180   3.967   0.171  15.805 -1.4151  0.6525 -0.2432
14563TIP3    H265181   3.989   0.278  15.909 -2.7718 -0.0808  0.8296
14564TIP3   OH265182   1.252   6.288  10.503 -0.1703  0.4610  0.6545
14564TIP3    H165183   1.245   6.240  10.421 -1.6175  0.3452  0.8255
14564TIP3    H265184   1.296   6.370  10.478 -1.9205  1.0981 -0.5663
14565TIP3   OH265185   2.862   1.670   2.086  0.6048 -0.2532 -0.2363
14565TIP3    H165186   2.893   1.584   2.115 -1.3435  0.1031  3.4790
14565TIP3    H265187   2.772   1.656   2.058  0.0703  0.6189  0.9646
14566TIP3   OH265188   1.847   2.216  12.794  0.7189 -0.6268  0.5526
14566TIP3    H165189   1.765   2.263  12.776  0.5624 -0.4255  1.7150
14566TIP3    H265190   1.859   2.160  12.718 -0.7010 -0.9197  0.5108
14567TIP3   OH265191   5.143   3.609   3.938 -0.1408  0.0359 -0.2819
14567TIP3    H165192   5.155   3.517   3.960 -0.5862  0.5410  2.4869
14567TIP3    H265193   5.049   3.624   3.949  0.1466  1.1447  0.8691
14568TIP3   OH265194   1.933   6.602   1.375 -0.5566  0.2706  0.0344
14568TIP3    H165195   1.909   6.666   1.307 -0.3826  1.5258  1.1214
14568TIP3    H265196   2.012   6.559   1.340 -1.7954 -0.8027 -1.5911
14569TIP3   OH265197   4.218   1.457  11.257  0.4279 -0.6264 -0.0200
14569TIP3    H165198   4.227   1.532  11.316  0.2353 -0.1999 -0.5235
14569TIP3    H265199   4.141   1.477  11.204  0.8437 -0.8056 -0.7063
14570TIP3   OH265200   4.484   1.643  10.858 -0.1413 -0.2787  0.2803
14570TIP3    H165201   4.521   1.587  10.790  0.5796 -0.4912  0.8322
14570TIP3    H265202   4.473   1.584  10.933 -1.1605 -0.1061  0.2753
14571TIP3   OH265203   1.264   0.031  14.626  0.0971 -0.2839 -0.2957
14571TIP3    H165204   1.245  -0.045  14.571  0.4533 -0.0888 -0.6998
14571TIP3    H265205   1.277  -0.005  14.713  1.1821 -0.8092 -0.6551
14572TIP3   OH265206   6.421   0.762  11.731 -0.1275 -0.2055  0.3098
14572TIP3    H165207   6.445   0.681  11.686 -1.1675 -0.0998 -0.4735
14572TIP3    H265208   6.343   0.792  11.685 -0.5160  0.5539  1.4326
14573TIP3   OH265209   3.811   2.868  12.191  0.1338 -0.0587 -0.3378
14573TIP3    H165210   3.740   2.807  12.172  0.1239 -0.4072  0.7750
14573TIP3    H265211   3.856   2.879  12.107 -0.4276 -0.8541 -0.7567
14574TIP3   OH265212   3.558   3.384  12.216 -0.6633  0.0926 -0.0554
14574TIP3    H165213   3.502   3.453  12.253 -1.6242 -1.2026  1.0011
14574TIP3    H265214   3.627   3.372  12.281  0.3853  1.0488 -0.9367
14575TIP3   OH265215   6.832   1.877  17.040  0.7967 -0.2444  0.0159
14575TIP3    H165216   6.867   1.798  16.999 -1.3871 -2.5878  2.3474
14575TIP3    H265217   6.903   1.907  17.097  2.1611  0.3873 -1.9254
14576TIP3   OH265218   1.875   5.946   0.323  0.0546 -0.0230  0.1791
14576TIP3    H165219   1.787   5.936   0.285 -0.1816 -1.5298  1.0196
14576TIP3    H265220   1.903   5.856   0.341  1.9103  0.4105 -0.3294
14577TIP3   OH265221   3.153   3.786   0.992  0.4090  0.1858  0.1800
14577TIP3    H165222   3.161   3.826   1.078  0.9620  0.5956 -0.0600
14577TIP3    H265223   3.168   3.858   0.930 -0.0635 -0.0865 -0.2591
14578TIP3   OH265224   0.238   5.495  13.765 -0.2644 -0.0888  0.0427
14578TIP3    H165225   0.243   5.432  13.836 -0.0299 -0.3961 -0.2432
14578TIP3    H265226   0.324   5.537  13.764 -0.5100  0.4283  0.4066
14579TIP3   OH265227   1.198   0.842   5.733 -0.0963 -0.5105  0.4350
14579TIP3    H165228   1.241   0.818   5.815 -0.0591 -0.8667  0.3111
14579TIP3    H265229   1.105   0.849   5.756  0.1112  1.2142  0.9263
14580TIP3   OH265230   2.200   0.424   6.357  0.0969  0.3495 -0.1894
14580TIP3    H165231   2.137   0.355   6.338 -0.1437  0.7561 -0.9239
14580TIP3    H265232   2.157   0.504   6.326 -0.6121  1.1923  2.6913
14581TIP3   OH265233   3.992   0.204  12.392  0.4649 -0.1663  0.0531
14581TIP3    H165234   3.940   0.124  12.380  0.1788  0.0837 -0.4030
14581TIP3    H265235   4.034   0.193  12.477  2.5224 -2.0162 -1.1022
14582TIP3   OH265236   5.738   3.898  14.475 -0.2855  0.0967 -0.1572
14582TIP3    H165237   5.741   3.987  14.441  0.8213  1.2629  2.6892
14582TIP3    H265238   5.800   3.850  14.421  0.3123  1.4502 -0.7216
14583TIP3   OH265239   3.572   6.371  15.846  0.1076  0.0454  0.1734
14583TIP3    H165240   3.512   6.297  15.859 -0.5239  0.7007  1.1508
14583TIP3    H265241   3.573   6.384  15.751 -2.2462  0.7517  0.1908
14584TIP3   OH265242   0.815   3.340   4.408  0.1378  0.6497 -0.2406
14584TIP3    H165243   0.842   3.413   4.462 -1.8612  1.0510  0.2921
14584TIP3    H265244   0.813   3.265   4.467 -1.4021  0.9562  0.1498
14585TIP3   OH265245   5.533   4.204   2.928  0.1229 -0.1704 -0.0167
14585TIP3    H165246   5.609   4.176   2.877  0.1190  1.6228 -1.0926
14585TIP3    H265247   5.547   4.167   3.015  0.2390 -3.1585 -1.2054
14586TIP3   OH265248   5.875   5.744   2.395 -0.0938  0.5948 -0.3921
14586TIP3    H165249   5.807   5.703   2.450  0.4393  0.4741  0.1866
14586TIP3    H265250   5.892   5.828   2.437 -0.0442  0.7225 -0.6668
14587TIP3   OH265251   2.208   2.673   1.270  0.2281 -0.5930  0.6924
14587TIP3    H165252   2.171   2.663   1.358  0.5255  0.9973  1.0233
14587TIP3    H265253   2.149   2.623   1.213 -0.4605 -0.9242  1.6770
14588TIP3   OH265254   1.976   3.852   3.766  0.1192  0.1727 -0.3141
14588TIP3    H165255   1.944   3.763   3.778 -1.7395  0.7690 -0.4317
14588TIP3    H265256   1.992   3.885   3.854  0.7554 -0.2447 -0.2694
14589TIP3   OH265257   1.742   2.332  16.551  0.2586  0.9659  0.0336
14589TIP3    H165258   1.678   2.275  16.594  0.4014  0.6168 -0.2092
14589TIP3    H265259   1.697   2.416  16.542  0.2798  1.0967  1.0080
14590TIP3   OH265260   3.965   0.105   0.086  0.6391  0.0061 -0.1933
14590TIP3    H165261   3.957   0.105   0.182 -0.7934 -1.9689 -0.2504
14590TIP3    H265262   3.930   0.190   0.059 -1.1632 -0.3408  0.9118
14591TIP3   OH265263   3.170   3.715   5.816 -0.2409  0.0204  0.0122
14591TIP3    H165264   3.123   3.780   5.869 -1.9444 -1.7641  0.8046
14591TIP3    H265265   3.263   3.730   5.836 -0.7313  0.7106  1.9586
14592TIP3   OH265266   5.778   1.992   4.837  0.4357 -1.0910 -0.9165
14592TIP3    H165267   5.735   1.913   4.870 -1.2085 -0.5384 -1.6144
14592TIP3    H265268   5.829   1.962   4.762  0.1019 -1.5355 -0.9718
14593TIP3   OH265269   2.757   1.613  13.510 -0.5730 -0.3240 -0.0256
14593TIP3    H165270   2.702   1.680  13.551 -2.4862 -0.9350 -1.4355
14593TIP3    H265271   2.741   1.534  13.560 -1.6976 -0.6986 -0.9241
14594TIP3   OH265272   1.948   4.559  16.202 -0.2548  0.4832 -0.6953
14594TIP3    H165273   1.956   4.619  16.277 -1.0057 -0.9291  0.5693
14594TIP3    H265274   2.030   4.509  16.203 -0.5320  0.0304 -0.4158
14595TIP3   OH265275   5.609   1.443  16.546  0.0171 -0.4876  0.3095
14595TIP3    H165276   5.649   1.368  16.502  0.7298 -0.2850  0.5981
14595TIP3    H265277   5.672   1.468  16.614 -1.0197 -0.7501  1.4104
14596TIP3   OH265278   2.948   0.293   5.466  0.3412  0.2163  0.2906
14596TIP3    H165279   2.928   0.336   5.549 -0.2256 -0.6358  0.6075
14596TIP3    H265280   2.892   0.215   5.465  1.2444 -0.4448 -0.3280
14597TIP3   OH265281   3.871   6.358   2.939  0.1421 -0.5507  0.0844
14597TIP3    H165282   3.938   6.304   2.982  0.2575 -0.9770 -0.6144
14597TIP3    H265283   3.921   6.414   2.880  0.0531  0.5724  1.0407
14598TIP3   OH265284   6.818   0.994  14.627 -0.1597 -0.5434  0.0003
14598TIP3    H165285   6.788   1.083  14.612 -0.2903 -0.7237 -0.8728
14598TIP3    H265286   6.861   0.996  14.712 -0.5047  0.2631  0.1557
14599TIP3   OH265287   2.323   1.094   1.107 -0.2413  0.3336 -0.3113
14599TIP3    H165288   2.330   1.008   1.065 -0.5468  0.0856  0.1344
14599TIP3    H265289   2.348   1.078   1.198 -1.0079  0.5666 -0.0554
14600TIP3   OH265290   0.553   4.649   4.721  0.3037 -0.3768  0.2942
14600TIP3    H165291   0.581   4.631   4.811  1.0230  2.2060  0.6572
14600TIP3    H265292   0.457   4.648   4.726  0.3340 -0.3959  1.0549
14601TIP3   OH265293   1.939   1.130  17.000 -0.9266 -0.2072  0.1017
14601TIP3    H165294   1.992   1.195  16.954 -2.5325 -0.1721 -1.8325
14601TIP3    H265295   1.919   1.171  17.085  0.1081  0.7602 -0.0991
14602TIP3   OH265296   5.586   3.062  10.699 -0.5323  0.3020  0.1950
14602TIP3    H165297   5.610   2.989  10.756 -2.8024  0.2714  1.2345
14602TIP3    H265298   5.619   3.140  10.744  0.5400  0.0527 -0.1384
14603TIP3   OH265299   4.518   6.235   5.386  0.7474  0.1972  0.0811
14603TIP3    H165300   4.499   6.212   5.477 -0.4208  1.6332  0.2318
14603TIP3    H265301   4.472   6.318   5.372  2.3743  0.9248 -1.2941
14604TIP3   OH265302   2.967   5.029  13.521  0.8884 -0.0346  0.4231
14604TIP3    H165303   2.906   4.993  13.586  1.1070  2.5520  2.2191
14604TIP3    H265304   2.911   5.063  13.451  0.4497 -0.2460  0.6663
14605TIP3   OH265305   6.777   2.269  13.594  0.0782  0.1220  0.4201
14605TIP3    H165306   6.779   2.342  13.657  0.9195  0.3941  0.1025
14605TIP3    H265307   6.813   2.307  13.514  0.6780 -0.6776  0.3031
14606TIP3   OH265308   6.086   3.107  11.892  0.6039  0.9590  0.0097
14606TIP3    H165309   6.019   3.148  11.948 -1.4083 -0.8518 -0.9635
14606TIP3    H265310   6.079   3.154  11.809 -0.7921 -0.4168 -0.6843
14607TIP3   OH265311   1.343   2.246  11.039 -1.3216  0.2389 -0.2714
14607TIP3    H165312   1.373   2.290  10.959  1.2168 -0.5475  0.1318
14607TIP3    H265313   1.369   2.155  11.026 -2.4510 -0.2435  0.7506
14608TIP3   OH265314   0.719   2.640  14.465  0.4550 -0.1106 -0.2701
14608TIP3    H165315   0.737   2.553  14.430 -0.1960 -0.1452 -0.5294
14608TIP3    H265316   0.651   2.676  14.408  1.0188  0.7474 -0.4355
14609TIP3   OH265317   2.894   0.903  16.588  0.0715 -0.3624  0.4740
14609TIP3    H165318   2.845   0.966  16.535  0.1712 -0.0878  0.7084
14609TIP3    H265319   2.986   0.920  16.568  0.1075 -0.2951  0.6926
14610TIP3   OH265320   0.169   0.162  14.117 -0.3629  0.3888 -0.0673
14610TIP3    H165321   0.194   0.150  14.209 -1.4190 -1.3920  0.0392
14610TIP3    H265322   0.237   0.118  14.067 -1.2473 -1.1767  0.0422
14611TIP3   OH265323   5.038   5.035   0.079  0.2934 -0.3142  0.4017
14611TIP3    H165324   5.126   5.057   0.110  1.0389 -0.6316 -1.3497
14611TIP3    H265325   5.014   5.108   0.021 -0.6784 -0.1552  0.9748
14612TIP3   OH265326   0.166   0.945  12.732 -0.3545 -0.0247 -0.4165
14612TIP3    H165327   0.251   0.918  12.766  0.0640 -1.2155 -2.2713
14612TIP3    H265328   0.186   0.997  12.655 -1.2907 -1.0380 -1.3801
14613TIP3   OH265329   2.637   2.705   5.347  0.4236 -0.3704 -0.5467
14613TIP3    H165330   2.549   2.741   5.360 -0.1732 -1.1847 -2.0440
14613TIP3    H265331   2.675   2.701   5.435 -0.3685  1.6310 -0.0560
14614TIP3   OH265332   5.052   3.814   3.380 -0.1483 -0.2146  0.2253
14614TIP3    H165333   5.098   3.898   3.383 -0.6045  0.0461  0.0666
14614TIP3    H265334   5.087   3.770   3.302 -0.5474  0.2122 -0.2067
14615TIP3   OH265335   1.943   6.394   5.943  0.8408  0.5520  0.1190
14615TIP3    H165336   1.896   6.311   5.954  1.1330  0.4843  0.8507
14615TIP3    H265337   2.034   6.369   5.933  0.9943  0.8097  0.8350
14616TIP3   OH265338   1.718   2.090   0.179  0.0743  0.4731  0.1815
14616TIP3    H165339   1.673   2.172   0.159 -0.3216 -0.2336 -2.1511
14616TIP3    H265340   1.648   2.025   0.185  0.4440  0.1592  1.2695
14617TIP3   OH265341   1.963   2.309   0.817  0.8763 -0.5223  0.0169
14617TIP3    H165342   1.891   2.246   0.811  0.9442 -0.5755 -0.2730
14617TIP3    H265343   1.999   2.297   0.904  1.3374 -1.3815 -0.2841
14618TIP3   OH265344   3.981   3.254   1.143  0.3463 -0.5812 -0.0755
14618TIP3    H165345   4.046   3.189   1.173 -0.2004 -0.0177  2.5225
14618TIP3    H265346   3.898   3.207   1.145  0.3255 -0.6303 -1.1863
14619TIP3   OH265347   2.552   1.810   2.797 -0.1040  0.0653  0.2242
14619TIP3    H165348   2.644   1.801   2.821  0.3793 -0.2346 -1.5876
14619TIP3    H265349   2.541   1.904   2.778 -0.3182  0.1905  0.9401
14620TIP3   OH265350   0.562   0.461  10.268 -0.0584  0.9979 -0.9379
14620TIP3    H165351   0.620   0.517  10.320  0.4845 -0.6377  0.3194
14620TIP3    H265352   0.600   0.373  10.277 -1.8910  0.1292 -1.3364
14621TIP3   OH265353   0.417   2.573  10.034  0.1646  0.1281  0.1714
14621TIP3    H165354   0.414   2.508  10.103  1.2866 -0.0667  0.0628
14621TIP3    H265355   0.449   2.653  10.077  0.8327  0.0159 -0.1008
14622TIP3   OH265356   3.285   2.238  14.344 -0.1515 -0.6082  0.0155
14622TIP3    H165357   3.214   2.301  14.332  1.4846  1.1420 -0.9963
14622TIP3    H265358   3.253   2.158  14.302 -1.7115 -0.0534  0.0582
14623TIP3   OH265359   2.354   4.921  12.831 -0.3602  0.0589 -0.9617
14623TIP3    H165360   2.446   4.896  12.826 -0.2018  0.1252  0.9523
14623TIP3    H265361   2.349   5.005  12.786  0.3167 -0.3851 -1.8993
14624TIP3   OH265362   0.256   5.688   0.022 -0.2828  0.2973 -0.2469
14624TIP3    H165363   0.197   5.748  -0.025  0.7297  1.0862 -0.5329
14624TIP3    H265364   0.343   5.711  -0.008  0.4457  0.9521  2.1273
14625TIP3   OH265365   5.156   3.093   5.189 -0.0772 -0.5220  0.0056
14625TIP3    H165366   5.184   3.060   5.274  0.8729 -0.7577 -0.3780
14625TIP3    H265367   5.089   3.031   5.160  0.4580 -1.1361  0.0557
14626TIP3   OH265368   1.570   2.959   1.609 -0.4810  0.3146 -0.0617
14626TIP3    H165369   1.539   3.047   1.590 -0.5792  0.1072 -0.8921
14626TIP3    H265370   1.666   2.967   1.611 -0.4748  0.3609 -0.5364
14627TIP3   OH265371   0.434   2.316  11.705 -0.0447 -0.0496 -0.2488
14627TIP3    H165372   0.510   2.312  11.764  0.4342 -0.0007 -0.8576
14627TIP3    H265373   0.440   2.402  11.664  0.0558 -0.3741 -0.9307
14628TIP3   OH265374   1.167   6.264   1.821  0.4687 -0.1214 -0.0863
14628TIP3    H165375   1.218   6.263   1.741 -0.1602  0.6951 -0.5107
14628TIP3    H265376   1.076   6.256   1.792  0.3074 -0.9429  0.6149
14629TIP3   OH265377   0.547   4.961  10.734 -0.8183 -0.2655 -0.5628
14629TIP3    H165378   0.515   5.032  10.678 -0.4617  0.4060  0.0619
14629TIP3    H265379   0.489   4.964  10.811 -0.2868 -0.1125 -0.1655
14630TIP3   OH265380   6.784   4.076   1.285  0.3968  0.2401 -0.0928
14630TIP3    H165381   6.832   4.129   1.221  2.7531 -3.5003 -1.7448
14630TIP3    H265382   6.851   4.048   1.347 -0.5603 -1.3124  0.2864
14631TIP3   OH265383   6.706   1.280  14.631 -0.2666  0.3637  0.1819
14631TIP3    H165384   6.720   1.276  14.536 -0.3778  0.3179  0.1691
14631TIP3    H265385   6.734   1.369  14.655  0.0756  0.2642  0.1571
14632TIP3   OH265386   1.659   2.734  13.068 -0.0747 -0.7690  0.3039
14632TIP3    H165387   1.570   2.757  13.039 -0.0626 -1.2088 -0.0999
14632TIP3    H265388   1.655   2.640  13.082  0.2121 -0.7203  0.7257
14633TIP3   OH265389   5.073   6.233   3.851  0.1164  0.0821 -0.1058
14633TIP3    H165390   4.988   6.227   3.807  0.4250  2.0108 -1.0828
14633TIP3    H265391   5.054   6.212   3.942 -0.5793 -3.8297 -1.0007
14634TIP3   OH265392   1.224   2.650   6.040 -0.2755  0.5999 -0.1207
14634TIP3    H165393   1.294   2.654   6.105  0.5854  0.7239 -1.0479
14634TIP3    H265394   1.145   2.631   6.092  0.5206 -0.1321  0.8692
14635TIP3   OH265395   3.625   0.939   1.069  0.4481  0.2126 -0.5570
14635TIP3    H165396   3.657   0.985   1.146 -1.3824  0.5516  0.0481
14635TIP3    H265397   3.596   1.008   1.009 -0.9215 -0.0871 -0.2703
14636TIP3   OH265398   3.316   5.063   2.674 -0.1182 -0.0053  0.1278
14636TIP3    H165399   3.291   5.115   2.598 -0.7198  0.7913  0.8486
14636TIP3    H265400   3.394   5.108   2.709  0.3229 -0.5285 -0.1760
14637TIP3   OH265401   5.974   5.609  16.984 -0.2546 -0.1791  0.5271
14637TIP3    H165402   5.934   5.680  17.036 -1.5304 -2.3198  2.6741
14637TIP3    H265403   5.900   5.556  16.956  0.7734 -1.5381  0.3104
14638TIP3   OH265404   2.268   6.295  12.533 -0.0640  0.2724  0.3395
14638TIP3    H165405   2.221   6.361  12.481 -0.3519 -0.3120 -0.1569
14638TIP3    H265406   2.202   6.228  12.551 -0.0953  0.6907  1.8775
14639TIP3   OH265407   0.237   1.943  16.896  0.3350 -0.4625  0.0761
14639TIP3    H165408   0.212   1.850  16.894 -0.0953 -0.3236 -1.1829
14639TIP3    H265409   0.293   1.955  16.819  1.5212  0.0313  0.9674
14640TIP3   OH265410   0.418   2.986  12.198 -0.1442 -0.1836  0.1110
14640TIP3    H165411   0.337   3.033  12.178 -0.7667 -1.0759  0.4608
14640TIP3    H265412   0.487   3.039  12.158 -0.9277  0.4282 -0.4701
14641TIP3   OH265413   4.364   0.640   5.322 -0.2975 -0.4604 -0.2714
14641TIP3    H165414   4.388   0.678   5.238  0.6494  2.3339  1.1373
14641TIP3    H265415   4.419   0.562   5.329  1.6252  0.7524 -1.1069
14642TIP3   OH265416   3.772   4.562  14.100 -0.7146 -0.2882  0.1525
14642TIP3    H165417   3.809   4.600  14.020  1.7240 -1.0707  0.8395
14642TIP3    H265418   3.725   4.484  14.069  0.7250 -0.9336 -0.4950
14643TIP3   OH265419   0.960   3.913  12.076 -0.6220 -0.1388  0.1591
14643TIP3    H165420   0.922   3.890  12.161  0.5895 -0.6646  0.5869
14643TIP3    H265421   0.982   4.005  12.083  0.7889 -0.5114  0.9674
14644TIP3   OH265422   2.173   6.634  14.672  0.1800  0.0409 -0.3120
14644TIP3    H165423   2.166   6.542  14.648  0.3195 -0.0714  0.0724
14644TIP3    H265424   2.180   6.634  14.768  1.5764  0.3700 -0.3925
14645TIP3   OH265425   1.485   3.583   0.558  0.0449 -0.4127  0.7503
14645TIP3    H165426   1.573   3.553   0.539 -0.0482 -1.0699  1.3283
14645TIP3    H265427   1.487   3.677   0.540  0.0511 -0.8763 -2.1553
14646TIP3   OH265428   3.701   3.508   0.929 -0.3799 -0.1901 -0.3158
14646TIP3    H165429   3.631   3.452   0.894  0.7519 -0.8215 -1.6681
14646TIP3    H265430   3.781   3.462   0.906  0.5345 -1.1343  3.8923
14647TIP3   OH265431   4.302   6.353  11.242  0.2774  0.6910 -0.0363
14647TIP3    H165432   4.268   6.359  11.331  0.6854 -0.5207  0.2150
14647TIP3    H265433   4.249   6.415  11.192 -1.2442 -0.0248  0.6462
14648TIP3   OH265434   0.363   6.323  11.638  0.1058  0.0876 -0.3464
14648TIP3    H165435   0.393   6.357  11.723  1.8300  0.0058 -0.8810
14648TIP3    H265436   0.284   6.274  11.658  0.2074  0.4871  1.1448
14649TIP3   OH265437   6.407   3.207  14.770 -0.3175 -0.8028 -0.6139
14649TIP3    H165438   6.386   3.222  14.862  1.9895  0.7976 -0.2856
14649TIP3    H265439   6.405   3.111  14.761 -1.0226 -0.9700  0.9581
14650TIP3   OH265440   1.289   2.241  10.510  0.4674 -0.1979 -0.1213
14650TIP3    H165441   1.288   2.182  10.435 -1.2332 -0.0474 -0.2389
14650TIP3    H265442   1.210   2.220  10.560  0.7168  0.8160  0.7567
14651TIP3   OH265443   4.729   2.100   3.216  0.1956  0.5782  0.3521
14651TIP3    H165444   4.667   2.052   3.271 -1.6922  0.1188 -2.0097
14651TIP3    H265445   4.813   2.091   3.261 -1.0711 -0.4372  2.6845
14652TIP3   OH265446   0.003   3.799   4.715  0.2030  0.1266  0.8383
14652TIP3    H165447   0.018   3.892   4.695 -1.0788 -0.0119 -1.0351
14652TIP3    H265448   0.075   3.753   4.672  0.8304  0.2177  1.7547
14653TIP3   OH265449   2.021   4.539  15.584 -0.1559  0.2171  0.1908
14653TIP3    H165450   2.117   4.531  15.584  0.0284  1.7379 -1.7574
14653TIP3    H265451   2.005   4.633  15.594 -1.4636 -0.0415  0.7020
14654TIP3   OH265452   6.691   4.737  13.116 -0.0197  0.7802 -0.2114
14654TIP3    H165453   6.662   4.793  13.188  0.5122 -0.2130  0.8171
14654TIP3    H265454   6.759   4.788  13.071  0.1352  1.1379  0.4225
14655TIP3   OH265455   4.552   3.149  10.474 -0.4077 -0.0833 -0.3497
14655TIP3    H165456   4.520   3.074  10.524  1.2158 -0.1871  0.5764
14655TIP3    H265457   4.626   3.182  10.524  0.5780  0.5058 -2.1126
14656TIP3   OH265458   5.600   4.329  16.892 -0.2867 -0.5502  0.0956
14656TIP3    H165459   5.671   4.266  16.877 -2.4409 -2.6015 -2.7119
14656TIP3    H265460   5.580   4.363  16.805  0.2667  3.7120  1.3969
14657TIP3   OH265461   6.762   3.539   1.397 -0.0219  0.5872 -0.6245
14657TIP3    H165462   6.843   3.512   1.353  0.1514 -0.2094  0.1522
14657TIP3    H265463   6.781   3.627   1.430  0.7068  0.2197 -0.0375
14658TIP3   OH265464   2.581   4.649   0.278 -0.2501  0.2676 -0.4092
14658TIP3    H165465   2.658   4.593   0.266  0.0407  0.6654 -0.4218
14658TIP3    H265466   2.609   4.735   0.248 -0.9099  0.2723 -1.0288
14659TIP3   OH265467   0.285   5.441   3.468  0.0877  0.0846  0.0965
14659TIP3    H165468   0.268   5.519   3.520  0.8819  0.1019  0.3513
14659TIP3    H265469   0.244   5.370   3.518 -0.4885  0.3066 -0.0514
14660TIP3   OH265470   3.210   0.629  16.689 -0.1858  0.4369 -0.5307
14660TIP3    H165471   3.123   0.600  16.716  0.3862 -0.3920  0.5529
14660TIP3    H265472   3.236   0.568  16.620 -0.0368 -0.0109 -0.0853
14661TIP3   OH265473   4.140   6.813   3.256 -0.1566 -0.7681 -0.0822
14661TIP3    H165474   4.106   6.733   3.215 -0.8093  0.1566 -1.3953
14661TIP3    H265475   4.194   6.781   3.328  1.4632 -2.4989 -1.9451
14662TIP3   OH265476   2.873   6.430  16.584 -0.2892  0.2951  0.4546
14662TIP3    H165477   2.892   6.521  16.560  0.6397  0.0857  0.3318
14662TIP3    H265478   2.807   6.402  16.521  2.2338 -0.3053 -2.1735
14663TIP3   OH265479   3.084   2.368   1.183 -0.1042  0.0817 -0.2275
14663TIP3    H165480   3.104   2.420   1.105  0.4112 -2.6419 -2.0631
14663TIP3    H265481   2.990   2.376   1.194 -0.0535  1.2567 -0.5431
14664TIP3   OH265482   2.080   4.663   3.244  0.0931 -0.0462 -0.0327
14664TIP3    H165483   2.029   4.741   3.265  0.0927 -0.0044 -0.1895
14664TIP3    H265484   2.170   4.685   3.269  0.2144  0.2581 -0.7400
14665TIP3   OH265485   5.478   3.833  13.048  0.1568 -0.4114 -0.5735
14665TIP3    H165486   5.538   3.869  12.982 -0.7513  3.0794  0.3217
14665TIP3    H265487   5.527   3.839  13.130 -1.1047  2.1479  0.1106
14666TIP3   OH265488   3.790   0.872   1.860  0.0034 -0.0433  0.4832
14666TIP3    H165489   3.844   0.909   1.789 -0.7705  2.0585  0.9197
14666TIP3    H265490   3.726   0.817   1.815  0.6281 -0.1408 -0.3042
14667TIP3   OH265491   0.242   5.869   3.023  0.2089  0.3741 -0.0377
14667TIP3    H165492   0.306   5.879   2.953 -0.6243  0.7900 -0.7668
14667TIP3    H265493   0.227   5.959   3.054  1.6084  0.0654  1.6598
14668TIP3   OH265494   5.916   0.417  11.270  0.1032  0.0360  0.0703
14668TIP3    H165495   5.845   0.436  11.208 -2.2448 -0.7187  2.3417
14668TIP3    H265496   5.918   0.321  11.275  0.9114  0.0645  0.4671
14669TIP3   OH265497   6.274   3.441   3.454 -0.2558  0.3007 -0.3742
14669TIP3    H165498   6.314   3.445   3.542 -2.0361 -0.9109  0.5452
14669TIP3    H265499   6.304   3.357   3.419  2.5637  1.8542 -2.1050
14670TIP3   OH265500   0.490   4.639  13.891 -0.4777 -0.1505  0.1335
14670TIP3    H165501   0.434   4.587  13.950 -0.3989  1.2914  1.5378
14670TIP3    H265502   0.480   4.596  13.806 -0.4872 -2.4099  1.1872
14671TIP3   OH265503   4.182   2.201   0.539 -0.0805  0.1908 -0.5660
14671TIP3    H165504   4.248   2.166   0.597 -0.6865  0.4425  0.2942
14671TIP3    H265505   4.134   2.124   0.508 -0.8203  0.1570  0.5965
14672TIP3   OH265506   1.857   2.582  15.155 -0.1060 -0.5107 -0.4977
14672TIP3    H165507   1.942   2.619  15.134  0.0764 -0.7005 -0.1002
14672TIP3    H265508   1.850   2.590  15.250 -0.4976 -0.5674 -0.5189
14673TIP3   OH265509   2.449   4.708  14.041 -0.1561  0.0280  0.1369
14673TIP3    H165510   2.499   4.725  14.121  0.6624 -3.0755  0.4297
14673TIP3    H265511   2.515   4.701  13.972 -0.6446  0.4228 -0.3777
14674TIP3   OH265512   0.710   1.679  16.145  0.1660  0.1136  0.1866
14674TIP3    H165513   0.750   1.608  16.095 -0.0905  0.9752 -1.3077
14674TIP3    H265514   0.616   1.662  16.138  0.1538 -0.8830  2.1378
14675TIP3   OH265515   0.802   3.059   0.679 -0.0077  0.3988 -0.3502
14675TIP3    H165516   0.865   3.106   0.624  0.0526  1.1632  0.3529
14675TIP3    H265517   0.723   3.054   0.625  0.6526 -0.6220 -1.2631
14676TIP3   OH265518   0.072   3.810   3.762 -0.2887  0.0031  0.2820
14676TIP3    H165519   0.005   3.743   3.780 -0.6655  0.5718  1.0461
14676TIP3    H265520   0.154   3.762   3.762 -0.7704 -0.9606 -2.0458
14677TIP3   OH265521   2.792   3.877  14.389  0.0286 -0.0919  0.0294
14677TIP3    H165522   2.860   3.893  14.324  0.5356 -0.8367  0.3613
14677TIP3    H265523   2.756   3.964  14.408  0.3984  0.2246 -0.6702
14678TIP3   OH265524   0.469   3.411  13.278  0.5919 -0.2771 -0.6890
14678TIP3    H165525   0.504   3.386  13.193 -0.0277 -0.0582 -1.0199
14678TIP3    H265526   0.544   3.447  13.326  1.1113 -1.1389 -0.8401
14679TIP3   OH265527   3.261   1.539   3.324  0.2800 -0.0199  0.1654
14679TIP3    H165528   3.234   1.457   3.283 -0.1653 -0.1373  0.6737
14679TIP3    H265529   3.270   1.517   3.417  3.8325 -0.4274 -0.1464
14680TIP3   OH265530   0.788   0.907   2.708 -0.8333 -0.3838 -0.5747
14680TIP3    H165531   0.846   0.975   2.742 -1.4967  0.1136 -0.4227
14680TIP3    H265532   0.816   0.896   2.617  0.0886 -0.7975 -0.2580
14681TIP3   OH265533   4.475   4.238  14.141 -0.2869  0.2537 -0.2190
14681TIP3    H165534   4.413   4.213  14.072 -1.0218  1.7623 -0.1297
14681TIP3    H265535   4.510   4.154  14.172 -1.1593 -0.5454 -1.2904
14682TIP3   OH265536   2.548   0.042  12.830 -0.1032  0.0720 -0.1293
14682TIP3    H165537   2.591   0.050  12.915  0.2092  0.5637 -0.3319
14682TIP3    H265538   2.455   0.060  12.849 -0.1544 -0.5191  0.2209
14683TIP3   OH265539   2.903   4.202   1.357 -0.4013 -0.1077  0.8578
14683TIP3    H165540   2.895   4.167   1.268 -2.2845  2.8824 -0.3027
14683TIP3    H265541   2.988   4.247   1.357  0.1897 -1.1831  1.0476
14684TIP3   OH265542   5.854   3.981  10.919 -0.6765  0.6759  0.1850
14684TIP3    H165543   5.867   3.887  10.916  1.4856  0.9108 -0.0723
14684TIP3    H265544   5.793   4.000  10.848  1.5451 -0.2262 -2.1317
14685TIP3   OH265545   0.641   2.552   2.619 -1.1008 -0.1161  0.4366
14685TIP3    H165546   0.723   2.505   2.635 -0.3837  1.4419  1.5839
14685TIP3    H265547   0.668   2.642   2.603 -2.3348 -0.1806 -2.8951
14686TIP3   OH265548   5.707   4.774  13.003  0.3228  0.2205  0.0048
14686TIP3    H165549   5.775   4.827  13.045 -0.8354  1.2847  0.5820
14686TIP3    H265550   5.738   4.684  13.013  1.5018  0.6598  0.5055
14687TIP3   OH265551   5.017   5.406  14.446 -0.1569 -0.0808  0.4246
14687TIP3    H165552   5.101   5.374  14.412  0.4797  1.3498  0.5838
14687TIP3    H265553   5.017   5.381  14.538 -1.1944 -2.5802 -0.1714
14688TIP3   OH265554   3.046   3.943  12.460 -0.1717  0.0136 -0.5371
14688TIP3    H165555   3.066   3.893  12.381 -1.5786 -1.7908  0.1955
14688TIP3    H265556   3.093   3.897  12.529 -0.4706  0.4627 -0.0297
14689TIP3   OH265557   4.955   1.824   0.699  0.1449  0.1493 -0.2594
14689TIP3    H165558   4.911   1.880   0.635  0.5422  0.6093 -0.1430
14689TIP3    H265559   5.048   1.833   0.677  0.1744 -0.9895 -0.6521
14690TIP3   OH265560   1.294   2.790  16.361  0.0588 -0.3778  0.1643
14690TIP3    H165561   1.239   2.722  16.324 -0.5668 -0.6117  1.4841
14690TIP3    H265562   1.239   2.834  16.426  0.5704  1.1433 -0.3746
14691TIP3   OH265563   1.058   3.147   4.030  0.0282 -0.3309 -0.5436
14691TIP3    H165564   0.983   3.093   4.004 -1.9233  1.7200  0.4422
14691TIP3    H265565   1.021   3.211   4.091  2.2903  1.7395 -1.1906
14692TIP3   OH265566   4.124   4.201   4.040 -0.6613 -0.9414  0.5629
14692TIP3    H165567   4.151   4.288   4.070 -0.0785 -1.0668  0.4129
14692TIP3    H265568   4.202   4.147   4.051  0.4603 -0.4816 -3.4430
14693TIP3   OH265569   4.480   0.254   0.850  0.4620 -0.2091 -0.1707
14693TIP3    H165570   4.488   0.317   0.921  2.4425  0.1803 -0.6713
14693TIP3    H265571   4.485   0.307   0.770 -3.8790 -0.3612 -0.7789
14694TIP3   OH265572   5.224   3.361  12.744 -0.1872  1.1535 -0.0673
14694TIP3    H165573   5.250   3.380  12.654 -1.4872  1.3598 -0.4294
14694TIP3    H265574   5.176   3.278  12.738 -3.0627  2.6840 -0.1623
14695TIP3   OH265575   1.841   0.680  11.558  0.3515  0.0427 -0.0762
14695TIP3    H165576   1.765   0.733  11.580  0.9114  0.7227  0.2586
14695TIP3    H265577   1.807   0.612  11.499 -0.7888 -0.6031  1.2633
14696TIP3   OH265578   3.715   4.242  12.789 -0.0858 -0.0627 -0.2089
14696TIP3    H165579   3.764   4.173  12.743 -1.5202 -1.9200  0.8782
14696TIP3    H265580   3.636   4.254  12.736 -0.4920 -0.2841  0.3391
14697TIP3   OH265581   2.695   4.014  12.929 -0.1487  0.0693 -0.3028
14697TIP3    H165582   2.632   4.084  12.911  0.2850  0.6947  0.5465
14697TIP3    H265583   2.738   4.040  13.010  0.0533 -1.1704  0.0217
14698TIP3   OH265584   5.222   6.273  16.764 -0.6430 -0.0645  0.1531
14698TIP3    H165585   5.209   6.251  16.856  1.4583  1.7337  0.9827
14698TIP3    H265586   5.312   6.244  16.745 -0.4909  0.9786 -0.8429
14699TIP3   OH265587   5.745   5.139   0.729 -0.1073  0.4370 -0.3563
14699TIP3    H165588   5.776   5.072   0.666  1.9492 -0.0382  1.0468
14699TIP3    H265589   5.697   5.201   0.675  1.1113 -0.2278 -2.3576
14700TIP3   OH265590   4.418   0.699   1.527  0.0338 -0.1784 -0.3094
14700TIP3    H165591   4.450   0.714   1.616  0.4077 -0.3023 -0.4206
14700TIP3    H265592   4.469   0.625   1.496  0.9992  0.8151 -1.1683
14701TIP3   OH265593   0.003   3.563  14.131  0.2252  0.4567 -0.5787
14701TIP3    H165594   0.045   3.550  14.046 -1.0836 -1.8748 -0.9556
14701TIP3    H265595  -0.066   3.497  14.134  0.8427 -0.2227  2.7300
14702TIP3   OH265596   5.883   5.700  15.038 -0.3896  0.0685  0.0929
14702TIP3    H165597   5.924   5.638  14.976  0.1354  0.1092  0.3922
14702TIP3    H265598   5.805   5.655  15.069 -2.5763  1.2932 -3.0570
14703TIP3   OH265599   5.396   4.206   0.032  0.6390  0.2031 -0.2320
14703TIP3    H165600   5.429   4.124  -0.003  2.5184  0.3773  0.9671
14703TIP3    H265601   5.474   4.251   0.066  0.1788  3.7594 -3.2324
14704TIP3   OH265602   1.632   4.707   4.359  0.4159  0.2250  0.3180
14704TIP3    H165603   1.718   4.699   4.401 -0.3946 -0.8958  1.8722
14704TIP3    H265604   1.603   4.616   4.346 -0.5833  0.5841 -0.0853
14705TIP3   OH265605   6.829   3.158   5.439 -0.0642  0.5848 -0.2620
14705TIP3    H165606   6.923   3.169   5.451 -0.3816  2.5268  0.9382
14705TIP3    H265607   6.808   3.078   5.486  0.6079  1.5997  1.8768
14706TIP3   OH265608   0.432   1.126  16.658 -0.5871 -0.0499 -0.0585
14706TIP3    H165609   0.427   1.088  16.745 -1.9923  1.4291  0.5630
14706TIP3    H265610   0.356   1.091  16.611 -0.6652  0.2935 -0.1940
14707TIP3   OH265611   6.195   0.221  16.425  0.6275 -0.1483 -0.2011
14707TIP3    H165612   6.120   0.166  16.401  0.0223  1.4429 -2.2821
14707TIP3    H265613   6.216   0.196  16.515 -1.3260 -1.8211 -0.1473
14708TIP3   OH265614   3.360   2.778  11.380 -0.0819  0.1939 -0.0719
14708TIP3    H165615   3.271   2.782  11.414 -1.5311 -0.2854 -3.4216
14708TIP3    H265616   3.362   2.698  11.327  2.5270 -0.0512  0.2270
14709TIP3   OH265617   6.323   3.808   4.379  0.3832 -0.5519  0.0467
14709TIP3    H165618   6.296   3.731   4.328  0.3740 -0.8022  0.4198
14709TIP3    H265619   6.285   3.793   4.466  1.8934 -1.0354  0.6628
14710TIP3   OH265620   0.382   2.506  11.475  0.2403  0.7385 -0.1409
14710TIP3    H165621   0.357   2.593  11.508 -0.4585  0.9970 -1.2888
14710TIP3    H265622   0.420   2.523  11.389  0.7411 -0.0390 -0.0834
14711TIP3   OH265623   6.294   3.388  15.999 -0.3723 -0.4601  0.2435
14711TIP3    H165624   6.278   3.369  16.091 -1.4924 -0.2906  0.0956
14711TIP3    H265625   6.332   3.476  15.999  2.1445 -1.4765  0.7165
14712TIP3   OH265626   2.353   1.878  11.385  0.1802  0.6812  0.2171
14712TIP3    H165627   2.297   1.941  11.429 -0.3054 -0.1044  0.7553
14712TIP3    H265628   2.320   1.874  11.296 -2.2488 -1.5058  1.0771
14713TIP3   OH265629   1.542   5.241  14.899 -0.2220 -0.3008  0.4299
14713TIP3    H165630   1.518   5.177  14.832  2.2181 -0.2205 -0.6184
14713TIP3    H265631   1.594   5.307  14.852  0.2875  0.5733  2.1342
14714TIP3   OH265632   1.482   5.061  13.813 -0.2073 -0.3208 -0.4585
14714TIP3    H165633   1.553   4.997  13.802  0.0478 -0.0493 -0.4090
14714TIP3    H265634   1.407   5.021  13.769  0.0080 -0.5578 -0.6155
14715TIP3   OH265635   5.420   1.846   3.259  0.1399 -0.4854 -0.0755
14715TIP3    H165636   5.448   1.776   3.317 -0.5696 -1.0491 -0.4035
14715TIP3    H265637   5.461   1.826   3.174 -0.2688 -0.6430 -0.2362
14716TIP3   OH265638   2.485   0.016  14.329  0.2901 -0.0294 -0.6746
14716TIP3    H165639   2.457  -0.037  14.404  0.8891 -1.7343 -1.6175
14716TIP3    H265640   2.580   0.024  14.339  0.6954 -2.0852 -2.3209
14717TIP3   OH265641   5.561   0.515  11.193  0.4096  0.0312  0.3017
14717TIP3    H165642   5.594   0.581  11.132 -0.1436 -0.4063 -0.4952
14717TIP3    H265643   5.609   0.436  11.171  0.6385  0.0156  0.8507
14718TIP3   OH265644   5.248   4.820   1.565  0.6098 -0.6931  0.0903
14718TIP3    H165645   5.278   4.895   1.617 -0.8522 -0.5144  0.7290
14718TIP3    H265646   5.194   4.858   1.497 -1.1617 -1.2130  1.1530
14719TIP3   OH265647   6.046   1.091  10.546 -0.3492 -0.5347 -0.4631
14719TIP3    H165648   6.029   1.109  10.453 -0.8197  0.0933 -0.2574
14719TIP3    H265649   6.121   1.031  10.545 -0.4913 -0.7109 -1.2552
14720TIP3   OH265650   0.443   4.545  15.424 -0.1422 -0.4698  0.1956
14720TIP3    H165651   0.402   4.547  15.511 -0.8915 -2.4022 -0.0732
14720TIP3    H265652   0.514   4.609  15.430 -0.9598  0.3539  1.8171
14721TIP3   OH265653   3.576   2.741   4.753 -0.0379 -0.0295 -0.0259
14721TIP3    H165654   3.565   2.782   4.839  0.2418 -1.2768  0.6277
14721TIP3    H265655   3.489   2.707   4.731 -0.3142  1.0412 -0.6546
14722TIP3   OH265656   1.016   1.877   0.789  0.0487 -0.1433  0.0365
14722TIP3    H165657   1.097   1.900   0.744  0.8486 -1.4129  0.7439
14722TIP3    H265658   0.983   1.959   0.824  1.0421  0.3989 -0.2705
14723TIP3   OH265659   5.716   2.626   3.571  0.2964  0.2115  0.3673
14723TIP3    H165660   5.696   2.634   3.478 -1.2672  0.4006  0.6957
14723TIP3    H265661   5.810   2.644   3.577  1.3979 -3.7262 -1.6589
14724TIP3   OH265662   3.818   5.622   4.118  0.0645  0.2302 -0.4844
14724TIP3    H165663   3.905   5.605   4.154  0.0315 -0.7955 -0.8538
14724TIP3    H265664   3.827   5.707   4.075  0.7608  0.3414 -0.1429
14725TIP3   OH265665   2.849   2.142   4.745  0.0534  0.1501  0.3321
14725TIP3    H165666   2.823   2.121   4.835  0.2616 -0.1810  0.3182
14725TIP3    H265667   2.892   2.062   4.714 -1.1292 -0.1912 -0.4814
14726TIP3   OH265668   2.240   2.465   2.274 -0.3019  0.2162 -0.0757
14726TIP3    H165669   2.155   2.490   2.238  0.6026  1.6595 -1.3304
14726TIP3    H265670   2.261   2.533   2.337  0.1696  0.1761 -0.1804
14727TIP3   OH265671   3.313   5.494   1.858  0.4097  0.2779 -0.3643
14727TIP3    H165672   3.391   5.442   1.876 -0.1689 -0.9715 -1.3178
14727TIP3    H265673   3.313   5.503   1.762 -0.4743  0.5063 -0.3443
14728TIP3   OH265674   1.643   3.976   5.265  0.2939  0.4233  0.2271
14728TIP3    H165675   1.598   3.892   5.264 -0.1534  0.6321  1.2917
14728TIP3    H265676   1.631   4.009   5.354  2.5523  0.4975  0.5779
14729TIP3   OH265677   3.503   6.460  11.008 -0.0201 -0.1167 -0.2449
14729TIP3    H165678   3.431   6.484  10.950  0.3074  0.6167 -0.3633
14729TIP3    H265679   3.578   6.447  10.950 -0.2453 -1.7800 -0.2174
14730TIP3   OH265680   3.772   6.610  14.466  0.2675 -0.1457  0.2966
14730TIP3    H165681   3.753   6.691  14.419 -1.6325  0.8611  2.5512
14730TIP3    H265682   3.867   6.609  14.475  0.7729 -0.4986 -3.4764
14731TIP3   OH265683   4.212   3.495  12.642  0.0253 -0.0049 -0.6295
14731TIP3    H165684   4.252   3.408  12.635 -0.9483 -0.4883 -0.4191
14731TIP3    H265685   4.212   3.529  12.553  0.3232 -0.2653 -0.7294
14732TIP3   OH265686   3.900   2.138   1.770 -0.6155  0.3964 -0.2826
14732TIP3    H165687   3.966   2.069   1.768 -2.3153 -1.3682  0.6603
14732TIP3    H265688   3.929   2.202   1.705  2.2464 -0.0235  0.4686
14733TIP3   OH265689   4.158   3.570   0.498 -0.0296  0.1058  0.3449
14733TIP3    H165690   4.113   3.651   0.522 -0.3379 -0.1008  0.4643
14733TIP3    H265691   4.100   3.527   0.435  0.2867  0.1362  0.0294
14734TIP3   OH265692   4.819   6.513  15.567  0.2326  0.0237 -0.3360
14734TIP3    H165693   4.790   6.424  15.548 -1.0437  0.4760 -0.5697
14734TIP3    H265694   4.827   6.516  15.662  0.2069 -0.3082 -0.3230
14735TIP3   OH265695   3.431   6.810   4.392 -0.1350  0.4323 -0.9135
14735TIP3    H165696   3.429   6.906   4.394  2.1062  0.5560 -1.6095
14735TIP3    H265697   3.464   6.785   4.478 -0.7075  0.2761 -0.7363
14736TIP3   OH265698   1.935   6.650   0.088 -0.3066 -0.0507 -0.7341
14736TIP3    H165699   1.932   6.589   0.014  1.2446 -1.6343  0.4110
14736TIP3    H265700   2.002   6.714   0.065  1.1911 -1.3564 -0.1937
14737TIP3   OH265701   6.015   4.474  15.264 -0.1038 -0.0443  0.1690
14737TIP3    H165702   5.976   4.387  15.250  0.1208 -0.2289  0.6850
14737TIP3    H265703   5.941   4.530  15.286 -0.1800 -0.2265  0.3837
14738TIP3   OH265704   1.569   1.691   3.197 -0.2399  0.2596 -0.3053
14738TIP3    H165705   1.522   1.672   3.115  0.0749 -1.0193 -0.2058
14738TIP3    H265706   1.660   1.668   3.178 -0.1214  0.1979  0.3291
14739TIP3   OH265707   4.508   5.289   4.445 -0.4348  0.0328 -0.1243
14739TIP3    H165708   4.441   5.227   4.415  0.5417 -0.6543 -0.9595
14739TIP3    H265709   4.534   5.336   4.366  0.3845 -0.0258  0.1089
14740TIP3   OH265710   4.126   3.125   0.434 -0.4227 -0.0280 -0.3387
14740TIP3    H165711   4.055   3.156   0.379 -0.7943  0.9238  0.6504
14740TIP3    H265712   4.205   3.141   0.382 -0.8203  0.0890 -0.9187
14741TIP3   OH265713   4.802   3.619   2.047 -0.1893 -0.3311  0.5422
14741TIP3    H165714   4.764   3.707   2.052  0.0378 -0.2701  1.3450
14741TIP3    H265715   4.870   3.627   1.980  0.2612  0.2838  1.0567
14742TIP3   OH265716   1.248   2.677  15.484  0.6706 -0.2600 -0.4866
14742TIP3    H165717   1.249   2.623  15.563  1.6995  0.7782  0.2597
14742TIP3    H265718   1.182   2.744  15.502  2.1438  1.0356  0.2868
14743TIP3   OH265719   5.348   6.500   2.653  0.1432 -0.6234  0.0374
14743TIP3    H165720   5.356   6.594   2.667  0.3908 -0.7055  0.4657
14743TIP3    H265721   5.273   6.474   2.706  0.1094 -0.6789 -0.0364
14744TIP3   OH265722   4.436   6.074   3.095  0.2444  0.1150  0.5008
14744TIP3    H165723   4.491   6.039   3.165  0.4744 -0.5744 -0.0214
14744TIP3    H265724   4.442   6.169   3.106  1.0133  0.0334  0.8560
14745TIP3   OH265725   4.360   5.401  16.882 -0.2020  0.2812 -0.1277
14745TIP3    H165726   4.440   5.381  16.930  0.3372  3.0878  0.3397
14745TIP3    H265727   4.368   5.353  16.800  0.6276 -1.6385  1.0261
14746TIP3   OH265728   3.192   6.042   4.694  1.0259 -0.0519 -0.1239
14746TIP3    H165729   3.206   6.131   4.664  0.7358 -0.0808 -0.3367
14746TIP3    H265730   3.184   5.990   4.614  2.1810 -0.4262 -0.0187
14747TIP3   OH265731   5.821   5.887  13.962  0.4445 -0.1100 -0.0129
14747TIP3    H165732   5.913   5.876  13.938  1.4143  1.2917  2.6513
14747TIP3    H265733   5.792   5.798  13.984  0.9901 -0.6224 -1.2321
14748TIP3   OH265734   1.855   4.916   4.576 -0.2909  0.7721  0.4375
14748TIP3    H165735   1.887   4.839   4.530 -0.1296  1.0628  0.0583
14748TIP3    H265736   1.920   4.933   4.644 -0.2752  0.6358  0.4566
14749TIP3   OH265737   6.820   2.995  14.627  0.1276  0.1680  0.1679
14749TIP3    H165738   6.843   2.904  14.606  0.7670  0.6965 -1.5849
14749TIP3    H265739   6.880   3.048  14.575 -0.9717  1.6085  0.2867
14750TIP3   OH265740   1.772   4.148   0.941 -0.0518  0.3001 -0.6424
14750TIP3    H165741   1.799   4.222   0.995 -1.7245  0.8159 -0.4616
14750TIP3    H265742   1.730   4.088   1.001  2.2833 -1.4071 -0.5825
14751TIP3   OH265743   4.214   0.951  15.733  0.0503 -0.0930 -0.1299
14751TIP3    H165744   4.172   0.930  15.649 -0.0449 -0.4959  0.0169
14751TIP3    H265745   4.144   0.990  15.785  0.5129  1.8471 -0.8389
14752TIP3   OH265746   3.657   3.101  13.805 -0.4998 -0.7577 -0.0770
14752TIP3    H165747   3.624   3.037  13.870 -1.0992  0.3027  0.7000
14752TIP3    H265748   3.735   3.060  13.769 -1.7643 -2.6703 -0.8041
14753TIP3   OH265749   5.178   6.278  12.717  0.2799 -0.3545  0.2354
14753TIP3    H165750   5.154   6.199  12.765  0.9963 -0.8939 -0.2835
14753TIP3    H265751   5.251   6.314  12.766 -0.0685  0.0191  0.4926
14754TIP3   OH265752   0.429   4.895   2.871 -0.0457  0.1116 -0.1127
14754TIP3    H165753   0.341   4.895   2.909  0.0334  0.2587  0.0663
14754TIP3    H265754   0.424   4.829   2.801 -0.2000 -0.1266  0.1216
14755TIP3   OH265755   2.706   3.489  16.730  0.1655  0.7454 -0.6864
14755TIP3    H165756   2.629   3.494  16.786  1.2192  0.2799  0.8772
14755TIP3    H265757   2.672   3.461  16.645 -1.1685 -1.8356  0.5684
14756TIP3   OH265758   4.133   4.734   4.352  0.3322  0.3844 -0.0282
14756TIP3    H165759   4.192   4.807   4.333  0.3428  0.0280 -1.5274
14756TIP3    H265760   4.090   4.758   4.434  4.0039 -0.2392  2.3190
14757TIP3   OH265761   0.838   2.114  14.304  0.0139  0.5481 -0.1629
14757TIP3    H165762   0.777   2.082  14.371  0.2383 -0.9970 -0.6772
14757TIP3    H265763   0.785   2.117  14.223  0.5871 -0.7432 -0.5992
14758TIP3   OH265764   1.290   0.357   1.373 -0.1677 -0.0978 -0.0836
14758TIP3    H165765   1.336   0.431   1.413  0.7156  0.2568 -1.6725
14758TIP3    H265766   1.247   0.395   1.296  0.3462 -1.2398 -0.9576
14759TIP3   OH265767   6.787   3.007  11.257 -0.5754 -0.0892  0.2674
14759TIP3    H165768   6.746   3.003  11.171 -0.0272 -1.3672  0.0412
14759TIP3    H265769   6.772   3.097  11.288 -0.4718  0.4905 -1.3062
14760TIP3   OH265770   3.190   2.068  13.402 -0.2170 -0.1990  0.0357
14760TIP3    H165771   3.129   2.141  13.394 -0.5119 -0.5302 -0.9464
14760TIP3    H265772   3.277   2.108  13.395 -0.3897 -0.0046 -1.3144
14761TIP3   OH265773   4.053   1.186   2.964  0.0391 -0.0911  0.2217
14761TIP3    H165774   4.043   1.092   2.951 -3.2414  0.2743 -0.7162
14761TIP3    H265775   4.140   1.206   2.930  0.0545 -2.4855 -1.3625
14762TIP3   OH265776   3.688   4.148  14.830 -0.4956  0.5001 -0.4710
14762TIP3    H165777   3.605   4.154  14.783 -0.8689 -2.8252 -0.4746
14762TIP3    H265778   3.740   4.087  14.778  0.3409 -0.6959  1.6634
14763TIP3   OH265779   1.662   0.967   4.175  1.0891  0.0573 -0.3373
14763TIP3    H165780   1.727   1.020   4.129  0.5066  0.8695 -0.2518
14763TIP3    H265781   1.653   1.010   4.260  0.1352  0.2093 -0.5064
14764TIP3   OH265782   4.565   2.310   1.161 -0.4231  0.3201 -0.2126
14764TIP3    H165783   4.555   2.403   1.184  1.6303  0.5609 -0.1309
14764TIP3    H265784   4.538   2.263   1.240 -1.3395  0.8411 -0.2039
14765TIP3   OH265785   2.142   5.636   4.103 -0.6430  0.0086  0.7505
14765TIP3    H165786   2.094   5.676   4.176 -0.5228  1.9469 -0.1694
14765TIP3    H265787   2.181   5.710   4.057  0.9161 -1.3189 -0.1556
14766TIP3   OH265788   2.090   5.848  13.124  0.3901  0.4267 -0.2313
14766TIP3    H165789   2.052   5.829  13.038 -0.0845  1.3057 -0.2261
14766TIP3    H265790   2.178   5.810  13.120  0.3158  0.3143 -1.0521
14767TIP3   OH265791   0.328   4.133  13.684 -0.0912 -0.5502 -0.1652
14767TIP3    H165792   0.249   4.151  13.734  0.0973 -0.3655  0.0719
14767TIP3    H265793   0.308   4.161  13.595 -0.1928 -0.2288 -0.0441
14768TIP3   OH265794   5.033   1.907  11.126  0.2474  0.0827 -0.3238
14768TIP3    H165795   4.942   1.935  11.140  0.1759 -0.8252  1.1812
14768TIP3    H265796   5.083   1.989  11.126 -0.4637  0.5291 -0.3489
14769TIP3   OH265797   6.739   5.377   3.479 -0.0682  0.1115  0.0821
14769TIP3    H165798   6.745   5.471   3.496  0.8911  0.2508 -0.9029
14769TIP3    H265799   6.754   5.336   3.564 -1.3226  0.8353  0.6933
14770TIP3   OH265800   2.707   5.313  11.426  0.5288  0.1445  0.0631
14770TIP3    H165801   2.635   5.298  11.487 -0.7514 -0.0003 -1.4366
14770TIP3    H265802   2.786   5.296  11.478 -0.5469 -1.2399  1.3360
14771TIP3   OH265803   0.944   2.201  11.448  0.2572  0.2585 -0.6744
14771TIP3    H165804   1.020   2.231  11.397  0.9851 -0.0330  0.2149
14771TIP3    H265805   0.925   2.115  11.412  0.1201  0.4728 -1.1331
14772TIP3   OH265806   1.573   0.629   2.157 -0.2018  0.0347  0.5037
14772TIP3    H165807   1.537   0.679   2.229 -0.7874  1.4227 -0.7159
14772TIP3    H265808   1.512   0.642   2.085  0.7955 -0.6215 -0.4994
14773TIP3   OH265809   4.791   4.853  12.738 -0.5051 -0.4083  0.3368
14773TIP3    H165810   4.876   4.896  12.754 -0.1407 -1.1997  0.5994
14773TIP3    H265811   4.747   4.856  12.823 -0.9498  0.4188  0.0901
14774TIP3   OH265812   2.228   5.007  12.336  0.2139  0.4233 -0.4999
14774TIP3    H165813   2.292   4.941  12.310  0.2779  0.7503 -1.2081
14774TIP3    H265814   2.160   5.003  12.269 -0.7518 -0.2194  0.4731
14775TIP3   OH265815   3.204   6.660  14.640 -0.2698  0.3159 -0.3901
14775TIP3    H165816   3.242   6.583  14.682  0.0033 -0.7750 -2.4808
14775TIP3    H265817   3.132   6.686  14.697 -0.6628 -1.7852  0.1417
14776TIP3   OH265818   1.054   0.367  13.717  0.2225  0.1917 -0.2379
14776TIP3    H165819   1.103   0.448  13.733 -0.4245  0.7224 -0.8493
14776TIP3    H265820   0.968   0.397  13.687 -0.0099 -0.7280 -0.5210
14777TIP3   OH265821   1.902   3.240  15.014  0.7049 -0.2522 -0.1376
14777TIP3    H165822   1.926   3.184  15.088  0.0013 -2.3499 -1.4208
14777TIP3    H265823   1.986   3.263  14.974  1.2362  2.3189  2.1793
14778TIP3   OH265824   2.061   5.686   2.765  0.2222  0.2765 -0.3221
14778TIP3    H165825   1.975   5.664   2.729  0.4376  0.5442 -1.0196
14778TIP3    H265826   2.075   5.777   2.740  0.1404  0.6556  0.9545
14779TIP3   OH265827   4.716   1.325  14.811  0.1485  0.4780 -0.2783
14779TIP3    H165828   4.661   1.312  14.888  1.6279 -2.3606  0.4401
14779TIP3    H265829   4.740   1.418  14.814 -0.1839  0.5532  2.4625
14780TIP3   OH265830   0.578   0.438  11.898 -0.0941  0.8988 -0.1836
14780TIP3    H165831   0.557   0.470  11.986  0.6189  0.0179  0.3159
14780TIP3    H265832   0.610   0.349  11.911 -1.4706  0.1551 -1.4948
14781TIP3   OH265833   4.076   1.961   1.597  0.0105 -0.2648 -0.1111
14781TIP3    H165834   4.088   1.883   1.651  1.0173 -0.1161 -0.0826
14781TIP3    H265835   4.147   1.956   1.533  1.0154  1.3352  0.7943
14782TIP3   OH265836   2.060   4.597   2.212 -0.2731  0.2382  0.7098
14782TIP3    H165837   2.022   4.669   2.262  0.8438  1.3810 -0.0429
14782TIP3    H265838   2.084   4.635   2.128 -0.9164 -1.3494 -0.2441
14783TIP3   OH265839   1.806   4.365  15.532 -0.5278 -0.3225  0.0912
14783TIP3    H165840   1.777   4.319  15.610  0.3037 -0.1703  0.5062
14783TIP3    H265841   1.887   4.410  15.559  0.1842 -0.8662 -1.0440
14784TIP3   OH265842   4.540   6.234   2.697  0.1030 -0.5126  0.1073
14784TIP3    H165843   4.601   6.171   2.735 -0.0207 -0.1767  0.8931
14784TIP3    H265844   4.459   6.221   2.745  0.3779  0.9524  1.0375
14785TIP3   OH265845   3.922   6.529   0.365 -0.2749  0.3356 -0.1902
14785TIP3    H165846   3.986   6.597   0.389 -0.8645  0.4571  1.1468
14785TIP3    H265847   3.837   6.566   0.390 -0.6912 -0.5608 -0.2297
14786TIP3   OH265848   4.665   2.298  12.866  0.2174 -0.9375  0.0647
14786TIP3    H165849   4.590   2.351  12.839 -0.4952 -1.2861  1.3004
14786TIP3    H265850   4.653   2.214  12.823  0.4723 -0.6547 -0.5744
14787TIP3   OH265851   1.551   0.080   2.525 -0.2040  0.1571 -1.0810
14787TIP3    H165852   1.537   0.160   2.576  0.2381  0.4417 -1.3962
14787TIP3    H265853   1.646   0.075   2.513  0.1694 -2.2565  1.8583
14788TIP3   OH265854   6.642   0.803  16.049  0.0398  0.6392 -0.3029
14788TIP3    H165855   6.550   0.828  16.049  0.1104  0.9617  0.9476
14788TIP3    H265856   6.690   0.886  16.056  0.3153  0.3318  2.2805
14789TIP3   OH265857   1.869   1.600  12.100  0.1716  0.8288 -0.2283
14789TIP3    H165858   1.848   1.598  12.006  0.8447 -1.5717 -0.4017
14789TIP3    H265859   1.822   1.525  12.136  0.2081  1.5100  1.3104
14790TIP3   OH265860   0.061   3.534   5.721 -0.1753  0.5150  0.0468
14790TIP3    H165861  -0.008   3.477   5.754 -0.7922  0.5012 -1.2066
14790TIP3    H265862   0.141   3.499   5.760 -0.7052 -0.3297  0.4171
14791TIP3   OH265863   3.370   2.799   2.376 -0.2068  0.2627 -0.5612
14791TIP3    H165864   3.358   2.704   2.378  1.8375 -0.0218  0.4887
14791TIP3    H265865   3.419   2.816   2.296  0.8211  0.2153  0.0414
14792TIP3   OH265866   4.197   4.877   1.395 -0.4537  0.2214  0.8494
14792TIP3    H165867   4.198   4.789   1.359 -0.2811  0.6016 -0.1009
14792TIP3    H265868   4.192   4.864   1.490 -0.8586 -0.7968  0.6991
14793TIP3   OH265869   5.856   1.575  16.461 -0.5477 -0.5767 -1.0299
14793TIP3    H165870   5.850   1.567  16.557 -2.5713 -0.6635 -1.1202
14793TIP3    H265871   5.827   1.664  16.442 -2.5738 -1.3263 -1.6862
14794TIP3   OH265872   5.510   5.421  12.511  0.3160  0.3940  0.6567
14794TIP3    H165873   5.510   5.512  12.540 -0.0950  1.3834 -2.1503
14794TIP3    H265874   5.602   5.399  12.502  0.4056  0.9511  0.1759
14795TIP3   OH265875   5.453   4.231   2.639 -0.1491 -0.4889 -0.3535
14795TIP3    H165876   5.540   4.272   2.638  0.0023 -0.7961  0.4055
14795TIP3    H265877   5.395   4.300   2.672 -0.0480 -0.5691 -0.0036
14796TIP3   OH265878   4.406   3.549   0.327  0.3102 -0.3444  0.5022
14796TIP3    H165879   4.417   3.640   0.354 -0.2278 -0.2358  0.3582
14796TIP3    H265880   4.312   3.533   0.333  0.5485 -1.3797  2.0966
14797TIP3   OH265881   6.806   3.143  13.743  0.4160 -0.0016  0.2105
14797TIP3    H165882   6.725   3.092  13.737  1.2008 -1.3166  0.4183
14797TIP3    H265883   6.843   3.119  13.828  1.3206  0.1131 -0.1399
14798TIP3   OH265884   0.726   5.984   4.593  0.2629 -0.7968  0.1912
14798TIP3    H165885   0.781   5.968   4.669  1.5158 -0.1544 -0.5635
14798TIP3    H265886   0.779   5.958   4.518  0.9613  2.9542 -0.8345
14799TIP3   OH265887   5.679   4.320   3.972  0.4344  0.1678  0.5040
14799TIP3    H165888   5.770   4.350   3.964  0.8469  0.2153  3.7786
14799TIP3    H265889   5.684   4.249   4.036 -1.8680  0.3722  0.9828
14800TIP3   OH265890   1.682   2.950   2.053 -0.0653  0.3189  0.2469
14800TIP3    H165891   1.607   2.983   2.103  1.6678 -0.8725  3.9299
14800TIP3    H265892   1.758   2.994   2.091  1.4824 -1.4118 -0.6974
14801TIP3   OH265893   1.844   2.089  14.678 -0.2550  0.0353  0.1005
14801TIP3    H165894   1.913   2.136  14.632 -1.0259  0.5619 -0.5529
14801TIP3    H265895   1.814   2.150  14.746  0.3994 -0.4696  0.8662
14802TIP3   OH265896   1.924   0.638   4.995  0.0234 -0.1291 -0.2773
14802TIP3    H165897   1.844   0.650   4.944 -0.8200 -0.6069  0.8766
14802TIP3    H265898   1.972   0.569   4.950  0.9052  1.6723 -2.2503
14803TIP3   OH265899   1.528   0.075  10.962 -0.3932  0.2259  0.2487
14803TIP3    H165900   1.460   0.097  10.898 -0.6827  0.9961  0.7995
14803TIP3    H265901   1.603   0.048  10.910 -0.8886  0.0589 -0.3915
14804TIP3   OH265902   5.456   4.226  14.343 -0.3254 -0.1346  0.1144
14804TIP3    H165903   5.416   4.228  14.430  0.8187 -0.5064  0.6659
14804TIP3    H265904   5.452   4.317  14.312 -0.0478  0.1449  0.8855
14805TIP3   OH265905   6.753   2.586  15.625  0.7407  0.2838  0.1516
14805TIP3    H165906   6.726   2.677  15.612  1.6212  0.3241 -1.6403
14805TIP3    H265907   6.681   2.534  15.590  0.9727  0.3242 -0.3917
14806TIP3   OH265908   2.625   2.065  13.184  0.0340  0.2011  0.3807
14806TIP3    H165909   2.591   1.993  13.130 -0.9289  1.7802 -1.2800
14806TIP3    H265910   2.719   2.066  13.167  0.3718 -1.7985  1.9171
14807TIP3   OH265911   3.929   3.569   6.683 -0.7634  0.4144 -0.4167
14807TIP3    H165912   3.841   3.538   6.705 -1.0027  1.4420  0.1440
14807TIP3    H265913   3.925   3.589   6.589 -1.1357  0.4810 -0.3861
14808TIP3   OH265914   3.204   6.387  14.480 -1.0695  0.1150  0.0540
14808TIP3    H165915   3.259   6.336  14.539  0.2418 -0.4079 -1.5499
14808TIP3    H265916   3.254   6.466  14.462 -1.2467  0.0729 -0.6749
14809TIP3   OH265917   1.251   3.720   3.656 -0.1900  0.1960 -0.6326
14809TIP3    H165918   1.217   3.635   3.682 -1.1386  0.6245 -0.4297
14809TIP3    H265919   1.226   3.729   3.564 -0.4682  0.4404 -0.5327
14810TIP3   OH265920   3.620   2.614   2.634 -0.2563 -0.6772  0.0191
14810TIP3    H165921   3.624   2.655   2.547  0.9053 -1.2829 -0.2343
14810TIP3    H265922   3.692   2.654   2.683 -0.5764 -0.7285  0.5442
14811TIP3   OH265923   6.222   5.245  15.259  0.6577 -0.7263  1.0002
14811TIP3    H165924   6.245   5.337  15.253  0.7446 -0.8067 -0.1869
14811TIP3    H265925   6.262   5.215  15.341 -0.3387  0.5367  1.9835
14812TIP3   OH265926   4.002   3.236   2.156 -0.2580  0.1831 -0.1681
14812TIP3    H165927   4.093   3.252   2.131  0.0326  1.5555  1.5589
14812TIP3    H265928   3.998   3.261   2.249 -3.0606  3.3461 -0.9415
14813TIP3   OH265929   0.899   3.284   4.758  0.2263  0.4955  0.4673
14813TIP3    H165930   0.940   3.299   4.844  0.0244 -0.4282  0.7324
14813TIP3    H265931   0.836   3.355   4.749 -1.0162 -0.3591  1.8889
14814TIP3   OH265932   3.678   5.140  10.950  0.1776  0.2641 -0.3448
14814TIP3    H165933   3.680   5.226  10.909 -1.9483  0.0584 -1.0058
14814TIP3    H265934   3.749   5.092  10.908  1.3495  1.6517 -0.0115
14815TIP3   OH265935   1.872   1.391  15.733  0.2927 -0.3930 -0.5403
14815TIP3    H165936   1.916   1.447  15.798 -0.9469  0.5664 -0.4867
14815TIP3    H265937   1.847   1.313  15.783 -2.0197  0.9839  0.6096
14816TIP3   OH265938   1.036   3.429  12.532 -0.5082 -0.4814  0.2251
14816TIP3    H165939   1.050   3.337  12.512 -1.9233 -0.5664 -0.4569
14816TIP3    H265940   1.073   3.476  12.457  0.6589 -0.4447  0.7985
14817TIP3   OH265941   4.204   0.545   3.755  0.7028 -0.4482 -0.6100
14817TIP3    H165942   4.234   0.517   3.841 -1.0599 -1.3567 -0.2444
14817TIP3    H265943   4.157   0.469   3.720 -1.5873  1.0223 -0.8967
14818TIP3   OH265944   5.956   1.854  11.053 -0.9663  0.1125  0.4013
14818TIP3    H165945   5.976   1.762  11.073 -0.2637 -0.1291 -1.2649
14818TIP3    H265946   6.002   1.903  11.121  1.8004 -0.6497 -0.7587
14819TIP3   OH265947   4.214   0.336   1.700  0.1598  0.0729  0.1807
14819TIP3    H165948   4.303   0.371   1.713  0.0298  0.4263  0.1229
14819TIP3    H265949   4.178   0.388   1.629  0.5332 -1.2540 -1.0233
14820TIP3   OH265950   2.717   5.897  13.081 -0.0307  0.1756 -0.1155
14820TIP3    H165951   2.727   5.974  13.137  0.4075 -0.7020  1.0391
14820TIP3    H265952   2.754   5.825  13.131 -1.1826 -0.9603 -0.8210
14821TIP3   OH265953   0.651   6.583  14.538  0.2709  0.0210 -0.3559
14821TIP3    H165954   0.718   6.644  14.569  0.6867  0.6284 -2.2593
14821TIP3    H265955   0.600   6.635  14.476 -0.0635 -1.2557 -1.1816
14822TIP3   OH265956   0.838   2.405  16.031  0.0523 -0.2817  0.5204
14822TIP3    H165957   0.823   2.497  16.055  1.3144  0.3993 -1.0488
14822TIP3    H265958   0.759   2.380  15.983  0.7885  0.9598 -1.5086
14823TIP3   OH265959   4.771   5.801  12.976 -0.0246 -0.1213  0.0916
14823TIP3    H165960   4.837   5.805  13.046 -0.1262 -0.2168  0.1937
14823TIP3    H265961   4.689   5.784  13.022 -0.1789  0.3560  0.0002
14824TIP3   OH265962   4.238   1.466   3.131  0.5090 -0.3303 -0.1206
14824TIP3    H165963   4.286   1.493   3.209  0.8745  4.0208 -1.5269
14824TIP3    H265964   4.305   1.438   3.069  0.7701  0.8065 -0.3774
14825TIP3   OH265965   3.795   4.170   2.591 -0.1058  0.0986  0.4554
14825TIP3    H165966   3.760   4.116   2.520 -0.8094  1.5180 -0.3190
14825TIP3    H265967   3.875   4.125   2.617 -1.4895 -2.2312  1.0124
14826TIP3   OH265968   2.267   3.248   0.849 -0.1526  0.6964  0.3207
14826TIP3    H165969   2.354   3.287   0.840 -0.1263  0.8161  1.0690
14826TIP3    H265970   2.254   3.240   0.943 -0.5905 -0.1454  0.1942
14827TIP3   OH265971   2.072   1.444  15.191  0.8596  0.1802 -0.4917
14827TIP3    H165972   2.014   1.428  15.265  2.5628 -0.8402  0.7086
14827TIP3    H265973   2.043   1.384  15.123  1.3859 -1.4117  0.6311
14828TIP3   OH265974   6.174   4.474   5.750 -0.1748 -0.1172 -0.2426
14828TIP3    H165975   6.138   4.493   5.836  0.8545  0.4295  0.0810
14828TIP3    H265976   6.201   4.382   5.755 -1.1874 -0.4343 -0.3815
14829TIP3   OH265977   4.848   6.374   0.989  0.0418  0.3633  0.4036
14829TIP3    H165978   4.803   6.398   0.908 -0.4970 -0.5906  0.4108
14829TIP3    H265979   4.779   6.348   1.049  0.5241 -0.0970  0.7697
14830TIP3   OH265980   5.701   4.947   6.063  0.2178 -0.2136  0.4617
14830TIP3    H165981   5.792   4.954   6.092 -0.1934  0.5445  1.6712
14830TIP3    H265982   5.652   4.926   6.143 -0.8165  0.7083  0.0978
14831TIP3   OH265983   1.970   0.349   1.542  0.8924  0.7355  0.5056
14831TIP3    H165984   1.916   0.422   1.573 -0.4393 -0.4637  1.1289
14831TIP3    H265985   2.018   0.320   1.620 -1.3486 -1.3352  1.2467
14832TIP3   OH265986   6.076   5.674  15.843 -0.4534 -0.8614  1.0007
14832TIP3    H165987   5.994   5.635  15.813 -0.7880 -1.1087  2.1851
14832TIP3    H265988   6.118   5.605  15.895 -0.0904 -0.3301  1.4313
14833TIP3   OH265989   1.118   2.352  15.919 -0.3326  0.2314 -0.5020
14833TIP3    H165990   1.073   2.408  15.982  0.1576 -1.2505  1.2458
14833TIP3    H265991   1.052   2.288  15.893  0.1282 -0.6468  0.4278
14834TIP3   OH265992   2.890   6.663  11.015 -1.1810 -0.2218 -0.3160
14834TIP3    H165993   2.820   6.622  10.964 -0.0571 -1.3621 -1.0177
14834TIP3    H265994   2.970   6.621  10.983 -0.1576  1.1331  0.3720
14835TIP3   OH265995   5.302   0.055   1.322  0.4494  0.3630  0.1495
14835TIP3    H165996   5.346   0.127   1.277 -0.3002  0.6768 -0.1018
14835TIP3    H265997   5.349   0.046   1.405 -0.1454  1.9065  0.6818
14836TIP3   OH265998   4.887   0.717   2.448 -0.2941 -0.1136 -0.5088
14836TIP3    H165999   4.929   0.726   2.363  0.1099  2.5936 -0.1241
14836TIP3    H266000   4.802   0.761   2.438 -0.9575 -1.1905  0.0865
14837TIP3   OH266001   5.132   1.231  10.511  0.3536 -0.1073 -0.0615
14837TIP3    H166002   5.226   1.221  10.524  0.2539  0.4457  1.2861
14837TIP3    H266003   5.123   1.313  10.462  0.6374 -1.0828 -1.8150
14838TIP3   OH266004   3.473   1.174  13.857  0.2481  0.4737 -0.3193
14838TIP3    H166005   3.467   1.098  13.916 -0.1211  1.1451  0.5303
14838TIP3    H266006   3.393   1.224  13.875  0.1167  0.6831 -1.4213
14839TIP3   OH266007   3.997   6.646   1.210  0.2969 -0.3067  0.1975
14839TIP3    H166008   4.010   6.569   1.266 -2.1613  0.9917  2.7749
14839TIP3    H266009   3.956   6.710   1.267 -0.2025  2.0101 -2.5730
14840TIP3   OH266010   5.795   6.717   5.586 -0.1284 -0.4368  0.0166
14840TIP3    H166011   5.776   6.799   5.631  1.4749 -1.4220  2.7368
14840TIP3    H266012   5.858   6.741   5.518 -1.8881  0.9509 -1.2139
14841TIP3   OH266013   6.136   5.841  16.341  0.3858 -0.3931  0.3345
14841TIP3    H166014   6.087   5.797  16.272  0.2572 -0.1202  0.2518
14841TIP3    H266015   6.228   5.832  16.316  0.3501 -0.4688  0.2321
14842TIP3   OH266016   0.674   1.781  11.512  0.3406  0.2808 -0.0010
14842TIP3    H166017   0.582   1.764  11.493  0.2739 -0.1397  0.6652
14842TIP3    H266018   0.673   1.842  11.586  0.5908 -0.4517  0.6166
14843TIP3   OH266019   2.769   3.118  16.752 -0.1355 -0.6084 -0.2219
14843TIP3    H166020   2.837   3.184  16.744 -1.9613  1.3978 -0.1811
14843TIP3    H266021   2.730   3.112  16.665 -0.4964 -1.0593 -0.0369
14844TIP3   OH266022   3.331   4.309   4.168  0.3357  0.4266 -0.3480
14844TIP3    H166023   3.313   4.399   4.140 -1.4157 -0.1920 -1.3485
14844TIP3    H266024   3.270   4.255   4.118  1.9334 -1.4350 -0.3956
14845TIP3   OH266025   5.429   0.979  16.284  0.2482 -0.0301  0.0534
14845TIP3    H166026   5.466   0.936  16.361  0.9573 -0.1867 -0.3600
14845TIP3    H266027   5.505   0.993  16.226 -0.2166  0.3973 -0.4640
14846TIP3   OH266028   3.849   1.696   1.165 -0.1583 -0.7250  0.1098
14846TIP3    H166029   3.771   1.737   1.129 -0.7656 -2.9335 -1.2823
14846TIP3    H266030   3.869   1.747   1.244 -3.6446 -0.7767  1.1706
14847TIP3   OH266031   1.049   4.223  10.983 -0.0428 -0.7510 -0.1469
14847TIP3    H166032   1.010   4.270  10.909 -2.2617 -1.0719  0.7467
14847TIP3    H266033   1.021   4.132  10.970 -1.0134 -0.6992  1.3785
14848TIP3   OH266034   3.136   2.667  15.854  0.4689  0.2763 -0.1110
14848TIP3    H166035   3.076   2.593  15.847  0.5423  0.2794 -0.8011
14848TIP3    H266036   3.163   2.685  15.764  1.4556  0.3144  0.1842
14849TIP3   OH266037   2.312   5.989  14.207 -0.2307 -0.0862 -0.1035
14849TIP3    H166038   2.316   6.074  14.162 -1.8299 -0.1340 -0.3831
14849TIP3    H266039   2.338   6.009  14.297  0.7292  0.4408 -0.4841
14850TIP3   OH266040   2.353   0.832   5.099 -0.0194 -0.3137 -0.6668
14850TIP3    H166041   2.295   0.762   5.130  1.2399 -0.9248  0.4100
14850TIP3    H266042   2.435   0.787   5.076  0.4592  0.6793 -0.9725
14851TIP3   OH266043   5.289   0.301   2.455  0.1544 -0.3320 -0.4581
14851TIP3    H166044   5.209   0.298   2.508  0.8970  2.1482  0.9501
14851TIP3    H266045   5.258   0.291   2.365 -1.5024 -1.3145  0.1761
14852TIP3   OH266046   5.809   0.969  14.328 -0.1891  0.1034  0.1088
14852TIP3    H166047   5.888   0.919  14.349  1.0029  2.1385  0.7617
14852TIP3    H266048   5.834   1.024  14.254 -2.0535 -1.5276 -1.8519
14853TIP3   OH266049   4.276   2.810  11.227 -0.3659  0.1362  0.0385
14853TIP3    H166050   4.286   2.889  11.175 -2.6216  1.0179  0.8163
14853TIP3    H266051   4.312   2.833  11.313  0.3439 -0.1903 -0.1719
14854TIP3   OH266052   0.021   2.036   4.364  0.4427  0.5488  0.4361
14854TIP3    H166053  -0.008   2.120   4.327 -0.8143 -0.7344 -1.6534
14854TIP3    H266054  -0.060   1.988   4.381  1.1694 -0.8005  0.2217
14855TIP3   OH266055   2.822   2.165  15.528  0.3124 -0.3049  0.0829
14855TIP3    H166056   2.815   2.070  15.533  0.4300 -0.2631  1.7904
14855TIP3    H266057   2.763   2.197  15.598 -0.7537  0.9344 -1.3036
14856TIP3   OH266058   1.739   3.987   4.310 -0.6116  0.3501  0.1092
14856TIP3    H166059   1.791   3.934   4.250 -1.7135  1.4797 -1.9271
14856TIP3    H266060   1.796   4.062   4.331 -0.5655  0.4219 -0.2717
14857TIP3   OH266061   0.867   6.256  14.261 -0.0170  0.2595  0.5360
14857TIP3    H166062   0.852   6.173  14.307  0.0159  1.0410  2.0047
14857TIP3    H266063   0.962   6.268  14.263  0.0040  0.2064  0.0669
14858TIP3   OH266064   5.374   5.721   5.406 -0.2092  0.1395 -0.0252
14858TIP3    H166065   5.406   5.812   5.410 -1.8241  0.7265  0.3919
14858TIP3    H266066   5.309   5.716   5.477  0.2132 -1.5003  0.2681
14859TIP3   OH266067   4.107   0.303   5.183 -0.0108 -0.3262  0.3651
14859TIP3    H166068   4.176   0.237   5.177  0.9838  0.7542 -0.2124
14859TIP3    H266069   4.111   0.350   5.100  0.0783  1.2357  1.2237
14860TIP3   OH266070   0.356   1.729  12.867 -0.1996  0.2897  0.4079
14860TIP3    H166071   0.355   1.819  12.900  1.5463 -0.0500  1.5328
14860TIP3    H266072   0.329   1.676  12.942  1.1220 -0.2854  0.5085
14861TIP3   OH266073   4.827   6.798   2.996  0.0293 -0.0162  0.8992
14861TIP3    H166074   4.917   6.768   2.988  0.5104  1.4760  0.4345
14861TIP3    H266075   4.812   6.804   3.090  0.6487  0.3957  0.9773
14862TIP3   OH266076   2.088   3.161   5.994  0.1066  0.3154  0.2076
14862TIP3    H166077   2.119   3.072   5.974 -0.1127  0.2039  0.3615
14862TIP3    H266078   2.006   3.148   6.040  0.9753  0.5388  1.8999
14863TIP3   OH266079   4.261   5.845   1.235  0.0090  0.2155 -0.0475
14863TIP3    H166080   4.284   5.789   1.310  0.1176 -1.5904 -1.3517
14863TIP3    H266081   4.287   5.793   1.159 -1.4177  1.3826 -1.3699
14864TIP3   OH266082   0.949   3.703  14.270 -0.1171 -0.0368 -0.0835
14864TIP3    H166083   1.029   3.682  14.320 -0.8863 -0.2946  1.0855
14864TIP3    H266084   0.929   3.623  14.222  0.6698  0.2327 -0.8807
14865TIP3   OH266085   5.705   3.472  15.731 -0.1480  0.4017 -0.8402
14865TIP3    H166086   5.656   3.439  15.807  0.4321 -0.1268 -0.6911
14865TIP3    H266087   5.669   3.559  15.716 -0.4143  0.4291 -0.0890
14866TIP3   OH266088   3.856   1.269   0.952  0.0407  0.1001 -0.3893
14866TIP3    H166089   3.880   1.286   1.043 -1.8876  0.0238  0.1922
14866TIP3    H266090   3.855   1.355   0.910  0.1875  0.2308 -0.1211
14867TIP3   OH266091   0.185   0.987  13.014  0.3437  0.3449 -0.2736
14867TIP3    H166092   0.118   0.920  13.029 -0.1550  0.8116 -0.3876
14867TIP3    H266093   0.254   0.942  12.966  0.7003 -0.4707  0.9621
14868TIP3   OH266094   1.924   6.422   3.757 -0.5623  0.5294 -0.0550
14868TIP3    H166095   2.008   6.380   3.777 -0.9741 -0.1546  0.3030
14868TIP3    H266096   1.919   6.420   3.661 -1.1356 -1.4603 -0.0400
14869TIP3   OH266097   2.127   1.164  14.843 -0.1642 -0.1472 -0.1565
14869TIP3    H166098   2.168   1.110  14.775 -0.3692  0.1744 -0.5417
14869TIP3    H266099   2.070   1.224  14.794  1.8298  2.0277  0.0205
14870TIP3   OH266100   2.368   3.788  15.658  0.4202  0.5654  0.2902
14870TIP3    H166101   2.395   3.707  15.702 -0.4975  0.3110  0.4192
14870TIP3    H266102   2.292   3.818  15.708  1.5313  2.2381  1.0399
14871TIP3   OH266103   4.526   0.084   2.154 -0.5529  0.5841 -0.0813
14871TIP3    H166104   4.440   0.053   2.126 -0.4787  0.7131 -0.4492
14871TIP3    H266105   4.584   0.065   2.080 -0.5473  1.7876 -0.3972
14872TIP3   OH266106   4.810   2.629   3.548  0.2223 -0.3260 -0.1374
14872TIP3    H166107   4.866   2.593   3.479  0.6826 -1.2947  0.7233
14872TIP3    H266108   4.866   2.691   3.594  0.1378 -0.2360 -0.1531
14873TIP3   OH266109   0.738   1.366   4.772 -0.6646 -0.0042 -0.2444
14873TIP3    H166110   0.821   1.410   4.789  0.4642 -2.2360  0.3373
14873TIP3    H266111   0.694   1.422   4.708  0.9895  1.5586 -0.0875
14874TIP3   OH266112   4.598   0.012  11.603 -0.3382  0.1103  0.3025
14874TIP3    H166113   4.669  -0.052  11.603  0.0491  0.4565 -1.9332
14874TIP3    H266114   4.631   0.084  11.549 -1.9078  0.8593  0.2917
14875TIP3   OH266115   5.467   1.846  16.337 -0.7526 -0.2987 -0.4150
14875TIP3    H166116   5.520   1.916  16.374 -1.3382 -0.1246  0.1009
14875TIP3    H266117   5.505   1.831  16.250 -1.2116  1.3057 -0.9257
14876TIP3   OH266118   4.066   2.177  15.412  0.1032 -1.1474 -0.3156
14876TIP3    H166119   4.044   2.123  15.337  1.4372 -0.6311 -1.1085
14876TIP3    H266120   3.986   2.178  15.465 -1.4749 -0.1308 -2.5494
14877TIP3   OH266121   6.241   5.298  11.779 -0.3211 -0.4843 -0.6698
14877TIP3    H166122   6.294   5.231  11.823 -0.5094 -0.4604 -0.4077
14877TIP3    H266123   6.224   5.261  11.692  1.0293 -0.0391 -1.1559
14878TIP3   OH266124   3.997   3.398   0.914  0.2811 -0.2635 -0.0849
14878TIP3    H166125   3.957   3.344   0.845 -2.5210  2.3484 -0.6874
14878TIP3    H266126   3.992   3.343   0.993 -2.6555 -0.9557 -0.6164
14879TIP3   OH266127   0.915   2.359   1.099 -0.0075 -0.2722 -0.3189
14879TIP3    H166128   0.978   2.357   1.027  1.3173  0.3832  0.7856
14879TIP3    H266129   0.876   2.447   1.093 -1.3026 -0.8832 -1.3656
14880TIP3   OH266130   3.181   3.250   3.408  0.2434 -0.3605  0.3053
14880TIP3    H166131   3.202   3.160   3.383  0.2972 -0.1262 -0.5283
14880TIP3    H266132   3.111   3.275   3.347 -0.3676 -0.1247  1.0954
14881TIP3   OH266133   6.439   0.764   0.100 -0.3273 -0.1470 -0.2270
14881TIP3    H166134   6.499   0.757   0.174 -1.0851 -2.3783  0.2421
14881TIP3    H266135   6.482   0.715   0.030  0.0013  1.2700 -1.0793
14882TIP3   OH266136   1.306   0.746  13.709 -0.2457 -0.0925  0.4431
14882TIP3    H166137   1.354   0.665  13.693 -0.9235 -0.5036  0.4711
14882TIP3    H266138   1.294   0.784  13.622  1.6154  0.9012  0.5565
14883TIP3   OH266139   3.702   6.295   6.406 -0.2022  0.2577 -0.7182
14883TIP3    H166140   3.612   6.282   6.435 -0.5868  1.2507 -1.4212
14883TIP3    H266141   3.733   6.371   6.456 -0.2753  0.8668 -1.5697
14884TIP3   OH266142   1.359   3.987   5.966 -0.2323  0.0102 -0.0762
14884TIP3    H166143   1.327   3.929   5.897 -1.0764 -0.2037  0.4711
14884TIP3    H266144   1.336   3.942   6.047  1.9012 -0.3553  0.3679
14885TIP3   OH266145   6.182   6.161  15.587 -0.2453  0.3818  0.2440
14885TIP3    H166146   6.159   6.078  15.629 -0.8173  0.3586 -0.1031
14885TIP3    H266147   6.226   6.134  15.506 -0.5852  0.4190  0.0486
14886TIP3   OH266148   3.129   1.239  14.403  0.2109 -0.0426  0.0145
14886TIP3    H166149   3.142   1.181  14.478 -0.0160  0.8552  0.7671
14886TIP3    H266150   3.206   1.225  14.348  0.4504 -0.6046  0.4863
14887TIP3   OH266151   1.996   0.264  16.339 -0.7590 -0.2167  0.5345
14887TIP3    H166152   1.976   0.175  16.367  0.7701 -0.9556 -0.5593
14887TIP3    H266153   2.078   0.286  16.384 -0.8259  0.4128  0.3679
14888TIP3   OH266154   4.564   1.630   3.561 -0.4431  0.1531 -0.7318
14888TIP3    H166155   4.581   1.647   3.468 -2.1717 -0.7671 -1.2600
14888TIP3    H266156   4.501   1.697   3.587 -3.1082 -1.8861 -1.3919
14889TIP3   OH266157   1.211   1.876  14.873  0.0310  0.0332 -0.5042
14889TIP3    H166158   1.289   1.823  14.861 -0.1915  0.0013 -1.9506
14889TIP3    H266159   1.144   1.814  14.903  0.2614 -0.1349 -0.3302
14890TIP3   OH266160   1.206   2.601   2.398  0.6048  0.0800 -0.1175
14890TIP3    H166161   1.181   2.674   2.454 -0.6649 -0.4527  0.0531
14890TIP3    H266162   1.178   2.523   2.445  0.3954 -0.4277 -1.0475
14891TIP3   OH266163   6.598   3.138   1.327 -0.5618  0.3123  1.1033
14891TIP3    H166164   6.589   3.050   1.364 -0.3846  0.1724  0.8203
14891TIP3    H266165   6.514   3.155   1.285 -0.3735  0.0065  0.5897
14892TIP3   OH266166   4.709   5.154   5.928 -0.2964  0.1551  0.0931
14892TIP3    H166167   4.727   5.245   5.904 -0.6755  0.1134 -0.3690
14892TIP3    H266168   4.749   5.143   6.014  0.9816  0.3601 -0.4474
14893TIP3   OH266169   0.920   5.352  16.487 -0.6304 -0.2434  0.3913
14893TIP3    H166170   0.831   5.364  16.454 -0.9169 -0.2900  1.1315
14893TIP3    H266171   0.976   5.357  16.409 -1.1705  0.9534  0.0583
14894TIP3   OH266172   1.992   5.354  14.654  0.7605  0.1062 -0.1921
14894TIP3    H166173   2.056   5.420  14.625  2.1048 -0.9722  0.2299
14894TIP3    H266174   2.016   5.275  14.606 -1.9216  0.2569 -2.0607
14895TIP3   OH266175   2.933   5.301  11.584 -0.3454  0.2977 -0.5750
14895TIP3    H166176   2.976   5.216  11.593  1.8291  1.3528 -0.3622
14895TIP3    H266177   2.989   5.361  11.632 -3.0263  1.5280  1.2123
14896TIP3   OH266178   0.142   0.851  15.455 -0.1688 -0.4253  0.5101
14896TIP3    H166179   0.148   0.946  15.444  3.6182 -0.5833 -0.1624
14896TIP3    H266180   0.180   0.835  15.541 -2.3688 -1.3129  1.3897
14897TIP3   OH266181   6.226   3.089  14.531 -0.0954  0.0783  0.1618
14897TIP3    H166182   6.277   3.039  14.594 -1.0964 -0.2712  0.7188
14897TIP3    H266183   6.147   3.115  14.579  0.6600  2.7871  0.1347
14898TIP3   OH266184   6.363   1.777  15.919 -0.1423  0.4273  0.3336
14898TIP3    H166185   6.336   1.868  15.932 -1.0281  0.4696 -1.4355
14898TIP3    H266186   6.458   1.781  15.913 -0.1636  1.2312  0.3712
14899TIP3   OH266187   4.743   4.869   0.822 -0.7662 -0.3508 -0.0643
14899TIP3    H166188   4.744   4.783   0.779 -0.4292 -0.9120  1.0284
14899TIP3    H266189   4.652   4.882   0.847 -0.5175 -1.2864  1.4579
14900TIP3   OH266190   0.375   2.137  14.556  0.4634 -0.4043  0.0140
14900TIP3    H166191   0.325   2.202  14.507  0.9371 -1.3957 -1.8916
14900TIP3    H266192   0.320   2.116  14.631  0.2840  2.1162  0.6717
14901TIP3   OH266193   3.721   0.905   5.515 -0.0243 -0.2741 -0.0752
14901TIP3    H166194   3.788   0.923   5.449 -1.0809 -0.0541 -1.1214
14901TIP3    H266195   3.685   0.820   5.490  0.5675 -0.8901  1.1019
14902TIP3   OH266196   1.181   4.046  15.958 -0.4110  0.4534  0.1476
14902TIP3    H166197   1.136   3.962  15.964  1.0117 -0.4248 -0.8318
14902TIP3    H266198   1.173   4.085  16.045  0.8257 -1.7451  1.3212
14903TIP3   OH266199   6.228   3.785  16.778 -0.0869  0.1766 -0.2715
14903TIP3    H166200   6.188   3.700  16.795  0.9383 -0.3500 -0.4415
14903TIP3    H266201   6.213   3.801  16.685 -0.1991  0.1469 -0.2589
14904TIP3   OH266202   0.959   5.688   5.556  0.1031  0.1305 -0.1770
14904TIP3    H166203   0.921   5.620   5.500  0.7337  0.9380 -1.6204
14904TIP3    H266204   0.885   5.721   5.607 -0.4264 -0.8288 -0.2993
14905TIP3   OH266205   5.188   3.267   4.697  0.0846 -0.2844 -0.4886
14905TIP3    H166206   5.222   3.316   4.772 -2.3644 -0.3523  0.7536
14905TIP3    H266207   5.248   3.289   4.625 -0.4534  4.0806  0.1394
14906TIP3   OH266208   4.345   1.409  16.841  0.1491  0.0115 -0.4576
14906TIP3    H166209   4.309   1.394  16.928 -1.3495  1.6067 -0.7428
14906TIP3    H266210   4.283   1.366  16.782  1.8590 -2.2574 -0.7682
14907TIP3   OH266211   1.904   6.584  10.765  0.7528 -0.4142  0.4048
14907TIP3    H166212   1.815   6.557  10.742  0.6117  0.2923  0.1163
14907TIP3    H266213   1.892   6.665  10.815  1.3204  0.9047 -1.4784
14908TIP3   OH266214   5.206   4.441   5.784  0.3574 -0.4991  0.2277
14908TIP3    H166215   5.276   4.376   5.796  1.1580  0.2596 -0.2842
14908TIP3    H266216   5.251   4.522   5.763 -0.6620  0.1374  0.4162
14909TIP3   OH266217   5.896   4.594  14.215 -0.2258  0.1903 -0.2993
14909TIP3    H166218   5.914   4.598  14.121  0.7544 -0.3099 -0.1440
14909TIP3    H266219   5.844   4.514  14.225  0.6746 -0.4145 -0.2806
14910TIP3   OH266220   3.226   1.711   2.075 -0.1297  0.3715 -0.3159
14910TIP3    H166221   3.215   1.618   2.055 -0.3827  0.5121 -0.8386
14910TIP3    H266222   3.315   1.731   2.046 -0.2083  0.3800 -0.5543
14911TIP3   OH266223   0.272   2.572   2.535  0.0754  0.5745 -0.0892
14911TIP3    H166224   0.329   2.519   2.479  0.3307  1.7539 -0.9753
14911TIP3    H266225   0.235   2.638   2.477 -2.9721 -0.6764  0.2319
14912TIP3   OH266226   2.349   5.177  14.472 -0.1694  0.5430 -0.0661
14912TIP3    H166227   2.432   5.147  14.509 -0.6893 -1.1338 -0.1563
14912TIP3    H266228   2.370   5.197  14.380  0.5312  2.0623  0.3978
14913TIP3   OH266229   6.521   5.495   3.089  0.1296 -0.0114  0.1416
14913TIP3    H166230   6.526   5.416   3.143  3.8008 -0.2671 -0.3064
14913TIP3    H266231   6.522   5.464   2.999 -0.3617  0.5233 -0.0562
14914TIP3   OH266232   1.874   2.778   4.515 -0.1469  0.2816  0.0562
14914TIP3    H166233   1.927   2.704   4.545  0.6303  0.8254  0.0472
14914TIP3    H266234   1.784   2.753   4.538 -0.2381 -1.7115 -2.0333
14915TIP3   OH266235   6.618   1.345   2.532  0.2572  0.2416 -0.0670
14915TIP3    H166236   6.617   1.432   2.571 -0.3606 -0.2060  0.9474
14915TIP3    H266237   6.569   1.291   2.593 -1.1806 -0.3827 -1.7176
14916TIP3   OH266238   2.563   1.777  16.419 -0.0136 -0.2034  0.1397
14916TIP3    H166239   2.567   1.740  16.331 -2.9610  0.7366 -0.4959
14916TIP3    H266240   2.479   1.823  16.422 -0.0532 -0.2658  3.4723
14917TIP3   OH266241   6.372   4.109   3.283 -0.0002  0.4694 -0.2564
14917TIP3    H166242   6.380   4.014   3.273 -1.7624  0.1218  1.1681
14917TIP3    H266243   6.311   4.135   3.213  0.0148  0.4668 -0.2706
14918TIP3   OH266244   1.955   5.442  14.241  0.3920  0.4757 -0.0614
14918TIP3    H166245   1.869   5.441  14.282 -0.1575  1.7911 -1.1290
14918TIP3    H266246   1.975   5.349  14.226 -1.0078  0.1655 -0.1545
14919TIP3   OH266247   1.491   3.420  15.657  0.4312  0.2129  0.2621
14919TIP3    H166248   1.584   3.425  15.637  0.5662 -0.3855  0.7456
14919TIP3    H266249   1.465   3.512  15.670  0.7587  0.4588 -0.6965
14920TIP3   OH266250   1.419   0.324  15.082  0.0188  0.1560 -0.5085
14920TIP3    H166251   1.379   0.252  15.130  1.7126  1.6523  3.6636
14920TIP3    H266252   1.503   0.290  15.053  1.0577  0.4567  1.9341
14921TIP3   OH266253   2.854   6.760   6.224 -0.2689 -0.3080 -0.1121
14921TIP3    H166254   2.772   6.787   6.183  0.3557 -0.7941 -1.7888
14921TIP3    H266255   2.831   6.683   6.276 -1.0699  0.2403  0.3645
14922TIP3   OH266256   0.300   1.658  13.213  0.3692 -0.2876 -0.4330
14922TIP3    H166257   0.316   1.599  13.287  1.2642  0.4022 -0.0586
14922TIP3    H266258   0.214   1.633  13.180 -0.6034  0.2248  1.6211
14923TIP3   OH266259   1.623   6.625   5.726  0.1736  0.0982 -0.1628
14923TIP3    H166260   1.708   6.611   5.769 -0.4048 -1.4278  0.5403
14923TIP3    H266261   1.581   6.693   5.779 -0.8863 -2.3522  2.3945
14924TIP3   OH266262   6.353   3.909  12.651 -0.1505 -0.3912  0.2457
14924TIP3    H166263   6.355   4.005  12.652 -1.3608 -0.3551  0.5808
14924TIP3    H266264   6.402   3.884  12.729  0.0036 -0.0423  0.2669
14925TIP3   OH266265   2.782   3.388   5.525  0.0061  0.2003  0.5863
14925TIP3    H166266   2.834   3.406   5.447  0.5193 -1.2483  0.5581
14925TIP3    H266267   2.708   3.336   5.494 -0.7169  1.0389  0.8402
14926TIP3   OH266268   0.466   5.097  11.503 -0.1671  0.1118  0.3368
14926TIP3    H166269   0.475   5.192  11.511 -1.1497  0.4151 -1.6201
14926TIP3    H266270   0.538   5.071  11.445  1.0637 -0.6204  2.1000
14927TIP3   OH266271   0.776   1.004   0.718  0.5075  0.1141 -0.0392
14927TIP3    H166272   0.848   1.021   0.658  0.5673  0.7801  0.2081
14927TIP3    H266273   0.814   1.018   0.805  0.3071 -0.3981  0.1331
14928TIP3   OH266274   0.141   4.107  14.922  0.2736  0.2647  0.1713
14928TIP3    H166275   0.155   4.157  14.841  0.3200 -1.3391 -0.8597
14928TIP3    H266276   0.046   4.096  14.926  0.3936 -1.4743 -0.8627
14929TIP3   OH266277   3.622   4.061  16.010  0.0675 -0.0026 -0.0076
14929TIP3    H166278   3.589   4.093  15.926  1.8671  1.0145 -0.3775
14929TIP3    H266279   3.560   4.094  16.075 -0.4243  0.6404 -0.7933
14930TIP3   OH266280   4.161   4.579  15.833 -0.1550 -0.2023  0.6134
14930TIP3    H166281   4.085   4.597  15.888 -0.4557 -0.3031  0.2346
14930TIP3    H266282   4.198   4.499  15.869 -0.7251 -0.6263  0.2835
14931TIP3   OH266283   3.399   3.093  16.627 -0.3439 -0.2427  0.0491
14931TIP3    H166284   3.484   3.112  16.666  0.0287  1.2815 -1.3792
14931TIP3    H266285   3.343   3.070  16.702  0.7995  0.7455  1.2606
14932TIP3   OH266286   5.946   2.234   2.995 -0.0405  0.3058 -0.1712
14932TIP3    H166287   5.878   2.300   2.983  0.0625  0.1345 -1.9838
14932TIP3    H266288   6.028   2.283   2.990  0.0009  0.3922  1.1500
14933TIP3   OH266289   6.116   1.522  13.355 -0.3133  0.4922  0.4136
14933TIP3    H166290   6.083   1.606  13.388 -0.2915  0.3154  0.8940
14933TIP3    H266291   6.087   1.458  13.420 -0.8567  0.0347 -0.2673
14934TIP3   OH266292   5.849   1.779  13.149 -0.4747 -0.2993 -0.0152
14934TIP3    H166293   5.825   1.712  13.085  0.8016 -0.1870 -0.6393
14934TIP3    H266294   5.767   1.825  13.168 -0.8806 -0.3338 -1.5758
14935TIP3   OH266295   1.516   1.526  15.925  0.1414  0.6105 -0.3662
14935TIP3    H166296   1.546   1.476  15.849 -1.2541 -0.0640 -0.5072
14935TIP3    H266297   1.588   1.520  15.988  0.8683  0.2561 -1.2122
14936TIP3   OH266298   1.185   0.377   4.924 -0.4255 -0.3796 -0.0222
14936TIP3    H166299   1.096   0.382   4.891 -0.8797  1.1098  1.3077
14936TIP3    H266300   1.177   0.332   5.008 -0.0118  0.2093  0.3440
14937TIP3   OH266301   6.600   2.431  15.159 -0.1628  0.2664 -0.8809
14937TIP3    H166302   6.672   2.438  15.097  0.8421  1.0750  0.3236
14937TIP3    H266303   6.612   2.347  15.202  0.6337  0.7975 -0.0320
14938TIP3   OH266304   1.884   6.432  11.806  0.1197 -0.1483 -0.5185
14938TIP3    H166305   1.798   6.467  11.828  0.3044 -0.3509  0.6046
14938TIP3    H266306   1.872   6.388  11.722 -1.0873 -0.9296  0.0364
14939TIP3   OH266307   0.035   4.455  12.837  0.1143  0.5329 -0.3416
14939TIP3    H166308   0.098   4.510  12.884  0.7433  1.0121 -1.6832
14939TIP3    H266309  -0.045   4.459  12.889  1.4568 -0.9978  2.0443
14940TIP3   OH266310   4.710   5.343   3.546 -0.2253 -0.4573 -0.4631
14940TIP3    H166311   4.719   5.277   3.615 -0.1022 -0.2430 -0.2723
14940TIP3    H266312   4.791   5.337   3.496  1.1362  1.5237  1.2997
14941TIP3   OH266313   0.828   6.181   4.300 -0.6325 -0.2125 -0.1465
14941TIP3    H166314   0.880   6.240   4.354 -0.7116 -0.2421 -0.0370
14941TIP3    H266315   0.796   6.236   4.228  0.8064 -0.5331 -1.0644
14942TIP3   OH266316   0.011   2.931  16.598 -0.4010  0.2740 -0.7615
14942TIP3    H166317   0.077   2.969  16.539 -1.3020  0.4497 -1.6828
14942TIP3    H266318  -0.044   2.877  16.541  0.2570 -1.6982  0.3554
14943TIP3   OH266319   0.365   2.416  10.282 -0.0086  0.9303 -0.1124
14943TIP3    H166320   0.378   2.363  10.361 -1.5968  1.4957  0.5822
14943TIP3    H266321   0.444   2.403  10.231  0.1511 -1.1790  0.5664
14944TIP3   OH266322   0.644   5.536   0.298 -0.3667 -0.0405 -0.4874
14944TIP3    H166323   0.575   5.478   0.265 -1.4251  0.2785  1.0121
14944TIP3    H266324   0.618   5.554   0.389  0.9014  1.3191 -0.3518
14945TIP3   OH266325   1.747   0.331  16.330  0.6236  0.3565 -0.1873
14945TIP3    H166326   1.708   0.355  16.414  0.1268 -0.5398 -0.1462
14945TIP3    H266327   1.839   0.313  16.350  1.1010  2.4365 -0.2722
14946TIP3   OH266328   0.617   0.262   6.496 -0.4822 -0.3979  0.1177
14946TIP3    H166329   0.544   0.315   6.526 -2.3398 -3.5146  1.5920
14946TIP3    H266330   0.687   0.279   6.560 -0.2839  1.6535 -0.5810
14947TIP3   OH266331   6.138   4.411  12.757 -0.0823  0.2823  0.4658
14947TIP3    H166332   6.142   4.499  12.795  0.0324 -0.2586  1.7342
14947TIP3    H266333   6.103   4.356  12.826 -0.7450 -0.5830 -0.5248
14948TIP3   OH266334   4.786   0.853  13.839 -0.4779  0.3481  0.1490
14948TIP3    H166335   4.787   0.894  13.753 -0.1240  2.2595  1.0080
14948TIP3    H266336   4.756   0.763  13.823 -0.8632  0.7950 -1.8788
14949TIP3   OH266337   4.241   6.471  17.051 -0.1617 -0.7240 -0.0045
14949TIP3    H166338   4.164   6.497  17.102  0.9098  1.3142  0.6712
14949TIP3    H266339   4.209   6.463  16.961 -1.3723 -1.0347  0.4287
14950TIP3   OH266340   1.889   0.110   3.579 -0.0716  0.5761 -0.5237
14950TIP3    H166341   1.947   0.075   3.646  0.6531 -0.3739 -1.6140
14950TIP3    H266342   1.947   0.158   3.519 -0.4234 -0.2140 -1.5162
14951TIP3   OH266343   5.701   0.052   0.142  0.3129  0.1279  0.3955
14951TIP3    H166344   5.762   0.050   0.216  0.3235  0.1880  0.3882
14951TIP3    H266345   5.619   0.082   0.180 -0.0583 -1.1782  0.6630
14952TIP3   OH266346   0.106   0.884  16.059  0.2730  0.0292  0.6228
14952TIP3    H166347   0.076   0.801  16.097 -0.3958 -1.1845 -2.2662
14952TIP3    H266348   0.189   0.863  16.017 -0.6761  0.2946 -1.5507
14953TIP3   OH266349   1.871   0.400  11.823  0.2719  0.4012  0.1432
14953TIP3    H166350   1.964   0.378  11.829 -0.0002 -0.8530  0.1322
14953TIP3    H266351   1.861   0.480  11.874  1.5345  1.1404 -0.7083
14954TIP3   OH266352   6.553   2.226   4.846  0.0592 -0.3531  0.1139
14954TIP3    H166353   6.508   2.144   4.827 -1.7724 -0.1953  2.9564
14954TIP3    H266354   6.612   2.205   4.918 -0.8009  0.8202  1.2289
14955TIP3   OH266355   2.770   2.934  11.318  0.0863  0.2319 -0.0738
14955TIP3    H166356   2.725   2.856  11.350 -1.9511  1.0053 -0.9253
14955TIP3    H266357   2.706   3.005  11.326  1.2143  1.4361 -1.1241
14956TIP3   OH266358   5.152   1.687   5.659 -0.3015 -0.0971  0.0042
14956TIP3    H166359   5.228   1.734   5.694  0.9659 -0.4676 -2.1041
14956TIP3    H266360   5.187   1.602   5.631 -1.6158 -0.4982 -0.4888
14957TIP3   OH266361   5.428   4.087   1.495 -0.6390  0.2452 -0.1371
14957TIP3    H166362   5.377   4.039   1.430 -0.0754  1.0222 -1.1739
14957TIP3    H266363   5.507   4.113   1.449  0.0947  0.2139  1.0686
14958TIP3   OH266364   0.420   3.407   0.374 -0.0306  0.0578 -0.1238
14958TIP3    H166365   0.427   3.387   0.280  0.5084 -0.5078  0.0234
14958TIP3    H266366   0.506   3.443   0.396 -0.2419  0.4197  0.1028
14959TIP3   OH266367   6.696   4.307  13.940 -0.2632 -0.2629 -0.2362
14959TIP3    H166368   6.624   4.244  13.940  1.4420 -2.3405 -1.6953
14959TIP3    H266369   6.734   4.300  13.853 -0.0063  2.9017 -0.4842
14960TIP3   OH266370   3.149   6.497  14.967  0.2325 -0.3120  0.3808
14960TIP3    H166371   3.063   6.456  14.953  0.6170 -0.6155 -1.2559
14960TIP3    H266372   3.197   6.481  14.886  2.1242 -0.7800  1.5288
14961TIP3   OH266373   6.079   3.629  11.968 -0.5269 -0.3937 -0.3056
14961TIP3    H166374   6.158   3.593  11.928  0.4756  2.2518 -0.9576
14961TIP3    H266375   6.008   3.597  11.914  0.3469 -0.9455 -1.1661
14962TIP3   OH266376   1.232   3.199   5.130  0.4263 -0.0609 -0.6901
14962TIP3    H166377   1.235   3.105   5.149 -0.4281  0.2856  1.4250
14962TIP3    H266378   1.145   3.213   5.093  1.2381 -0.3376 -2.9234
14963TIP3   OH266379   1.314   4.073   5.640 -0.0025 -0.7139 -0.1269
14963TIP3    H166380   1.310   3.982   5.667 -1.2846 -0.7054 -0.2350
14963TIP3    H266381   1.223   4.103   5.642  0.6106  1.4507  2.8709
14964TIP3   OH266382   5.746   2.966  16.772 -0.4583 -0.0102  0.3273
14964TIP3    H166383   5.664   2.960  16.820 -1.0534 -2.1713 -0.8059
14964TIP3    H266384   5.748   2.887  16.718  2.2259  0.1220  0.0721
14965TIP3   OH266385   2.041   3.003   2.226  0.7179  0.4234 -0.0703
14965TIP3    H166386   1.977   3.073   2.216  0.2605 -0.0591 -0.6271
14965TIP3    H266387   2.064   2.978   2.136  0.3095 -0.6308  0.0974
14966TIP3   OH266388   5.298   1.909   5.107 -0.3630 -0.2047 -0.0509
14966TIP3    H166389   5.272   2.001   5.111  2.2967  0.5816  2.5233
14966TIP3    H266390   5.242   1.864   5.170 -1.2219 -0.2649 -0.8377
14967TIP3   OH266391   5.604   3.338   0.702  0.0615 -0.4682 -0.5242
14967TIP3    H166392   5.635   3.429   0.709  2.2221 -1.2343  0.9894
14967TIP3    H266393   5.673   3.292   0.655 -1.1336 -1.3218 -1.5141
14968TIP3   OH266394   6.688   0.090   2.100 -0.6816  0.3697  0.3924
14968TIP3    H166395   6.649   0.010   2.135 -1.0372  0.7027  0.7804
14968TIP3    H266396   6.738   0.126   2.174  3.1422 -1.7184 -0.9573
14969TIP3   OH266397   6.689   5.082  16.873 -0.0489 -0.3874  0.0267
14969TIP3    H166398   6.613   5.081  16.931  0.9933 -0.3147  1.4592
14969TIP3    H266399   6.763   5.063  16.931  0.9911 -0.8063 -1.3845
14970TIP3   OH266400   1.473   5.319  11.510  0.0486  0.1754  0.0745
14970TIP3    H166401   1.393   5.370  11.501 -0.9955 -1.4769 -0.4470
14970TIP3    H266402   1.538   5.381  11.544 -1.7964  1.2478  1.8729
14971TIP3   OH266403   0.897   6.045  12.427 -0.3010  0.3152 -0.1621
14971TIP3    H166404   0.922   5.965  12.473 -1.0981 -0.4080 -0.9291
14971TIP3    H266405   0.818   6.075  12.472  0.1089  0.8009  0.2510
14972TIP3   OH266406   2.923   0.563  13.663 -0.3066 -0.3635  0.1677
14972TIP3    H166407   2.908   0.657  13.672  2.0981  0.1859 -0.8161
14972TIP3    H266408   2.976   0.540  13.739  2.2973 -0.0647 -1.4464
14973TIP3   OH266409   4.480   2.371  11.375 -0.4534  0.0943  0.1183
14973TIP3    H166410   4.486   2.397  11.283  1.3544 -1.6103 -0.3183
14973TIP3    H266411   4.432   2.442  11.417 -0.5039  1.3746 -1.9664
14974TIP3   OH266412   5.542   3.956   3.656 -0.1364  0.2181  0.1958
14974TIP3    H166413   5.460   4.005   3.661  0.1320  0.5886  1.4998
14974TIP3    H266414   5.540   3.899   3.734  0.2217 -0.7894 -0.5098
14975TIP3   OH266415   0.456   4.735   2.636 -0.0498 -0.0282 -0.4801
14975TIP3    H166416   0.509   4.686   2.699 -0.3104  1.4554  0.9560
14975TIP3    H266417   0.429   4.669   2.571  0.0343 -1.6623  1.0736
14976TIP3   OH266418   6.461   1.738   4.928 -0.9487  0.5679  0.4461
14976TIP3    H166419   6.394   1.789   4.882 -1.1247 -0.4013 -0.4149
14976TIP3    H266420   6.463   1.774   5.016 -1.8273  1.3350  0.1661
14977TIP3   OH266421   4.466   4.490  11.491 -0.0425  0.0765  0.5381
14977TIP3    H166422   4.389   4.505  11.436  0.3261  0.0660  0.0165
14977TIP3    H266423   4.506   4.576  11.499  0.9628 -0.2271 -0.8028
14978TIP3   OH266424   5.530   5.672  12.596 -0.5262  0.3250  0.4708
14978TIP3    H166425   5.450   5.675  12.649 -0.4752  1.2058  0.5055
14978TIP3    H266426   5.597   5.713  12.651  0.1023 -0.9049  0.6685
14979TIP3   OH266427   2.208   4.253   4.449  0.4347 -0.4679  0.0300
14979TIP3    H166428   2.249   4.294   4.524 -0.3361 -0.0667  0.2509
14979TIP3    H266429   2.242   4.301   4.373  1.4239 -1.0551  0.0859
14980TIP3   OH266430   6.657   2.515  13.081  0.7464 -0.0172  0.3085
14980TIP3    H166431   6.746   2.542  13.061  0.9928 -0.7488  0.4028
14980TIP3    H266432   6.636   2.451  13.013  0.0424  0.6379 -0.1210
14981TIP3   OH266433   5.242   4.166  16.445  0.2194 -0.3668 -0.4017
14981TIP3    H166434   5.229   4.260  16.438 -0.2503 -0.3485  0.4636
14981TIP3    H266435   5.334   4.156  16.470 -0.3289  0.0435  2.0475
14982TIP3   OH266436   4.098   1.687  15.859 -0.3352 -0.1156  0.8327
14982TIP3    H166437   4.040   1.651  15.791  1.2350 -0.9092 -0.1491
14982TIP3    H266438   4.070   1.778  15.867 -0.2774  0.1529 -1.2692
14983TIP3   OH266439   0.536   3.794  15.629  0.0950 -0.5656  0.2513
14983TIP3    H166440   0.534   3.710  15.676  0.1115 -0.2014  0.9124
14983TIP3    H266441   0.574   3.772  15.544  0.1674 -1.2201  0.4413
14984TIP3   OH266442   0.475   4.701   5.196  0.0216  0.1850 -0.5607
14984TIP3    H166443   0.519   4.784   5.177 -2.0211  1.5780  0.3937
14984TIP3    H266444   0.383   4.717   5.172 -0.3761 -1.9249 -0.6407
14985TIP3   OH266445   0.914   0.233  14.414  0.1043 -0.2030  0.4113
14985TIP3    H166446   0.978   0.224  14.485 -0.5888  0.3862  1.1348
14985TIP3    H266447   0.829   0.228  14.458 -0.3947 -1.8720 -0.6353
14986TIP3   OH266448   1.194   0.486  13.447 -0.3405  0.1140 -0.1919
14986TIP3    H166449   1.244   0.532  13.515  1.1819  0.0779 -1.2312
14986TIP3    H266450   1.230   0.519  13.365 -1.2511 -0.7953 -0.9776
14987TIP3   OH266451   5.168   4.846  15.887  0.8981 -0.0452 -0.4559
14987TIP3    H166452   5.263   4.859  15.888  1.1444 -0.4302 -3.9396
14987TIP3    H266453   5.134   4.927  15.848 -0.1492 -0.2272  0.0473
14988TIP3   OH266454   0.657   2.200  14.079  0.0759  0.2643  0.0411
14988TIP3    H166455   0.570   2.194  14.040  0.6131 -1.1476 -1.0883
14988TIP3    H266456   0.712   2.237  14.010  0.3630  1.2188  0.7672
14989TIP3   OH266457   5.746   1.633  11.915 -0.1199  0.2973 -0.2165
14989TIP3    H166458   5.836   1.634  11.947 -0.0319  1.1813 -0.4517
14989TIP3    H266459   5.712   1.720  11.936 -0.8770  0.0217 -0.2566
14990TIP3   OH266460   6.304   6.077   2.996  0.3327 -0.1600 -0.0963
14990TIP3    H166461   6.294   6.107   2.905  2.4224  1.6212  0.1728
14990TIP3    H266462   6.226   6.107   3.041  0.2977  0.9076 -0.8487
14991TIP3   OH266463   5.380   0.063   6.238 -0.1342  0.2898  0.0293
14991TIP3    H166464   5.398   0.146   6.281 -0.9350  0.2348  0.4964
14991TIP3    H266465   5.391  -0.003   6.306  2.4884 -0.2304 -0.8080
14992TIP3   OH266466   5.435   3.810   0.831  0.4186 -0.3872  0.1128
14992TIP3    H166467   5.368   3.742   0.828  0.7684 -0.8990  2.3363
14992TIP3    H266468   5.427   3.855   0.746 -0.6700 -2.3485 -0.8968
14993TIP3   OH266469   2.164   3.780   4.622  0.0849 -0.1047  0.3406
14993TIP3    H166470   2.143   3.852   4.682  1.1820 -0.6141  1.3547
14993TIP3    H266471   2.089   3.778   4.562 -0.7927  0.7606  1.3502
14994TIP3   OH266472   0.366   1.123  15.573  0.0762 -0.1669 -0.3591
14994TIP3    H166473   0.306   1.191  15.543  0.0893 -0.7566 -1.8003
14994TIP3    H266474   0.390   1.149  15.662 -0.2252  1.4837 -0.7426
14995TIP3   OH266475   0.990   6.376   4.429  0.1254  0.1894  0.1724
14995TIP3    H166476   1.053   6.429   4.479  0.5557 -0.7430  0.6491
14995TIP3    H266477   1.045   6.314   4.381 -0.4246 -0.7949  0.7796
14996TIP3   OH266478   5.085   5.213   5.637 -0.1731  0.2353  0.6422
14996TIP3    H166479   5.033   5.268   5.696  1.4164  2.1017  0.4250
14996TIP3    H266480   5.134   5.276   5.583  1.2050 -1.4177 -0.1289
14997TIP3   OH266481   1.910   0.062  16.506 -0.3319  0.2878  0.5317
14997TIP3    H166482   1.951   0.110  16.577  0.1088 -1.8743  1.8452
14997TIP3    H266483   1.973  -0.007  16.485 -1.2133 -0.1563 -0.7687
14998TIP3   OH266484   2.880   4.539   4.264 -0.0312  0.0765 -0.6432
14998TIP3    H166485   2.970   4.570   4.276  0.4337 -0.8914 -1.4603
14998TIP3    H266486   2.868   4.475   4.335 -1.4521  2.9007  1.8972
14999TIP3   OH266487   1.432   5.057   2.073  0.2175  0.1717 -0.2846
14999TIP3    H166488   1.391   5.097   1.996 -0.4492  2.3754  1.1108
14999TIP3    H266489   1.455   5.131   2.128  0.6941 -1.3395  1.6374
15000TIP3   OH266490   6.464   0.773  11.261  0.5034 -0.2861 -0.2825
15000TIP3    H166491   6.439   0.687  11.225  2.2979 -1.3611  0.8875
15000TIP3    H266492   6.403   0.786  11.334 -2.4708  1.4277 -2.8146
15001TIP3   OH266493   3.789   3.218  16.983  0.5894  0.3362 -0.5830
15001TIP3    H166494   3.861   3.257  17.033  0.0732  0.1268  0.3631
15001TIP3    H266495   3.730   3.291  16.964  1.1252  0.5402 -1.5188
15002TIP3   OH266496   2.391   1.988   3.940 -0.0458 -0.1086  0.3141
15002TIP3    H166497   2.454   1.924   3.907 -0.5625 -2.3784  3.3382
15002TIP3    H266498   2.305   1.949   3.920 -0.3801  0.2454  1.0218
15003TIP3   OH266499   2.188   0.086  12.616  0.3542  0.2979 -0.4905
15003TIP3    H166500   2.109   0.035  12.636 -0.4130  1.0299 -1.5490
15003TIP3    H266501   2.195   0.150  12.687  0.6514 -0.4960  0.2077
15004TIP3   OH266502   0.177   5.220  16.331 -0.0010 -0.4057 -0.6598
15004TIP3    H166503   0.096   5.226  16.381  0.3442  1.4174 -0.2573
15004TIP3    H266504   0.162   5.148  16.270 -2.8304  1.2356 -2.1246
15005TIP3   OH266505   0.674   2.153   3.297 -0.1705  0.0494  0.2911
15005TIP3    H166506   0.594   2.205   3.305 -0.1807  0.3939 -1.6113
15005TIP3    H266507   0.694   2.126   3.387 -2.0991  0.4164  0.8848
15006TIP3   OH266508   5.925   5.312  16.275 -0.4917 -0.1215 -0.9208
15006TIP3    H166509   5.964   5.396  16.254 -0.5221  0.3638  0.8434
15006TIP3    H266510   5.836   5.334  16.305  0.6290 -0.3086  3.0385
15007TIP3   OH266511   1.826   3.334  14.522  0.2279  0.1254 -0.7804
15007TIP3    H166512   1.890   3.270  14.555  0.0194  0.0425 -0.5340
15007TIP3    H266513   1.741   3.301  14.551  0.0912  0.3527 -0.9163
15008TIP3   OH266514   2.432   2.193   1.302  0.0115  0.3332  0.5957
15008TIP3    H166515   2.413   2.161   1.213 -0.3313 -1.1297  1.1622
15008TIP3    H266516   2.461   2.283   1.289  3.1106 -0.7467 -1.3598
15009TIP3   OH266517   3.558   1.996  17.011  0.3393 -0.5438 -0.1684
15009TIP3    H166518   3.626   1.960  16.954 -0.3515 -0.0282 -1.3476
15009TIP3    H266519   3.575   2.090  17.011  0.0227 -0.4864  0.0733
15010TIP3   OH266520   4.091   6.546  15.904  0.4575  0.0385 -0.4293
15010TIP3    H166521   4.135   6.503  15.977  2.3302 -0.6830 -1.9033
15010TIP3    H266522   4.036   6.477  15.866  1.5237 -0.3723 -1.2682
15011TIP3   OH266523   6.460   3.302   1.748  0.0531 -0.2758 -0.2150
15011TIP3    H166524   6.532   3.299   1.686  0.8157  0.2140  0.6315
15011TIP3    H266525   6.488   3.245   1.820  0.6153  1.6579  1.1653
15012TIP3   OH266526   5.507   2.896   5.322 -0.2512  0.4006  0.0236
15012TIP3    H166527   5.600   2.891   5.343 -0.0551  1.6555 -0.4166
15012TIP3    H266528   5.502   2.875   5.228 -0.3943  0.4366  0.0224
15013TIP3   OH266529   2.414   3.500   3.985 -0.1899 -0.0328  0.4464
15013TIP3    H166530   2.456   3.554   4.052 -1.1148  1.4721 -0.1265
15013TIP3    H266531   2.387   3.563   3.918  0.2531 -1.4379 -1.1035
15014TIP3   OH266532   5.612   3.109   5.629  0.3074 -0.0310  0.2292
15014TIP3    H166533   5.598   3.073   5.541  3.8428  1.2312 -1.0004
15014TIP3    H266534   5.600   3.203   5.617  1.1615  0.1815  1.0169
15015TIP3   OH266535   5.579   4.612  12.065 -0.3141 -0.7543 -0.0143
15015TIP3    H166536   5.561   4.530  12.020 -1.1428 -0.4594 -0.2403
15015TIP3    H266537   5.557   4.594  12.157 -2.1395 -0.3052 -0.3395
15016TIP3   OH266538   0.542   3.266  13.608  0.0760  0.1336 -0.3585
15016TIP3    H166539   0.517   3.186  13.652  1.6540 -1.3669 -2.0006
15016TIP3    H266540   0.526   3.335  13.672  0.0802 -1.6455  1.6610
15017TIP3   OH266541   5.712   1.641  15.030 -0.0851  0.0813 -0.2754
15017TIP3    H166542   5.698   1.735  15.030  0.9067  0.2396 -0.7482
15017TIP3    H266543   5.734   1.620  15.121  1.2628  0.5693 -0.4643
15018TIP3   OH266544   5.202   4.489   5.034 -0.3471  0.8454 -0.0174
15018TIP3    H166545   5.176   4.405   5.072 -0.4868  0.2941 -1.2705
15018TIP3    H266546   5.294   4.500   5.059  0.1114 -0.4170 -1.0571
15019TIP3   OH266547   2.262   5.867   0.919  0.0293  0.0071  0.1986
15019TIP3    H166548   2.326   5.858   0.990 -0.2076  1.5706  0.6428
15019TIP3    H266549   2.238   5.959   0.920 -0.0611  0.0373 -1.8803
15020TIP3   OH266550   4.280   2.163   1.687  0.0104 -0.3400 -0.2996
15020TIP3    H166551   4.286   2.067   1.690 -0.5584 -0.3559  1.4788
15020TIP3    H266552   4.362   2.193   1.726  0.1682 -0.0847 -0.8136
15021TIP3   OH266553   4.231   5.826  11.702 -0.4964 -0.9065  0.3862
15021TIP3    H166554   4.228   5.921  11.703 -2.3448 -0.9435  0.9749
15021TIP3    H266555   4.217   5.800  11.793  0.5649 -1.7521  0.3346
15022TIP3   OH266556   3.303   0.602   6.378  0.4503  0.2937 -0.5070
15022TIP3    H166557   3.331   0.539   6.312  0.1755 -1.2566  0.7871
15022TIP3    H266558   3.367   0.593   6.449 -0.1474  0.7595  0.1098
15023TIP3   OH266559   1.228   6.625   6.032 -0.1708 -0.0001 -0.0245
15023TIP3    H166560   1.246   6.594   6.121 -1.3524 -1.8051 -0.3715
15023TIP3    H266561   1.133   6.635   6.029 -0.1792 -0.3249 -1.1907
15024TIP3   OH266562   4.772   3.147   5.818 -0.1877 -0.4730 -0.6363
15024TIP3    H166563   4.800   3.189   5.899 -0.6603 -1.6155  0.1338
15024TIP3    H266564   4.680   3.170   5.809  0.4130  1.6500 -2.1475
15025TIP3   OH266565   3.675   4.822  10.881  0.0801  0.0576 -0.2503
15025TIP3    H166566   3.720   4.738  10.889  1.3240  0.7905  0.7282
15025TIP3    H266567   3.659   4.831  10.787 -0.6959 -1.5662 -0.3109
15026TIP3   OH266568   2.032   0.032   4.999  0.6558  0.2526 -0.1040
15026TIP3    H166569   1.965   0.037   4.930  1.6206 -0.5554 -1.1328
15026TIP3    H266570   2.113   0.061   4.957  1.3027 -0.4279  0.6293
15027TIP3   OH266571   2.771   0.222   6.435 -0.0188  0.3105  0.2692
15027TIP3    H166572   2.751   0.224   6.529 -1.7753 -4.0978  0.2412
15027TIP3    H266573   2.685   0.211   6.393  0.9447 -0.3172 -1.6412
15028TIP3   OH266574   1.153   0.677   6.651  0.2054  0.6295 -0.0396
15028TIP3    H166575   1.203   0.659   6.572 -0.1396  0.7691 -0.2895
15028TIP3    H266576   1.067   0.704   6.620 -0.1132  0.1382  0.3871
15029TIP3   OH266577   1.848   0.129  16.089  0.1622  0.2789 -0.0802
15029TIP3    H166578   1.828   0.080  16.169  0.3598  1.1905  0.5521
15029TIP3    H266579   1.771   0.184  16.076  1.5834  2.8994  1.6625
15030TIP3   OH266580   5.063   3.199  13.227  0.2413  0.0236  0.1120
15030TIP3    H166581   5.049   3.167  13.138  0.1264  2.8507 -0.9799
15030TIP3    H266582   5.106   3.284  13.216 -2.9850  2.1995  2.5464
15031TIP3   OH266583   0.277   4.375  12.660  0.0309 -0.2975  0.6303
15031TIP3    H166584   0.201   4.385  12.717  0.1464 -0.6295  0.8445
15031TIP3    H266585   0.323   4.298  12.694  0.5200 -0.0404  0.5700
15032TIP3   OH266586   0.932   6.111  13.151 -0.4113  0.2183 -0.5189
15032TIP3    H166587   0.863   6.165  13.112 -2.5703 -2.9196 -1.4231
15032TIP3    H266588   0.906   6.102  13.242 -1.6316 -1.4061 -0.9773
15033TIP3   OH266589   5.272   5.406  14.624  0.1586  0.4822 -0.5928
15033TIP3    H166590   5.351   5.389  14.676  0.2165  0.9940 -0.5027
15033TIP3    H266591   5.301   5.399  14.533  0.0303 -0.5354 -0.5670
15034TIP3   OH266592   6.540   2.170   3.648 -0.3581 -0.1655  0.3204
15034TIP3    H166593   6.628   2.209   3.645 -0.1612 -0.5580  0.8444
15034TIP3    H266594   6.556   2.076   3.653 -0.8216 -0.2879 -0.3619
15035TIP3   OH266595   6.462   2.175  13.942  0.0855 -0.0000  0.2886
15035TIP3    H166596   6.463   2.222  13.858 -0.5203  0.7545  0.6950
15035TIP3    H266597   6.374   2.136  13.946  0.3540 -0.6244  0.2615
15036TIP3   OH266598   6.470   0.271   4.705 -0.1372 -0.1241 -0.0160
15036TIP3    H166599   6.499   0.223   4.783 -0.4788 -0.6267 -0.1994
15036TIP3    H266600   6.406   0.214   4.663 -1.4247  0.9686  0.3782
15037TIP3   OH266601   4.337   1.478   5.558  0.5125 -0.0651 -0.1340
15037TIP3    H166602   4.338   1.545   5.626  1.0157  1.7225 -1.8015
15037TIP3    H266603   4.291   1.404   5.597  0.1738  1.1407  1.8810
15038TIP3   OH266604   4.275   3.091   2.548 -0.1234 -0.4954  0.4018
15038TIP3    H166605   4.345   3.091   2.482 -2.4435  0.9204 -2.3272
15038TIP3    H266606   4.211   3.028   2.515 -2.5527  2.1268 -0.2947
15039TIP3   OH266607   2.551   5.775   0.998 -0.4429  0.5407  0.3820
15039TIP3    H166608   2.625   5.737   0.951  1.2627  1.1804  2.4187
15039TIP3    H266609   2.528   5.709   1.063 -1.2649  0.6179  0.1776
15040TIP3   OH266610   2.292   4.703   0.761 -0.1539 -0.0550 -0.0951
15040TIP3    H166611   2.260   4.613   0.760 -0.6420  0.0880  0.8228
15040TIP3    H266612   2.217   4.755   0.793  0.0719  0.6965 -0.7399
15041TIP3   OH266613   6.212   6.673  14.306 -0.0935  0.0304  0.7953
15041TIP3    H166614   6.176   6.603  14.253 -2.1322  0.5785  1.3787
15041TIP3    H266615   6.214   6.749  14.248  1.1360 -0.2274  0.4698
15042TIP3   OH266616   0.995   2.045  12.472 -0.1557  0.6950  0.6042
15042TIP3    H166617   0.960   2.003  12.551  0.4058  0.6164  0.8124
15042TIP3    H266618   1.090   2.039  12.481 -0.0843  0.8148 -0.0114
15043TIP3   OH266619   6.095   6.840   3.735 -0.3111 -0.2876 -0.0677
15043TIP3    H166620   6.048   6.854   3.653  0.6844 -0.3535 -0.6641
15043TIP3    H266621   6.086   6.923   3.782 -0.3725 -0.0431 -0.5098
15044TIP3   OH266622   5.310   5.271  12.080  0.3066 -0.0468 -0.0292
15044TIP3    H166623   5.335   5.196  12.026  0.1076  1.0900 -1.7660
15044TIP3    H266624   5.393   5.311  12.105  0.3757  0.1809 -0.6123
15045TIP3   OH266625   5.213   5.801  12.490  0.3373  0.2412 -0.2118
15045TIP3    H166626   5.202   5.706  12.500  0.3929  0.2037 -0.5216
15045TIP3    H266627   5.176   5.837  12.571  0.9623 -0.0875  0.2370
15046TIP3   OH266628   2.436   0.794  14.851 -0.1479 -0.7336  0.0326
15046TIP3    H166629   2.405   0.862  14.911  0.4791 -0.1406 -0.3022
15046TIP3    H266630   2.407   0.712  14.891 -1.8998 -0.2386 -0.1146
15047TIP3   OH266631   0.608   2.164   1.781 -1.2131 -0.2985 -0.2622
15047TIP3    H166632   0.630   2.102   1.712  0.1832 -2.0751  1.6713
15047TIP3    H266633   0.690   2.175   1.830 -1.9308  1.6193  0.5873
15048TIP3   OH266634   0.212   5.974  11.881  0.3103 -0.6528 -0.2633
15048TIP3    H166635   0.246   5.904  11.937  1.3195 -0.8882 -1.1130
15048TIP3    H266636   0.277   5.980  11.811  1.8766  3.1156  1.2619
15049TIP3   OH266637   1.387   4.636   0.288  0.2150 -0.0907  0.0272
15049TIP3    H166638   1.369   4.558   0.340 -0.7493 -0.0014 -0.1534
15049TIP3    H266639   1.419   4.602   0.204  2.0775 -0.2273  0.7515
15050TIP3   OH266640   1.299   2.263  11.290  0.0402  0.0171  0.1607
15050TIP3    H166641   1.291   2.269  11.195 -2.6020 -2.9295 -0.0047
15050TIP3    H266642   1.374   2.205  11.304 -1.4174 -2.1457 -0.4177
15051TIP3   OH266643   4.441   3.140  13.096  0.5738  0.4625 -0.8449
15051TIP3    H166644   4.398   3.111  13.016 -0.7908  0.8599 -0.2782
15051TIP3    H266645   4.530   3.105  13.089  0.3845  0.2097 -2.3693
15052TIP3   OH266646   0.474   0.153   4.116 -0.2209 -0.3838 -0.7298
15052TIP3    H166647   0.460   0.188   4.204  0.5279 -1.8009 -0.0003
15052TIP3    H266648   0.437   0.065   4.120  1.3545 -1.1140 -1.2795
15053TIP3   OH266649   4.720   3.950   2.354  0.1995 -0.1366 -0.3193
15053TIP3    H166650   4.789   3.887   2.374  0.5989  0.6133  0.7751
15053TIP3    H266651   4.755   4.034   2.384 -2.1631 -0.0813  2.7954
15054TIP3   OH266652   4.268   1.633  13.317  0.5033 -0.5359  0.1244
15054TIP3    H166653   4.349   1.591  13.290 -0.0975 -2.1098  0.6450
15054TIP3    H266654   4.201   1.595  13.260  0.0472  0.3395  0.0615
15055TIP3   OH266655   3.868   1.861   4.954  0.2684 -0.2384 -0.3171
15055TIP3    H166656   3.789   1.881   4.904  1.6162  1.4346 -1.9320
15055TIP3    H266657   3.932   1.835   4.889  1.5049 -0.0320  0.7577
15056TIP3   OH266658   1.120   3.386  14.772  0.3591 -0.6733 -0.3879
15056TIP3    H166659   1.112   3.390  14.677 -0.2491 -0.1280 -0.3225
15056TIP3    H266660   1.031   3.405  14.804  0.7053 -0.1641  0.2967
15057TIP3   OH266661   0.896   5.749  11.401  0.7287  0.0585  0.1913
15057TIP3    H166662   0.892   5.658  11.370 -1.4941  0.4061 -0.7637
15057TIP3    H266663   0.846   5.798  11.336 -1.8713  1.2485  2.8714
15058TIP3   OH266664   3.209   1.301   0.559 -0.9653 -0.0882  0.5243
15058TIP3    H166665   3.157   1.340   0.630  0.3335  0.7253  1.0541
15058TIP3    H266666   3.172   1.339   0.479 -1.7814 -0.2311  0.8246
15059TIP3   OH266667   3.836   4.942   3.943 -0.4090 -0.0631  0.5102
15059TIP3    H166668   3.893   4.954   3.867 -1.7099 -0.8034 -0.6276
15059TIP3    H266669   3.888   4.973   4.017  1.0192  0.3761 -0.6294
15060TIP3   OH266670   2.860   5.475  15.855  0.6163 -0.6072  0.1755
15060TIP3    H166671   2.844   5.569  15.850  0.6243 -0.6630 -1.0371
15060TIP3    H266672   2.896   5.462  15.943 -2.7472 -0.0104  1.7735
15061TIP3   OH266673   0.626   0.824  13.104 -0.1489 -0.1953 -0.1913
15061TIP3    H166674   0.684   0.773  13.161 -0.5925  1.6581  2.0560
15061TIP3    H266675   0.681   0.850  13.031  2.3688  2.4559  2.3942
15062TIP3   OH266676   5.324   3.828  14.871 -0.2007 -0.0867 -0.2406
15062TIP3    H166677   5.419   3.817  14.879 -0.3152 -2.6983 -1.5687
15062TIP3    H266678   5.313   3.918  14.840  1.9086 -0.1376 -1.3129
15063TIP3   OH266679   4.234   6.488   5.699 -0.4086  0.4813  0.4720
15063TIP3    H166680   4.244   6.393   5.688 -0.2270  0.4063  1.2343
15063TIP3    H266681   4.286   6.526   5.628  1.3025  0.0299  1.4186
15064TIP3   OH266682   2.294   4.015  12.904 -0.3550 -0.6501  0.6113
15064TIP3    H166683   2.295   4.016  12.808 -0.3570  1.9162  0.5816
15064TIP3    H266684   2.202   4.020  12.927 -0.3772 -1.6601  0.7720
15065TIP3   OH266685   0.511   3.494  14.464  0.4051 -0.6412  0.3498
15065TIP3    H166686   0.582   3.556  14.481  0.3209 -0.3685 -0.2728
15065TIP3    H266687   0.489   3.459  14.551 -0.4634  1.2313  0.9468
15066TIP3   OH266688   4.011   6.770  15.739  0.2113  0.1854  0.1663
15066TIP3    H166689   4.073   6.712  15.785  0.6160 -0.9106 -1.6317
15066TIP3    H266690   4.042   6.769  15.648 -1.6877  0.6807 -0.5212
15067TIP3   OH266691   3.917   0.131   1.653  0.0429  0.3362  0.2689
15067TIP3    H166692   3.975   0.094   1.719 -0.4555 -1.3978 -0.2104
15067TIP3    H266693   3.852   0.180   1.703 -0.1128 -0.6328  1.0529
15068TIP3   OH266694   1.586   5.057   1.093  0.0126 -0.2504 -0.3344
15068TIP3    H166695   1.579   5.100   1.179  2.0063  2.2840 -1.3012
15068TIP3    H266696   1.496   5.040   1.067 -0.6746 -0.2996  1.8682
15069TIP3   OH266697   6.788   6.312   3.731  0.5200  0.3674  0.3000
15069TIP3    H166698   6.697   6.335   3.712  0.4690 -0.1629 -0.1293
15069TIP3    H266699   6.834   6.328   3.649  0.3246 -1.8232 -0.3161
15070TIP3   OH266700   1.844   3.661  12.621  0.0708  0.1767 -0.0668
15070TIP3    H166701   1.843   3.601  12.547 -2.7836 -0.6815  0.5225
15070TIP3    H266702   1.795   3.737  12.591  0.2972  0.5311  0.4390
15071TIP3   OH266703   6.026   1.706   0.234  0.1216  0.1479  0.1555
15071TIP3    H166704   6.035   1.735   0.325 -0.5544 -0.1714  0.3337
15071TIP3    H266705   5.936   1.730   0.210  0.1325 -0.2152 -0.2631
15072TIP3   OH266706   1.184   3.125  14.294  0.0050  0.1262  0.5779
15072TIP3    H166707   1.126   3.050  14.281  1.9509 -1.8058  2.2903
15072TIP3    H266708   1.272   3.088  14.288  1.0421  2.1911  1.9615
15073TIP3   OH266709   0.177   1.703  11.068 -0.3448  0.4576 -0.7540
15073TIP3    H166710   0.138   1.768  11.127  0.6590  0.6463 -0.2699
15073TIP3    H266711   0.103   1.668  11.019 -1.1943  0.4194  0.4966
15074TIP3   OH266712   1.939   5.800   3.515 -0.3324 -0.7788 -0.0942
15074TIP3    H166713   2.030   5.826   3.525 -0.9290  0.7832  2.1897
15074TIP3    H266714   1.939   5.705   3.524  0.9022 -0.6355  1.9543
15075TIP3   OH266715   2.606   5.166  12.681  0.0562  0.0443 -0.4395
15075TIP3    H166716   2.699   5.153  12.662 -0.3142 -0.7328 -1.8599
15075TIP3    H266717   2.603   5.181  12.776  1.5396 -0.7596 -0.2287
15076TIP3   OH266718   5.992   4.760   5.642 -0.0521 -0.0185  0.1252
15076TIP3    H166719   6.003   4.746   5.736 -1.9460 -1.4329  0.1951
15076TIP3    H266720   6.082   4.761   5.607  0.6294 -1.2900  1.7045
15077TIP3   OH266721   4.112   3.081  13.831 -0.7290  0.5025  0.2185
15077TIP3    H166722   4.142   3.046  13.915 -2.0684  1.0640  0.9719
15077TIP3    H266723   4.026   3.119  13.850 -1.8566 -0.8505 -1.7719
15078TIP3   OH266724   3.071   5.128   3.765 -0.1001 -0.2375 -0.2319
15078TIP3    H166725   3.135   5.094   3.828 -0.1627  1.5215  0.8342
15078TIP3    H266726   3.122   5.180   3.704 -0.2611 -0.5786 -0.6644
15079TIP3   OH266727   0.012   2.191   1.629 -0.1491 -0.7517 -0.6691
15079TIP3    H166728  -0.017   2.119   1.685 -0.7726 -1.0701 -1.3927
15079TIP3    H266729  -0.062   2.252   1.629  0.5968  0.2186  0.4388
15080TIP3   OH266730   0.568   1.557  15.753  0.2796  0.2161  0.0692
15080TIP3    H166731   0.520   1.512  15.823  1.1894  2.7757  2.4889
15080TIP3    H266732   0.651   1.511  15.747 -0.0512 -0.4084  0.1988
15081TIP3   OH266733   6.156   5.347   1.214 -0.1045 -0.1649 -0.2894
15081TIP3    H166734   6.179   5.341   1.121  0.9335  0.8310 -0.1198
15081TIP3    H266735   6.214   5.284   1.257  0.7582  0.6975 -0.1316
15082TIP3   OH266736   1.000   5.642   2.370 -0.0496 -0.5604  0.2668
15082TIP3    H166737   0.909   5.654   2.397 -0.0289 -3.1086  1.7778
15082TIP3    H266738   1.049   5.705   2.422 -0.7626 -0.4549  0.8189
15083TIP3   OH266739   3.650   6.787   4.207  0.0466  0.2820  0.0915
15083TIP3    H166740   3.585   6.794   4.277 -0.0920  0.6299 -0.0676
15083TIP3    H266741   3.690   6.701   4.219 -0.6728 -0.0750 -0.0075
15084TIP3   OH266742   4.830   1.576   5.535 -0.2189 -0.8416  0.2441
15084TIP3    H166743   4.758   1.570   5.472  0.9269 -0.5222 -1.1435
15084TIP3    H266744   4.883   1.499   5.518 -0.9310 -1.8305  2.2210
15085TIP3   OH266745   2.884   1.119   0.668  0.0155 -0.1060  1.0424
15085TIP3    H166746   2.956   1.102   0.729 -0.3976 -2.2536  1.0157
15085TIP3    H266747   2.813   1.061   0.698 -2.0111  2.4404  1.5054
15086TIP3   OH266748   4.847   0.613  15.715  0.1487  0.1377  0.0338
15086TIP3    H166749   4.876   0.682  15.775  0.8015 -0.6930  0.6999
15086TIP3    H266750   4.926   0.585  15.670  0.1204 -0.9830  0.6341
15087TIP3   OH266751   1.045   4.982  11.593 -0.3678  0.3086  0.0400
15087TIP3    H166752   0.975   5.048  11.594  0.2836  1.0299  1.4189
15087TIP3    H266753   1.091   4.996  11.511 -0.7485  1.0142 -0.0600
15088TIP3   OH266754   3.789   5.575   6.119  0.3086  0.5367  0.0740
15088TIP3    H166755   3.699   5.573   6.150 -0.2834 -0.0781 -1.6086
15088TIP3    H266756   3.824   5.657   6.153 -0.3031 -0.0264  2.2344
15089TIP3   OH266757   5.937   4.932  13.854 -0.3640  0.6264 -0.3483
15089TIP3    H166758   5.852   4.904  13.887  0.5980 -2.3622 -0.1474
15089TIP3    H266759   5.917   5.006  13.795 -2.7669  1.6808  1.6280
15090TIP3   OH266760   0.543   1.398  16.034 -0.0811  0.0625 -0.0605
15090TIP3    H166761   0.515   1.434  16.118  0.7622  0.7367 -0.0481
15090TIP3    H266762   0.638   1.394  16.041 -0.0397 -0.3379 -0.8027
15091TIP3   OH266763   1.228   3.127   3.417 -0.2118 -0.2192  0.2311
15091TIP3    H166764   1.277   3.168   3.489 -0.2584  0.7889 -0.2977
15091TIP3    H266765   1.246   3.182   3.341  0.1643 -1.4974 -0.6421
15092TIP3   OH266766   3.621   5.584   0.786 -0.0811 -0.2330 -0.0094
15092TIP3    H166767   3.703   5.545   0.818  0.4421 -1.6359 -2.7296
15092TIP3    H266768   3.639   5.604   0.694 -2.8399 -0.7766 -0.7605
15093TIP3   OH266769   1.444   1.654  11.269  0.4537  0.1458  0.6442
15093TIP3    H166770   1.480   1.568  11.245  1.7791  1.1044 -1.0324
15093TIP3    H266771   1.501   1.684  11.340  0.4816  0.0050  0.6832
15094TIP3   OH266772   5.752   5.593  12.934 -0.0320 -0.1324  0.1820
15094TIP3    H166773   5.708   5.549  13.008  0.5550 -1.3928 -0.1932
15094TIP3    H266774   5.787   5.521  12.882  0.0627  0.7755 -1.0225
15095TIP3   OH266775   1.536   4.903  16.230 -0.4588 -0.0471  0.2107
15095TIP3    H166776   1.571   4.983  16.190  0.3142  0.0491  1.0446
15095TIP3    H266777   1.517   4.846  16.156  1.6951 -0.1946 -0.3129
15096TIP3   OH266778   4.277   4.604  11.322  0.3331  0.1883 -0.2930
15096TIP3    H166779   4.252   4.682  11.372 -2.3305 -0.6506 -0.1777
15096TIP3    H266780   4.320   4.639  11.244  2.0513  1.6151  1.2001
15097TIP3   OH266781   4.418   1.456  11.055 -0.0727 -0.0463 -0.0413
15097TIP3    H166782   4.357   1.463  11.129 -0.1116 -0.0999 -0.0691
15097TIP3    H266783   4.481   1.389  11.082 -0.4404 -0.5029 -0.3133
15098TIP3   OH266784   6.530   0.762  11.982 -0.1823  0.2438 -0.6160
15098TIP3    H166785   6.564   0.680  11.947 -0.9776 -0.7604  0.8699
15098TIP3    H266786   6.470   0.793  11.914 -0.4585 -0.7992 -0.8741
15099TIP3   OH266787   4.317   2.024  16.388  0.8763  0.2173 -0.0303
15099TIP3    H166788   4.224   2.008  16.405  1.1333  0.4198  1.7267
15099TIP3    H266789   4.318   2.086  16.315 -0.4250  1.1609  0.7044
15100TIP3   OH266790   0.187   3.941   2.986  0.5457 -0.4039  0.4161
15100TIP3    H166791   0.233   3.943   3.069  3.0701 -1.2527 -0.8565
15100TIP3    H266792   0.212   3.858   2.945  0.5324  0.5825 -1.7782
15101TIP3   OH266793   2.022   4.576   5.323  0.4368 -0.0659  0.4276
15101TIP3    H166794   1.995   4.536   5.405 -2.7174 -4.4346 -2.3157
15101TIP3    H266795   1.951   4.637   5.301  0.7060  0.2483  0.4253
15102TIP3   OH266796   4.875   2.811   0.589 -0.0270  0.5269 -0.5911
15102TIP3    H166797   4.946   2.780   0.645  1.0325  2.0867 -0.9936
15102TIP3    H266798   4.801   2.822   0.649  0.0836 -1.0294 -0.1480
15103TIP3   OH266799   2.706   5.383   5.757 -0.1612  0.1414  0.3044
15103TIP3    H166800   2.788   5.334   5.757 -0.4401 -0.4330  2.1424
15103TIP3    H266801   2.650   5.334   5.817 -0.9482  1.9210  1.1076
15104TIP3   OH266802   3.673   5.199  11.746 -0.2563  0.3646  0.0625
15104TIP3    H166803   3.590   5.230  11.710 -0.6646 -0.0227  0.6669
15104TIP3    H266804   3.698   5.265  11.811  0.4150  0.9952 -0.8106
15105TIP3   OH266805   1.010   6.447  16.393 -0.1390 -0.0415 -0.3199
15105TIP3    H166806   0.998   6.360  16.431 -0.5385  0.3880  0.5610
15105TIP3    H266807   1.102   6.449  16.367  0.2095 -0.2952  0.8090
15106TIP3   OH266808   4.819   0.147  16.170  0.2701 -0.8224 -0.1683
15106TIP3    H166809   4.892   0.110  16.121 -0.4103 -0.3934 -1.5820
15106TIP3    H266810   4.742   0.127  16.117 -0.2133  1.9158 -0.6985
15107TIP3   OH266811   2.513   4.686  16.675  0.0600 -0.5330 -0.0333
15107TIP3    H166812   2.552   4.608  16.714  2.9768  1.4648  1.4849
15107TIP3    H266813   2.467   4.729  16.747  0.9600  0.5366 -0.0606
15108TIP3   OH266814   2.250   5.592   3.757  0.1451 -0.2565 -0.0333
15108TIP3    H166815   2.176   5.543   3.795  1.9428 -2.3785  0.9609
15108TIP3    H266816   2.287   5.640   3.831 -0.4232  1.1206 -0.6135
15109TIP3   OH266817   5.666   0.120  16.315  0.2040  0.3667 -0.7639
15109TIP3    H166818   5.695   0.029  16.316 -0.8151  0.0296 -0.7494
15109TIP3    H266819   5.624   0.133  16.400  0.4694  0.8916 -0.7090
15110TIP3   OH266820   4.055   1.516   4.849 -0.0353 -0.3188  0.4464
15110TIP3    H166821   4.089   1.605   4.843  0.7278 -0.6962 -2.2290
15110TIP3    H266822   3.962   1.524   4.825  0.7108 -0.5074 -2.9782
15111TIP3   OH266823   4.319   3.438  15.824 -0.5701 -0.4175 -0.1504
15111TIP3    H166824   4.294   3.485  15.904 -0.2143  1.5690 -1.1377
15111TIP3    H266825   4.414   3.433  15.827 -0.6491 -2.6286  0.7147
15112TIP3   OH266826   2.930   5.568   5.095 -0.2818 -0.0103  0.3021
15112TIP3    H166827   2.979   5.487   5.078  0.6042  0.3718  0.9059
15112TIP3    H266828   2.857   5.566   5.033  0.6197 -0.5117 -0.7932
15113TIP3   OH266829   5.644   6.814   1.403 -0.1805 -0.2778  0.2760
15113TIP3    H166830   5.715   6.878   1.414 -0.2173  0.3958 -2.6065
15113TIP3    H266831   5.570   6.853   1.449  0.8034 -0.1410  1.8216
15114TIP3   OH266832   3.768   3.554  14.320 -0.1031  0.1908  0.2441
15114TIP3    H166833   3.856   3.570  14.286 -0.3016  1.8021  0.4208
15114TIP3    H266834   3.722   3.512  14.247  0.5536  0.1501 -0.1574
15115TIP3   OH266835   3.421   0.904  11.946  0.0673 -0.4255  0.1269
15115TIP3    H166836   3.349   0.964  11.964  0.5576  0.5150 -0.9346
15115TIP3    H266837   3.431   0.854  12.027  0.7010  2.0286  1.6717
15116TIP3   OH266838   6.539   4.352  16.801 -0.6329 -0.1860 -0.4638
15116TIP3    H166839   6.560   4.409  16.876  0.6099  0.4109 -1.2373
15116TIP3    H266840   6.460   4.391  16.763  0.2023  1.0408 -0.9809
15117TIP3   OH266841   3.334   5.264  13.062  0.1673 -0.3137  0.0828
15117TIP3    H166842   3.428   5.268  13.045  0.2621 -0.3231  0.5869
15117TIP3    H266843   3.302   5.353  13.043  0.0224 -0.6758 -1.4868
15118TIP3   OH266844   5.620   6.796  11.238  0.4334  0.2846 -0.1618
15118TIP3    H166845   5.612   6.868  11.176 -0.7760  2.1218  1.9834
15118TIP3    H266846   5.678   6.828  11.306  0.3191 -0.9968  0.5786
15119TIP3   OH266847   0.987   6.655   4.102  0.0810  0.6777  0.3261
15119TIP3    H166848   0.974   6.658   4.007  0.1118  1.0343  0.3314
15119TIP3    H266849   1.072   6.697   4.115  2.1589 -3.0616  0.1293
15120TIP3   OH266850   3.577   4.542  11.078 -0.3523  0.3689  0.2563
15120TIP3    H166851   3.484   4.549  11.059 -0.5441 -1.3409  0.3629
15120TIP3    H266852   3.611   4.486  11.008 -0.0517 -1.6337  1.9097
15121TIP3   OH266853   3.594   1.398  16.839  0.0926 -0.2710 -0.1726
15121TIP3    H166854   3.553   1.483  16.822 -0.6281 -0.5426  0.1817
15121TIP3    H266855   3.601   1.393  16.935 -1.7319 -1.4603 -0.0645
15122TIP3   OH266856   6.624   4.937  16.586  0.3162 -0.6326  0.1630
15122TIP3    H166857   6.717   4.927  16.563  1.4563  2.3197  2.6586
15122TIP3    H266858   6.607   4.864  16.646  0.2835 -2.4687 -1.9734
15123TIP3   OH266859   6.273   5.692  14.868  0.4893 -0.7292 -0.4510
15123TIP3    H166860   6.237   5.642  14.942 -0.2186  0.4732  0.0597
15123TIP3    H266861   6.276   5.783  14.900 -0.4200 -0.0722 -2.0989
15124TIP3   OH266862   4.219   2.764   3.937  0.1897 -0.2434  0.5744
15124TIP3    H166863   4.201   2.720   3.854  0.3349 -0.3072  0.5759
15124TIP3    H266864   4.170   2.846   3.932 -2.2672 -1.5413  1.6520
15125TIP3   OH266865   3.255   5.860   0.211 -0.3390 -0.4099 -0.3564
15125TIP3    H166866   3.245   5.941   0.161 -0.7259  0.7436  1.4984
15125TIP3    H266867   3.314   5.806   0.158  0.2887  1.2643 -1.4356
15126TIP3   OH266868   2.069   1.926  14.855  0.1493 -0.0112  0.3455
15126TIP3    H166869   2.076   1.969  14.770  3.0183  2.2266  1.5695
15126TIP3    H266870   2.009   1.982  14.905  1.7665  1.1569  1.0653
15127TIP3   OH266871   3.869   5.943  16.045  0.1905  0.0018  0.5102
15127TIP3    H166872   3.831   6.023  16.007  0.0445 -0.9551 -1.4631
15127TIP3    H266873   3.817   5.928  16.124 -0.4532  1.3051  0.3719
15128TIP3   OH266874   5.401   5.707   2.975  0.5412 -0.5628  0.3151
15128TIP3    H166875   5.388   5.801   2.992  3.1001  0.4726 -2.4741
15128TIP3    H266876   5.438   5.673   3.056 -1.9245  0.3677  1.9623
15129TIP3   OH266877   3.338   0.634   5.644 -0.3941  0.0714 -0.1255
15129TIP3    H166878   3.350   0.633   5.739  0.1105 -0.6631 -0.1866
15129TIP3    H266879   3.343   0.727   5.620 -1.1689  0.3193  0.6340
15130TIP3   OH266880   5.311   6.337   5.321 -0.2927  0.5221  0.0983
15130TIP3    H166881   5.249   6.341   5.394 -0.3599  2.6010 -0.0176
15130TIP3    H266882   5.256   6.348   5.243 -0.0282 -0.0200 -0.1697
15131TIP3   OH266883   5.845   3.264   0.881 -0.3883  0.6997 -0.0034
15131TIP3    H166884   5.804   3.228   0.802  0.0076  0.6588 -0.1931
15131TIP3    H266885   5.774   3.310   0.926 -0.8489 -0.1348  0.1378
15132TIP3   OH266886   4.460   2.719  16.258  0.5509 -0.2784 -0.2822
15132TIP3    H166887   4.542   2.722  16.308  0.3084 -1.1053  0.1805
15132TIP3    H266888   4.393   2.744  16.322  0.3179 -0.6451 -0.3818
15133TIP3   OH266889   2.847   5.497   1.476  0.4540  0.1386  0.0836
15133TIP3    H166890   2.829   5.586   1.505 -1.7155 -0.3535  0.4414
15133TIP3    H266891   2.893   5.507   1.393  0.0662  1.5802  0.0201
15134TIP3   OH266892   3.937   0.557   4.478 -0.2339 -0.2365  0.1913
15134TIP3    H166893   3.881   0.625   4.517  1.5930  0.5527  1.6232
15134TIP3    H266894   3.979   0.600   4.404 -0.7596 -0.5107 -0.2670
15135TIP3   OH266895   3.153   3.279   1.457 -0.4561 -0.4347  0.0409
15135TIP3    H166896   3.164   3.230   1.375 -0.4088  0.3176 -0.4187
15135TIP3    H266897   3.058   3.286   1.468 -0.4898  1.0186 -0.9325
15136TIP3   OH266898   0.206   1.224  16.895 -0.4041  0.0193 -0.2759
15136TIP3    H166899   0.149   1.155  16.860  0.2280 -0.8562  0.3480
15136TIP3    H266900   0.221   1.198  16.986 -0.4227  1.1809  0.0704
15137TIP3   OH266901   2.499   3.156  16.916 -0.2244 -0.0552 -0.3939
15137TIP3    H166902   2.577   3.112  16.881  0.5190  1.9779 -1.4593
15137TIP3    H266903   2.533   3.220  16.978 -0.9240  1.4132 -1.4560
15138TIP3   OH266904   0.408   5.376  16.400  0.4691 -0.0051  0.1717
15138TIP3    H166905   0.322   5.335  16.393  0.8586 -0.7390 -0.5916
15138TIP3    H266906   0.448   5.333  16.476  0.0012  0.6765  0.8199
15139TIP3   OH266907   3.364   3.345   0.485 -0.1344 -0.0274 -0.1440
15139TIP3    H166908   3.319   3.389   0.558 -0.7384 -0.0691 -0.4908
15139TIP3    H266909   3.439   3.401   0.466  0.2862 -0.2410  0.8010
15140TIP3   OH266910   5.655   4.897  13.898 -0.1564  0.3701 -0.0627
15140TIP3    H166911   5.662   4.892  13.993 -0.6579 -3.8452 -0.0385
15140TIP3    H266912   5.563   4.921  13.882 -0.3447  0.0644  0.5386
15141TIP3   OH266913   0.410   4.734  13.369  0.0141 -0.3499 -0.3797
15141TIP3    H166914   0.318   4.755  13.354 -0.3951 -2.1218 -0.5362
15141TIP3    H266915   0.445   4.715  13.282  0.1299 -1.1496 -0.1665
15142TIP3   OH266916   0.333   0.663   1.304 -0.0978  0.6187  0.9610
15142TIP3    H166917   0.411   0.666   1.359 -1.1760  2.2478  2.5107
15142TIP3    H266918   0.259   0.665   1.365 -1.3475  1.8618 -0.4849
15143TIP3   OH266919   4.991   2.806   2.114 -0.3014  0.0951 -0.4214
15143TIP3    H166920   4.971   2.742   2.045  1.2271 -1.1130  0.1955
15143TIP3    H266921   4.907   2.848   2.133 -1.1773 -1.1002 -1.4890
15144TIP3   OH266922   4.141   5.174   6.328  0.1699  0.4129  0.5274
15144TIP3    H166923   4.132   5.129   6.244  0.9400  2.8289 -0.9216
15144TIP3    H266924   4.091   5.119   6.389 -0.1878 -1.5685 -1.3952
15145TIP3   OH266925   4.886   3.633  12.738  0.0497 -0.2388  0.4880
15145TIP3    H166926   4.825   3.597  12.674  1.0781 -0.1175 -0.5968
15145TIP3    H266927   4.906   3.721  12.707  3.0850 -1.2867 -0.9637
15146TIP3   OH266928   1.002   1.693  13.947  0.5192  0.3723  0.1485
15146TIP3    H166929   0.950   1.773  13.958  0.4313  0.5106 -1.1003
15146TIP3    H266930   1.019   1.688  13.852 -1.7303 -2.4635 -0.2449
15147TIP3   OH266931   2.697   6.744  13.441  0.6004 -0.5671  0.2531
15147TIP3    H166932   2.700   6.665  13.388  0.0401 -0.9150  0.7338
15147TIP3    H266933   2.787   6.754  13.473  0.8517 -0.5690 -0.4299
15148TIP3   OH266934   0.921   3.636  14.545 -0.5120  0.0408 -0.3148
15148TIP3    H166935   0.919   3.579  14.622 -0.1069  0.5746  0.1039
15148TIP3    H266936   0.865   3.710  14.569  0.0630  0.4831 -0.2981
15149TIP3   OH266937   3.050   2.032   3.741  0.4822  0.0640  0.4341
15149TIP3    H166938   3.052   1.996   3.829 -0.6187  1.4228  1.0529
15149TIP3    H266939   2.960   2.017   3.711  1.1320 -1.4571 -0.9742
15150TIP3   OH266940   3.495   3.335   0.819 -0.0128 -0.7465  0.3506
15150TIP3    H166941   3.509   3.259   0.876 -0.8023 -1.0152  0.1932
15150TIP3    H266942   3.419   3.380   0.856 -1.6753 -1.8955 -1.4433
15151TIP3   OH266943   3.072   5.634  16.487 -0.1785  0.2459  0.0330
15151TIP3    H166944   3.166   5.638  16.471 -0.3082  0.9889 -0.5908
15151TIP3    H266945   3.054   5.540  16.498  0.6550  0.1077  0.3306
15152TIP3   OH266946   0.816   4.498   1.546  0.2126 -0.4197  0.0501
15152TIP3    H166947   0.870   4.547   1.608  0.3088  0.2819 -0.5692
15152TIP3    H266948   0.746   4.461   1.599 -0.3505  1.1064  0.4256
15153TIP3   OH266949   2.257   4.725   1.680  0.1484  0.0831  0.4116
15153TIP3    H166950   2.192   4.674   1.632  1.8621 -2.0096  0.1588
15153TIP3    H266951   2.324   4.746   1.615 -0.5452  2.9104  0.4676
15154TIP3   OH266952   0.942   3.829  15.456  0.1115 -0.2017 -0.4846
15154TIP3    H166953   0.891   3.908  15.436 -0.2111 -0.4063 -0.4752
15154TIP3    H266954   1.033   3.859  15.455  0.0392  0.0342 -1.1711
15155TIP3   OH266955   1.723   6.616  11.283 -0.4132  0.2038  0.8637
15155TIP3    H166956   1.708   6.568  11.364 -3.2137  0.6425  0.6956
15155TIP3    H266957   1.665   6.576  11.219  0.9109  0.5992 -0.6779
15156TIP3   OH266958   2.294   2.431  11.608  0.2118 -0.0076  0.0294
15156TIP3    H166959   2.365   2.375  11.577 -0.6573 -0.6753 -0.8259
15156TIP3    H266960   2.303   2.512  11.558  0.3590 -0.0989 -0.0935
15157TIP3   OH266961   4.999   4.101   5.341  0.4003  0.0630  0.0110
15157TIP3    H166962   4.993   4.038   5.414 -1.3621  1.1732  0.9008
15157TIP3    H266963   5.066   4.163   5.370  2.3104 -1.4317 -0.9675
15158TIP3   OH266964   5.001   2.858   0.116 -0.5664  0.2293  0.3408
15158TIP3    H166965   5.080   2.887   0.161 -1.2940  1.8009  0.6895
15158TIP3    H266966   5.012   2.764   0.105  0.0214 -0.0903  3.0404
15159TIP3   OH266967   5.554   4.023   0.323 -0.0767 -0.0166  0.6909
15159TIP3    H166968   5.575   4.051   0.412  0.0235 -0.4811  0.8136
15159TIP3    H266969   5.462   4.045   0.313  0.0440  0.5316  0.7181
15160TIP3   OH266970   1.484   1.316  13.039  0.4131  0.2806  0.5826
15160TIP3    H166971   1.455   1.270  13.118 -0.2705  0.4724  0.4510
15160TIP3    H266972   1.486   1.408  13.064 -3.5512  0.8804 -0.6016
15161TIP3   OH266973   1.898   5.772  14.208 -0.2677 -0.1875  0.1691
15161TIP3    H166974   1.818   5.817  14.181  0.5301  0.5645 -1.0521
15161TIP3    H266975   1.880   5.679  14.196 -0.7232  0.0161 -0.8011
15162TIP3   OH266976   5.553   5.680   6.284  0.8318 -0.4545  0.4766
15162TIP3    H166977   5.510   5.680   6.198  0.2080  0.2520  0.7758
15162TIP3    H266978   5.641   5.646   6.267  0.7055 -0.3508 -0.4392
15163TIP3   OH266979   1.833   0.101   4.815  0.3741  0.0993  0.0937
15163TIP3    H166980   1.751   0.140   4.846  1.5608  1.6571  1.4420
15163TIP3    H266981   1.836   0.124   4.723  0.0906  1.5322  0.4153
15164TIP3   OH266982   0.212   2.031  13.957 -0.2381 -0.6214 -0.1765
15164TIP3    H166983   0.146   2.056  13.892  0.9926  1.2033 -0.7996
15164TIP3    H266984   0.258   1.957  13.917 -0.8782 -0.8860 -0.4308
15165TIP3   OH266985   4.163   1.054   3.928  0.3779  0.7840 -0.2447
15165TIP3    H166986   4.133   1.023   3.842  2.4684 -0.9533 -0.4372
15165TIP3    H266987   4.232   0.993   3.952  1.5511  2.7002  1.5580
15166TIP3   OH266988   4.388   4.469  12.737 -0.6009  0.0679  0.3596
15166TIP3    H166989   4.475   4.510  12.734  0.0401 -1.3045 -1.2155
15166TIP3    H266990   4.406   4.375  12.735 -2.1413 -0.2352 -0.9506
15167TIP3   OH266991   6.032   4.911   3.397  0.3437 -0.1663 -0.0408
15167TIP3    H166992   6.031   4.947   3.308  1.0265  0.2966  0.1325
15167TIP3    H266993   6.039   4.816   3.384  0.1749 -0.1242 -0.4774
15168TIP3   OH266994   5.013   6.060  16.835 -0.5606  0.0824  0.5403
15168TIP3    H166995   4.996   6.054  16.929  1.3352  1.2495  1.0149
15168TIP3    H266996   5.108   6.050  16.827 -0.7658 -0.8016 -1.3536
15169TIP3   OH266997   2.366   6.404  14.373 -0.2700 -0.1399  0.3921
15169TIP3    H166998   2.444   6.447  14.338 -0.1737  0.2975  1.1089
15169TIP3    H266999   2.390   6.311  14.379 -0.1182 -0.1403 -0.2115
15170TIP3   OH267000   2.566   2.396   1.176  0.8103 -0.5116  0.4591
15170TIP3    H167001   2.531   2.353   1.098  0.0439 -0.3016  0.6786
15170TIP3    H267002   2.534   2.486   1.170  0.9907 -0.4186  0.8677
15171TIP3   OH267003   1.675   6.757   0.178 -0.1549 -0.4342  0.0171
15171TIP3    H167004   1.737   6.692   0.146 -2.2599 -2.8086  0.3682
15171TIP3    H267005   1.711   6.786   0.262  2.5945  1.6584 -1.7373
15172TIP3   OH267006   6.574   5.560   1.671 -0.5157 -0.3788 -0.1596
15172TIP3    H167007   6.598   5.502   1.599 -2.6311 -0.7536 -0.6313
15172TIP3    H267008   6.551   5.500   1.742 -3.7237 -0.2911 -0.9738
15173TIP3   OH267009   2.872   5.059   1.986 -0.2140  0.1813 -0.1872
15173TIP3    H167010   2.902   5.054   1.895  1.2591 -0.0015  0.2805
15173TIP3    H267011   2.927   4.996   2.033 -2.9898 -2.0064  0.3547
15174TIP3   OH267012   0.690   5.826  14.918  0.4194  0.3788  0.1738
15174TIP3    H167013   0.626   5.802  14.985  0.0613  1.6618  0.3166
15174TIP3    H267014   0.751   5.752  14.915 -1.7326 -1.4927 -0.8482
15175TIP3   OH267015   0.861   2.592  16.904 -0.3813 -0.5009 -0.1119
15175TIP3    H167016   0.952   2.616  16.921 -0.6932 -0.3534  1.4578
15175TIP3    H267017   0.851   2.602  16.809  0.6793  1.4644 -0.0657
15176TIP3   OH267018   2.852   4.829  15.287 -0.0714  0.2626  0.0236
15176TIP3    H167019   2.946   4.812  15.296 -0.2490  0.1402  2.0090
15176TIP3    H267020   2.812   4.784  15.361 -1.5698  1.3962 -0.0402
15177TIP3   OH267021   3.076   0.187   4.121  0.1417 -0.8602 -0.2890
15177TIP3    H167022   3.162   0.230   4.127  0.4694 -1.6260  0.8584
15177TIP3    H267023   3.050   0.173   4.212 -2.2787  1.3802 -0.5469
15178TIP3   OH267024   2.748   0.897   5.447 -0.4774  0.0622 -0.2311
15178TIP3    H167025   2.802   0.966   5.408  1.7277 -0.6051  1.4678
15178TIP3    H267026   2.743   0.830   5.379  0.0335  0.5446 -0.7562
15179TIP3   OH267027   0.031   3.543  11.839 -0.3658 -0.0851  0.6057
15179TIP3    H167028   0.075   3.459  11.830 -0.0809  0.0991  0.2655
15179TIP3    H267029   0.020   3.555  11.934  1.5756  0.5019  0.8024
15180TIP3   OH267030   5.202   6.598  17.020 -0.7936 -0.8007 -0.6124
15180TIP3    H167031   5.167   6.641  16.942  3.0806  1.3577 -1.4500
15180TIP3    H267032   5.220   6.670  17.081  1.8326 -1.6657 -0.2372
15181TIP3   OH267033   5.266   1.156   1.416  0.5329 -0.6161 -0.9210
15181TIP3    H167034   5.354   1.195   1.421 -0.3480  1.4297 -0.2656
15181TIP3    H267035   5.213   1.211   1.474 -1.1986 -1.7960 -1.3393
15182TIP3   OH267036   0.284   3.303   6.208 -0.2055  0.1641 -0.1435
15182TIP3    H167037   0.221   3.232   6.220 -0.1185  0.5555  3.8709
15182TIP3    H267038   0.345   3.294   6.282  0.8314  3.3843 -0.4554
15183TIP3   OH267039   4.347   5.678   5.765  0.1318 -0.2199 -0.6174
15183TIP3    H167040   4.263   5.647   5.799 -0.6165 -1.2522 -3.1620
15183TIP3    H267041   4.324   5.734   5.691  1.6731  1.1668 -0.1113
15184TIP3   OH267042   2.759   4.701  15.520  0.3721 -0.0239  0.4469
15184TIP3    H167043   2.756   4.704  15.616  1.9895  2.5451  0.5383
15184TIP3    H267044   2.786   4.612  15.499 -0.7691 -0.8631  2.3290
15185TIP3   OH267045   4.565   4.036  15.600 -0.0880  0.3351 -0.4498
15185TIP3    H167046   4.575   3.946  15.570  0.2085  0.6797 -1.4281
15185TIP3    H267047   4.635   4.084  15.555  1.3343  0.6232  1.9268
15186TIP3   OH267048   3.386   0.708   5.304 -0.1097  0.0224 -0.0354
15186TIP3    H167049   3.337   0.764   5.365  0.0866  0.7199 -0.5166
15186TIP3    H267050   3.454   0.668   5.358  1.1555  1.9687 -0.1245
15187TIP3   OH267051   4.967   5.838  11.495 -0.0706 -0.9338 -0.2582
15187TIP3    H167052   4.907   5.859  11.423 -0.2286 -0.0978  0.1022
15187TIP3    H267053   4.913   5.791  11.558 -0.8550  1.3041  0.8572
15188TIP3   OH267054   1.013   2.943   2.008 -0.1258 -0.0863 -0.5018
15188TIP3    H167055   1.017   2.996   1.928 -1.4201  0.7683 -0.0385
15188TIP3    H267056   0.961   2.867   1.984 -1.6556  0.8163 -0.1658
15189TIP3   OH267057   2.936   1.452   4.962 -0.2592  0.0914 -0.5223
15189TIP3    H167058   2.985   1.370   4.971 -1.1746 -0.3848  0.4528
15189TIP3    H267059   2.869   1.433   4.897 -2.1419 -0.8564  1.5395
15190TIP3   OH267060   3.427   4.342  15.893 -0.2525  0.2335  0.0257
15190TIP3    H167061   3.467   4.290  15.963  0.4106  2.0783  1.0668
15190TIP3    H267062   3.333   4.341  15.914  0.0143  1.4007  1.4371
15191TIP3   OH267063   5.737   2.858  13.523  0.1306 -0.0135  0.1960
15191TIP3    H167064   5.759   2.765  13.515 -0.3540 -0.3602  2.3570
15191TIP3    H267065   5.789   2.889  13.597  1.1668  1.7779 -1.1945
15192TIP3   OH267066   2.669   0.957   2.305  0.6934 -0.0726  0.1625
15192TIP3    H167067   2.698   0.893   2.370 -0.2214 -0.8598 -0.1633
15192TIP3    H267068   2.695   0.919   2.221 -1.0107 -0.7120 -0.1234
15193TIP3   OH267069   0.045   6.453  16.473  0.0033  0.4201  0.3497
15193TIP3    H167070   0.073   6.536  16.435  0.5875 -0.2669 -0.7589
15193TIP3    H267071  -0.026   6.477  16.533  0.4768  1.7665  0.4130
15194TIP3   OH267072   0.586   2.001  11.729 -0.2710 -0.0549 -0.4171
15194TIP3    H167073   0.606   2.033  11.816  0.2194 -1.0500 -0.1461
15194TIP3    H267074   0.610   2.073  11.670 -0.1607  0.4409  0.2305
15195TIP3   OH267075   1.915   4.306  15.267  0.0640 -0.4349  0.2123
15195TIP3    H167076   1.990   4.364  15.279  1.9889 -2.7484  0.0881
15195TIP3    H267077   1.854   4.331  15.337  1.2201  1.0850  0.7330
15196TIP3   OH267078   2.315   0.979   5.685  0.1922  0.1307  0.3022
15196TIP3    H167079   2.276   1.056   5.644 -0.8610 -0.5221  0.0372
15196TIP3    H267080   2.401   0.970   5.643 -1.1663 -1.0171 -2.4997
15197TIP3   OH267081   1.112   2.096   3.925  0.0315 -0.0714 -0.1404
15197TIP3    H167082   1.046   2.032   3.950 -0.2922  0.2624 -0.1486
15197TIP3    H267083   1.150   2.060   3.844  0.3258 -0.5949  0.2231
15198TIP3   OH267084   4.463   6.440   4.385  0.5367  0.3036 -0.2770
15198TIP3    H167085   4.390   6.501   4.392  0.7814  0.3932  2.2093
15198TIP3    H267086   4.528   6.488   4.334  0.0795  1.4999  0.2173
15199TIP3   OH267087   6.083   4.901  14.735  0.0541  0.3322 -0.1144
15199TIP3    H167088   6.145   4.948  14.792  0.4493  1.0018 -1.0500
15199TIP3    H267089   6.089   4.948  14.651  1.0598 -1.8596 -1.3644
15200TIP3   OH267090   4.802   3.425  10.484  0.7139  0.1421 -0.1467
15200TIP3    H167091   4.735   3.459  10.543 -0.5748  0.0677 -1.5048
15200TIP3    H267092   4.755   3.368  10.424  1.9001  0.4947 -1.4730
15201TIP3   OH267093   6.401   5.316   2.888 -0.2706  0.2621  0.1525
15201TIP3    H167094   6.343   5.383   2.854 -2.2463 -1.5267 -0.2014
15201TIP3    H267095   6.357   5.283   2.967  0.1867 -1.1765 -0.1539
15202TIP3   OH267096   4.586   1.570  12.503  0.5160  0.0556  0.0581
15202TIP3    H167097   4.540   1.623  12.437  0.2512  0.0269  0.2184
15202TIP3    H267098   4.661   1.624  12.528  1.3960 -0.5004 -1.2565
15203TIP3   OH267099   2.599   4.504  11.540  0.5253 -0.0562  0.0354
15203TIP3    H167100   2.661   4.573  11.514  0.0730  0.5777  0.6082
15203TIP3    H267101   2.647   4.422  11.525  2.2163  0.4466  2.2041
15204TIP3   OH267102   4.689   3.095   0.388 -0.4474  0.5969  0.0245
15204TIP3    H167103   4.740   3.166   0.426  1.8024 -0.5968 -0.5856
15204TIP3    H267104   4.651   3.050   0.464  1.8949 -0.2476  0.7888
15205TIP3   OH267105   0.690   4.377  14.954  0.6113 -0.2272 -0.5165
15205TIP3    H167106   0.653   4.465  14.946  0.3171 -0.2387  0.5310
15205TIP3    H267107   0.653   4.328  14.880 -0.0874  0.2456 -0.4916
15206TIP3   OH267108   4.975   0.642   1.028 -0.4050 -0.4206  0.6973
15206TIP3    H167109   5.033   0.574   0.996  0.0869  0.2689  0.0950
15206TIP3    H267110   5.032   0.701   1.077 -0.4491  0.6077 -0.4308
15207TIP3   OH267111   4.365   4.602   3.562 -0.6442 -0.0059 -0.6304
15207TIP3    H167112   4.366   4.528   3.623 -1.6883  0.6341  0.2102
15207TIP3    H267113   4.310   4.572   3.490  1.8093 -1.3296 -2.0795
15208TIP3   OH267114   2.460   5.932   1.719 -0.0254 -0.0660  0.0627
15208TIP3    H167115   2.438   5.839   1.728  2.4397 -0.7203 -0.0662
15208TIP3    H267116   2.451   5.950   1.626 -1.1687  0.0484  0.1758
15209TIP3   OH267117   1.508   4.355   3.014  0.9806 -0.1491  0.2189
15209TIP3    H167118   1.501   4.294   3.088 -0.9539 -1.5101 -0.9974
15209TIP3    H267119   1.464   4.434   3.044  0.2198 -0.6879  0.5624
15210TIP3   OH267120   6.524   1.416   0.606  0.2792 -0.7270  0.1702
15210TIP3    H167121   6.616   1.421   0.580  0.4771 -1.0764  0.7818
15210TIP3    H267122   6.512   1.492   0.663 -0.4683  0.7302 -1.8300
15211TIP3   OH267123   3.738   6.435   4.583  0.3463  0.2566  0.0223
15211TIP3    H167124   3.768   6.345   4.587 -1.6826 -0.5061 -0.5481
15211TIP3    H267125   3.708   6.454   4.672 -1.7303 -0.6215 -0.4330
15212TIP3   OH267126   0.527   1.264  15.097  0.1681 -0.2855 -0.1263
15212TIP3    H167127   0.562   1.209  15.168 -0.9496 -1.8823 -0.7610
15212TIP3    H267128   0.479   1.334  15.142  1.7499  0.3286  0.7021
15213TIP3   OH267129   6.349   2.216  16.992 -0.0840  0.0700 -0.5169
15213TIP3    H167130   6.393   2.280  16.936 -1.0773 -1.3130 -3.0414
15213TIP3    H267131   6.404   2.138  16.987 -0.4987 -0.2602 -0.0216
15214TIP3   OH267132   5.494   3.275   3.563  0.3795 -0.4102  0.3661
15214TIP3    H167133   5.508   3.248   3.654  0.2683  0.7350  0.7479
15214TIP3    H267134   5.458   3.364   3.570 -1.1619 -0.9012 -0.7609
15215TIP3   OH267135   4.867   2.023  16.503 -0.5326 -0.2422  0.5006
15215TIP3    H167136   4.790   1.971  16.525 -0.6962  0.0382  0.5907
15215TIP3    H267137   4.833   2.095  16.451 -0.0235 -1.5886 -1.8536
15216TIP3   OH267138   3.531   1.165  10.397 -0.0420  0.6231  0.2399
15216TIP3    H167139   3.437   1.176  10.416 -0.5489 -0.7749 -1.2322
15216TIP3    H267140   3.539   1.075  10.367  1.6145  1.0258 -0.6319
15217TIP3   OH267141   0.673   1.832   1.983  0.2318  0.4270  0.5424
15217TIP3    H167142   0.646   1.871   2.066  1.9934  0.6593  1.0439
15217TIP3    H267143   0.601   1.774   1.960 -0.0328 -0.1338  2.5632
15218TIP3   OH267144   6.762   2.644  16.331  0.3924 -0.0306  0.1052
15218TIP3    H167145   6.721   2.599  16.405 -0.5258 -2.3806 -1.7079
15218TIP3    H267146   6.699   2.712  16.306 -0.1044 -0.3652  0.4224
15219TIP3   OH267147   3.543   3.100   0.518  0.1720 -0.0554  0.3888
15219TIP3    H167148   3.459   3.146   0.509 -0.2793 -1.1664 -1.6739
15219TIP3    H267149   3.607   3.170   0.532 -0.7873  1.0406 -0.4712
15220TIP3   OH267150   1.520   6.499  15.428  0.2006 -1.0123  0.0953
15220TIP3    H167151   1.607   6.472  15.398 -0.0981  0.4907 -2.4297
15220TIP3    H267152   1.538   6.555  15.503  1.3396 -1.4784  0.2050
15221TIP3   OH267153   3.961   2.889   4.248  0.7485  0.3709 -0.1048
15221TIP3    H167154   3.912   2.883   4.166 -0.5433  0.8133  0.6021
15221TIP3    H267155   3.937   2.810   4.296  0.0344  1.0100  0.6070
15222TIP3   OH267156   4.679   4.138  16.283 -0.4187  0.4264 -0.2620
15222TIP3    H167157   4.717   4.057  16.248  0.1055  0.5796 -0.0543
15222TIP3    H267158   4.679   4.198  16.208  0.6921  0.7497 -0.0184
15223TIP3   OH267159   0.697   6.391  10.681 -0.0289 -0.2471  0.1286
15223TIP3    H167160   0.675   6.348  10.764  1.6191 -1.1401  0.1437
15223TIP3    H267161   0.725   6.319  10.624  2.1705  0.6913 -0.0712
15224TIP3   OH267162   1.581   3.177   3.842  0.0067  0.4316  0.1777
15224TIP3    H167163   1.588   3.094   3.795 -0.6869 -0.6598  1.9052
15224TIP3    H267164   1.506   3.221   3.802 -0.3717 -0.3191  0.0342
15225TIP3   OH267165   0.549   4.981  13.748 -0.0990  0.2946  0.2084
15225TIP3    H167166   0.642   4.992  13.731  0.4122 -2.8601  0.2839
15225TIP3    H267167   0.529   5.043  13.818  2.1556  0.4935  0.7432
15226TIP3   OH267168   4.952   1.237  12.054  0.1011  0.0587  0.4354
15226TIP3    H167169   4.897   1.188  11.994 -1.2672  1.4930  0.4666
15226TIP3    H267170   4.905   1.235  12.137 -0.0970  1.5447  0.3859
15227TIP3   OH267171   4.076   3.836   0.352  0.0546  0.4234  0.5178
15227TIP3    H167172   4.158   3.885   0.352  0.8206 -0.8197  1.4581
15227TIP3    H267173   4.009   3.902   0.334  1.3337  1.2653 -1.5865
15228TIP3   OH267174   2.960   1.998  10.926 -0.3985  0.1139 -0.4219
15228TIP3    H167175   2.899   1.924  10.918 -0.4070  0.0236  0.3798
15228TIP3    H267176   3.047   1.959  10.918 -0.3837 -0.0723  0.4481
15229TIP3   OH267177   5.272   5.821  14.022  0.0748 -0.0701 -0.0834
15229TIP3    H167178   5.265   5.847  14.114  0.5808 -2.3729  0.6853
15229TIP3    H267179   5.191   5.852  13.982  0.4156  2.1116  0.7906
15230TIP3   OH267180   5.110   3.085  16.447 -0.3004  0.2066  0.5841
15230TIP3    H167181   5.017   3.094  16.469 -0.8386 -1.8726 -0.5483
15230TIP3    H267182   5.145   3.027  16.515 -1.1582 -3.3269 -1.6947
15231TIP3   OH267183   6.079   2.039   1.421 -0.2382  0.1567  0.0148
15231TIP3    H167184   6.053   2.129   1.441  0.3035  0.7086 -1.5688
15231TIP3    H267185   6.077   1.994   1.505  1.5891  2.1666  1.2375
15232TIP3   OH267186   4.987   4.599   0.973 -0.5223  0.4505  0.1682
15232TIP3    H167187   4.906   4.551   0.958  0.5072 -1.3041 -0.0464
15232TIP3    H267188   4.993   4.660   0.900 -2.3015  1.6161  0.9167
15233TIP3   OH267189   4.856   5.952  15.176 -0.4324  0.2318 -0.1702
15233TIP3    H167190   4.788   5.893  15.143 -1.3649  0.1285  1.8204
15233TIP3    H267191   4.920   5.956  15.105 -0.7884 -2.4365 -0.7640
15234TIP3   OH267192   2.259   3.296   4.324 -0.2186 -0.5120  0.2232
15234TIP3    H167193   2.319   3.267   4.255  0.5629  0.4184  0.4932
15234TIP3    H267194   2.308   3.286   4.405 -0.3272  0.4641  0.4280
15235TIP3   OH267195   5.723   2.659  16.712  0.0086 -0.8069  0.4783
15235TIP3    H167196   5.678   2.586  16.671  2.2162 -2.6953  1.1958
15235TIP3    H267197   5.734   2.633  16.803 -1.6468  1.7488  1.5107
15236TIP3   OH267198   3.196   4.732  13.549  0.4301 -0.1127 -0.0697
15236TIP3    H167199   3.146   4.670  13.496  0.3013 -0.1877  0.1353
15236TIP3    H267200   3.150   4.815  13.538  1.7644  0.4196 -1.9523
15237TIP3   OH267201   6.574   1.248   5.594 -0.1690  0.2070  0.1994
15237TIP3    H167202   6.620   1.164   5.598 -0.5591 -0.0393 -0.4298
15237TIP3    H267203   6.638   1.312   5.628 -0.2066 -0.4713  1.6161
15238TIP3   OH267204   1.859   4.108  13.801 -0.0693  0.4006 -0.1761
15238TIP3    H167205   1.870   4.164  13.724  0.2670 -1.2292 -1.3669
15238TIP3    H267206   1.780   4.141  13.844 -0.5521  1.0281 -1.5024
15239TIP3   OH267207   1.565   3.749   4.325 -0.0468  0.1119 -0.4617
15239TIP3    H167208   1.594   3.724   4.412  0.6186  1.7863 -0.1697
15239TIP3    H267209   1.644   3.781   4.281 -0.5863  0.3889 -1.2557
15240TIP3   OH267210   0.497   5.719  15.561  0.7354 -0.5188 -0.4481
15240TIP3    H167211   0.546   5.792  15.523  0.5634  0.0369  0.3857
15240TIP3    H267212   0.424   5.760  15.606  0.9054 -1.1636  0.4432
15241TIP3   OH267213   6.771   6.013  13.117 -0.1442 -0.1929  0.4224
15241TIP3    H167214   6.699   6.071  13.092  1.5989  1.7021 -0.5002
15241TIP3    H267215   6.759   5.935  13.063 -0.0793  1.1856 -1.7127
15242TIP3   OH267216   1.759   0.654  13.102  0.4914 -0.5400  0.6469
15242TIP3    H167217   1.819   0.603  13.048  0.2343 -2.1748  1.8035
15242TIP3    H267218   1.787   0.637  13.192  1.3426  2.6387  1.1204
15243TIP3   OH267219   0.788   0.726  14.367  0.3960 -0.2438 -0.0668
15243TIP3    H167220   0.858   0.738  14.431 -0.5283  3.1505  0.5255
15243TIP3    H267221   0.824   0.762  14.286  0.0162 -0.2544 -0.2424
15244TIP3   OH267222   0.848   0.140  16.977 -0.1273  0.3739  0.3925
15244TIP3    H167223   0.913   0.145  17.048  1.7564  3.5335 -1.3394
15244TIP3    H267224   0.900   0.147  16.897 -2.3366 -1.4842 -1.3445
15245TIP3   OH267225   5.223   6.459   0.239  0.0260  0.1381 -0.3633
15245TIP3    H167226   5.262   6.476   0.324 -0.6403  0.8665 -0.2028
15245TIP3    H267227   5.298   6.450   0.180  0.4849 -0.2650  0.2660
15246TIP3   OH267228   6.193   2.755  14.470  0.2025 -0.2324  0.6764
15246TIP3    H167229   6.146   2.838  14.459 -0.9273 -0.8684  0.5177
15246TIP3    H267230   6.131   2.689  14.439  0.4237 -1.2830  2.3575
15247TIP3   OH267231   3.995   0.250   5.811  0.1502 -0.3152  0.2516
15247TIP3    H167232   4.039   0.323   5.768  0.7606 -0.5766  0.4181
15247TIP3    H267233   3.953   0.290   5.887  1.6995 -0.3523  1.1691
15248TIP3   OH267234   4.693   0.165   2.837 -0.0038  0.2647  0.6890
15248TIP3    H167235   4.753   0.118   2.895 -1.1099 -0.0681  1.6161
15248TIP3    H267236   4.655   0.096   2.783  0.5495  0.4924  0.0061
15249TIP3   OH267237   4.226   5.021  11.138 -0.4280  0.6077  0.5200
15249TIP3    H167238   4.258   5.108  11.161 -1.0642  0.1718  3.4321
15249TIP3    H267239   4.164   5.036  11.066  0.6804  2.3142 -0.1480
15250TIP3   OH267240   2.466   6.178   4.883  0.0241 -0.1155 -0.2058
15250TIP3    H167241   2.429   6.207   4.966 -0.0704  0.1930 -0.3510
15250TIP3    H267242   2.505   6.093   4.901  0.0340 -0.0324  0.1620
15251TIP3   OH267243   1.666   1.452  11.204  0.6842  0.0018 -0.5382
15251TIP3    H167244   1.733   1.458  11.135  0.3776 -1.5350 -0.9952
15251TIP3    H267245   1.676   1.364  11.239  0.0886  0.3935  0.6483
15252TIP3   OH267246   6.116   5.069   1.561 -0.0755 -0.0540  0.3865
15252TIP3    H167247   6.163   4.993   1.596 -0.3906  0.1342  1.2445
15252TIP3    H267248   6.182   5.139   1.559  0.1149 -0.2436 -0.0314
15253TIP3   OH267249   1.564   5.409   1.754  0.0277 -0.5823  0.8462
15253TIP3    H167250   1.470   5.429   1.761  0.2600  1.2077 -0.3457
15253TIP3    H267251   1.595   5.405   1.844 -1.0687 -0.4793  1.2401
15254TIP3   OH267252   5.724   3.236   6.330  0.0859  0.2951 -0.3981
15254TIP3    H167253   5.775   3.158   6.350  0.8437  0.8947  0.0327
15254TIP3    H267254   5.638   3.202   6.302 -0.2722 -0.6442  1.6893
15255TIP3   OH267255   3.787   0.243   2.095  0.3436  0.5670 -0.2819
15255TIP3    H167256   3.848   0.277   2.030 -0.0822  0.7197 -0.6145
15255TIP3    H267257   3.718   0.200   2.043  0.8878 -0.8649  0.1256
15256TIP3   OH267258   4.444   2.603  11.210 -0.5997 -0.2329 -0.5366
15256TIP3    H167259   4.460   2.609  11.116 -0.5270  2.3644 -0.4424
15256TIP3    H267260   4.373   2.665  11.226 -0.8154 -0.8549  1.0965
15257TIP3   OH267261   6.421   0.359  16.309 -0.0158 -0.1438  0.2679
15257TIP3    H167262   6.476   0.388  16.382 -0.1478 -1.0659  0.7491
15257TIP3    H267263   6.345   0.319  16.351 -0.4330 -0.0482 -0.3815
15258TIP3   OH267264   6.069   2.706  12.258 -0.4254  0.9243 -0.2676
15258TIP3    H167265   6.109   2.667  12.180 -0.6948 -1.5775  0.7540
15258TIP3    H267266   6.113   2.791  12.267  2.3344 -0.2935 -1.0595
15259TIP3   OH267267   4.141   3.952  15.270  0.7455  0.1761 -0.1329
15259TIP3    H167268   4.096   4.029  15.235  1.4770  0.3038 -0.8104
15259TIP3    H267269   4.099   3.937  15.355  1.6198  2.2576  0.7389
15260TIP3   OH267270   1.787   1.810  14.163 -0.0665  0.1133 -0.1046
15260TIP3    H167271   1.731   1.771  14.229  1.5503 -1.0639  0.6568
15260TIP3    H267272   1.856   1.854  14.212  0.0430  0.9846 -1.0034
15261TIP3   OH267273   6.333   0.089  13.446 -0.2697  0.5513  0.1112
15261TIP3    H167274   6.271   0.034  13.493  0.7141  0.8935  1.8906
15261TIP3    H267275   6.298   0.177  13.452 -1.6584  0.2643 -2.4328
15262TIP3   OH267276   5.739   3.602   3.365  0.0214  0.1884  0.2825
15262TIP3    H167277   5.776   3.651   3.438 -0.9141  4.5396 -1.8097
15262TIP3    H267278   5.645   3.614   3.373 -0.2461 -1.1526 -0.4965
15263TIP3   OH267279   2.719   1.215   2.278 -0.2843  0.1423 -0.0132
15263TIP3    H167280   2.739   1.231   2.371  2.4509 -3.4305  0.2167
15263TIP3    H267281   2.694   1.122   2.275 -1.9677  0.5810 -2.7127
15264TIP3   OH267282   1.314   4.613  13.427 -0.0686  0.0042 -0.1089
15264TIP3    H167283   1.356   4.529  13.445  1.5253  0.6165 -0.7902
15264TIP3    H267284   1.387   4.675  13.416 -1.1967  1.6718  1.1669
15265TIP3   OH267285   3.350   2.760  14.316 -0.4861  0.1089  0.3514
15265TIP3    H167286   3.386   2.723  14.235  1.6140 -0.2225  1.3676
15265TIP3    H267287   3.325   2.684  14.368  0.1007  0.2567  0.8472
15266TIP3   OH267288   1.046   0.564   5.909  0.3915  0.5518  0.3714
15266TIP3    H167289   1.021   0.654   5.929 -0.5337  0.3729  0.0684
15266TIP3    H267290   0.963   0.516   5.908  0.9496 -0.4888  1.4365
15267TIP3   OH267291   1.118   0.052   3.403 -0.5436 -0.4643  0.3171
15267TIP3    H167292   1.059   0.122   3.430 -0.6691  0.2114 -1.5413
15267TIP3    H267293   1.195   0.097   3.367  0.2439 -1.3149  0.8783
15268TIP3   OH267294   3.059   3.781  13.008 -0.8139 -0.2563 -0.3344
15268TIP3    H167295   3.073   3.758  13.099 -3.3037  2.0154  0.7508
15268TIP3    H267296   3.039   3.875  13.009  1.1148  0.3375 -3.5020
15269TIP3   OH267297   1.735   4.058  15.830 -0.6534  0.0869 -0.0131
15269TIP3    H167298   1.799   4.124  15.802  0.5644 -0.0305  2.1620
15269TIP3    H267299   1.725   4.000  15.755  2.1920 -0.1226 -0.3601
15270TIP3   OH267300   1.626   3.182  15.733  0.2858  0.2757  0.3164
15270TIP3    H167301   1.562   3.136  15.787 -0.5584  1.1923  0.1083
15270TIP3    H267302   1.575   3.223  15.664  1.1751  0.4560 -0.2580
15271TIP3   OH267303   0.310   3.425   2.802 -0.2914 -0.6901  0.1415
15271TIP3    H167304   0.370   3.353   2.824 -1.4838 -2.3390 -1.6455
15271TIP3    H267305   0.281   3.406   2.713 -0.6648  2.0684 -0.4205
15272TIP3   OH267306   3.899   6.330   5.561 -0.1413  0.5264  0.4656
15272TIP3    H167307   3.975   6.368   5.606 -0.1537  0.3452  0.6450
15272TIP3    H267308   3.921   6.237   5.553 -0.3401  0.4749  0.5093
15273TIP3   OH267309   3.938   2.658   4.398  0.4525  0.1696  0.0258
15273TIP3    H167310   3.847   2.661   4.369  0.1076  1.5524  1.1545
15273TIP3    H267311   3.933   2.624   4.487  1.1333 -0.5212 -0.1940
15274TIP3   OH267312   1.465   6.402   0.542  0.7772  0.0891 -0.6124
15274TIP3    H167313   1.423   6.434   0.622 -0.4649 -1.1354 -0.7343
15274TIP3    H267314   1.555   6.435   0.547  0.4350  0.8927  0.7724
15275TIP3   OH267315   2.764   1.801  15.380  0.0026  0.1001 -0.7620
15275TIP3    H167316   2.837   1.852  15.344  0.2543 -0.6911 -1.3942
15275TIP3    H267317   2.800   1.759  15.458 -0.3079  1.1581 -0.0303
15276TIP3   OH267318   0.679   2.472   4.965 -0.7036  0.0617  0.1300
15276TIP3    H167319   0.770   2.456   4.940 -0.6815 -1.2730  0.9836
15276TIP3    H267320   0.631   2.395   4.933 -0.9897 -0.7588  2.3977
15277TIP3   OH267321   3.475   1.814   4.380  0.1092  1.0325 -0.0527
15277TIP3    H167322   3.485   1.764   4.299  2.5098  0.3185  0.5897
15277TIP3    H267323   3.411   1.882   4.359 -0.1501  0.2012 -2.1913
15278TIP3   OH267324   1.483   0.908   1.524 -0.4975 -0.5796 -0.0413
15278TIP3    H167325   1.410   0.846   1.528 -0.7603 -0.2308  0.9901
15278TIP3    H267326   1.445   0.991   1.553  0.6714 -0.7638  2.2356
15279TIP3   OH267327   5.188   0.934   2.561  0.2672  0.0407 -0.2716
15279TIP3    H167328   5.197   0.964   2.470 -0.3884  0.3029 -0.2508
15279TIP3    H267329   5.269   0.963   2.603  1.0290 -0.9269 -0.9971
15280TIP3   OH267330   1.584   2.757  16.346 -0.1250  0.0331  0.6044
15280TIP3    H167331   1.489   2.748  16.346 -0.1313  0.0949  0.6196
15280TIP3    H267332   1.599   2.846  16.313 -0.0182 -0.6128 -1.1735
15281TIP3   OH267333   4.238   3.181   4.876  0.3230 -0.2501  0.6705
15281TIP3    H167334   4.219   3.102   4.927 -0.5587  0.4078  1.3798
15281TIP3    H267335   4.152   3.220   4.860  0.8133  1.0160  1.0483
15282TIP3   OH267336   5.522   1.259   3.111  0.0124 -0.3850  0.0027
15282TIP3    H167337   5.467   1.301   3.044  0.5997  1.1008  0.4231
15282TIP3    H267338   5.514   1.166   3.092 -2.4875 -0.2350 -0.0908
15283TIP3   OH267339   3.169   1.199  13.356  0.3875  0.2848  0.5704
15283TIP3    H167340   3.136   1.283  13.387 -2.0368  0.1287 -1.2244
15283TIP3    H267341   3.151   1.138  13.427 -1.5912  0.5940  0.3954
15284TIP3   OH267342   3.689   3.787   1.921  0.9122 -0.6434 -0.1455
15284TIP3    H167343   3.732   3.702   1.909 -0.1232 -1.0171 -1.4313
15284TIP3    H267344   3.657   3.811   1.834 -1.6959 -0.5244  0.7552
15285TIP3   OH267345   6.171   5.749   1.026  1.1004  0.4859 -0.0790
15285TIP3    H167346   6.168   5.794   1.111  0.9878 -2.2853  1.5283
15285TIP3    H267347   6.121   5.669   1.040  0.0481  0.4751 -3.1954
15286TIP3   OH267348   2.978   5.569  16.916 -0.0917 -0.2258  0.4271
15286TIP3    H167349   2.922   5.492  16.922 -0.6688  0.2442  1.2294
15286TIP3    H267350   2.920   5.643  16.935  0.0245  0.6145 -2.0964
15287TIP3   OH267351   4.292   1.264   5.326 -0.0042 -0.2887 -0.0375
15287TIP3    H167352   4.245   1.315   5.260 -0.5388  0.3933  0.8550
15287TIP3    H267353   4.230   1.254   5.398  0.5414 -1.1019  0.3362
15288TIP3   OH267354   5.802   1.415   4.923  0.1905  0.1341 -0.0890
15288TIP3    H167355   5.802   1.319   4.923  2.6308  0.0579 -1.2589
15288TIP3    H267356   5.805   1.439   5.016  1.1827 -0.9961  0.1988
15289TIP3   OH267357   0.528   1.324   3.917  0.4873 -0.6366  0.3953
15289TIP3    H167358   0.488   1.408   3.898  0.5943 -0.7350 -0.2972
15289TIP3    H267359   0.474   1.286   3.987 -2.0243 -1.7307 -1.9574
15290TIP3   OH267360   0.672   6.049   1.570  0.0043  0.6884 -0.3866
15290TIP3    H167361   0.628   5.992   1.507  1.6577 -0.5404 -0.4950
15290TIP3    H267362   0.633   6.026   1.654  0.1932 -0.1567 -0.5211
15291TIP3   OH267363   4.791   5.877  11.291 -0.0921 -0.0135  0.0532
15291TIP3    H167364   4.706   5.859  11.332 -0.0863 -1.5486 -0.5465
15291TIP3    H267365   4.782   5.965  11.255 -0.7130  0.6610  1.7489
15292TIP3   OH267366   1.952   4.310  14.424 -0.4527 -0.1013  0.1383
15292TIP3    H167367   1.879   4.365  14.395 -0.1370  0.3342  0.1525
15292TIP3    H267368   2.028   4.345  14.377 -0.3098 -0.7661 -0.1289
15293TIP3   OH267369   0.466   4.283   3.830  0.2437 -0.5694 -0.0032
15293TIP3    H167370   0.555   4.261   3.800 -0.2934 -3.7006  0.3574
15293TIP3    H267371   0.421   4.311   3.750  1.2470 -0.0097 -0.3976
15294TIP3   OH267372   3.972   1.276  11.396  0.5544 -0.1719 -0.7070
15294TIP3    H167373   3.983   1.317  11.481 -0.5304 -2.5156  0.6714
15294TIP3    H267374   3.882   1.294  11.371  0.6310 -0.1536 -0.9730
15295TIP3   OH267375   6.499   5.796   4.246  0.8047 -0.3222 -0.6237
15295TIP3    H167376   6.438   5.828   4.313  1.3273  0.5575 -0.5572
15295TIP3    H267377   6.488   5.857   4.173  0.1133 -1.3775 -1.4359
15296TIP3   OH267378   4.973   2.508   2.718 -0.4903  0.1700 -0.3441
15296TIP3    H167379   4.990   2.447   2.790 -1.7755 -0.4870 -0.5751
15296TIP3    H267380   5.018   2.469   2.643 -1.0904 -0.3668 -0.4298
15297TIP3   OH267381   0.974   4.813  13.660 -0.1206  0.0525 -0.8787
15297TIP3    H167382   0.947   4.817  13.752  2.1564  2.7799 -0.1945
15297TIP3    H267383   0.917   4.875  13.615 -0.4845 -0.4443 -1.1165
15298TIP3   OH267384   0.358   1.530  11.193  0.2124 -0.1832 -0.0833
15298TIP3    H167385   0.299   1.574  11.132 -0.9195 -0.9698  0.3924
15298TIP3    H267386   0.421   1.484  11.137 -0.6943 -0.7411 -0.6734
15299TIP3   OH267387   4.216   2.353   6.153  0.2048 -0.7683 -0.0821
15299TIP3    H167388   4.307   2.349   6.121 -0.2544  1.2423 -1.9182
15299TIP3    H267389   4.218   2.419   6.222  0.3033 -1.4294  0.5495
15300TIP3   OH267390   1.046   1.708   5.624  0.5090 -0.5284  0.2874
15300TIP3    H167391   0.956   1.717   5.594  0.3195 -2.7160  0.0849
15300TIP3    H267392   1.040   1.653   5.702  1.6320 -0.2282  0.6081
15301TIP3   OH267393   5.606   2.797  15.457 -0.7456 -0.2996  0.7161
15301TIP3    H167394   5.586   2.756  15.373  1.5984 -3.1096  1.3647
15301TIP3    H267395   5.564   2.739  15.522 -1.6824  1.2704  1.5672
15302TIP3   OH267396   6.682   5.681   4.465 -0.2200 -0.2072 -0.1964
15302TIP3    H167397   6.642   5.741   4.528 -1.7438 -2.3277  0.9956
15302TIP3    H267398   6.684   5.730   4.383 -1.9076  1.2834  0.5829
15303TIP3   OH267399   3.378   3.579  11.659  0.5720  0.2967  0.3974
15303TIP3    H167400   3.289   3.552  11.638  0.6604  0.2276  0.0959
15303TIP3    H267401   3.425   3.574  11.575  0.6903  1.0036  0.4202
15304TIP3   OH267402   6.303   5.288  14.565  0.2983 -0.2335 -0.6320
15304TIP3    H167403   6.385   5.239  14.557  0.0446 -0.8007  0.1987
15304TIP3    H267404   6.310   5.357  14.498  1.0917 -0.7782 -1.1247
15305TIP3   OH267405   1.802   0.249  14.075  0.1365 -0.5125  0.1407
15305TIP3    H167406   1.836   0.194  14.145 -0.5158 -1.1079 -0.0035
15305TIP3    H267407   1.829   0.338  14.099  1.3588 -0.9034  0.2750
15306TIP3   OH267408   1.764   3.146   2.720  0.5189 -0.0040 -0.0422
15306TIP3    H167409   1.779   3.180   2.808  1.1647 -0.1479 -0.0936
15306TIP3    H267410   1.684   3.190   2.691  1.0503  1.0974  0.0920
15307TIP3   OH267411   5.553   2.262   2.092 -0.2682  0.5975 -0.7368
15307TIP3    H167412   5.639   2.224   2.110 -0.7081 -1.0642 -1.8308
15307TIP3    H267413   5.491   2.196   2.122 -1.2286  2.1164  0.7841
15308TIP3   OH267414   1.931   4.499   0.661 -0.6009  0.1306 -0.2883
15308TIP3    H167415   1.962   4.541   0.741 -1.6134  0.2800  0.0315
15308TIP3    H267416   1.933   4.569   0.595 -1.5257  0.4885  0.0535
15309TIP3   OH267417   5.231   3.694   4.437  0.3947  0.2680 -0.2583
15309TIP3    H167418   5.140   3.724   4.435 -0.2713 -1.6061 -1.8893
15309TIP3    H267419   5.283   3.774   4.429 -1.1572  1.2633 -0.8975
15310TIP3   OH267420   5.874   0.033   2.176  0.1773 -0.6124 -0.4398
15310TIP3    H167421   5.816   0.042   2.101 -0.4058 -1.0343 -0.0509
15310TIP3    H267422   5.955  -0.003   2.140  0.1324 -0.2219 -0.9519
15311TIP3   OH267423   1.416   4.497  14.277 -0.4603 -0.1747 -0.5317
15311TIP3    H167424   1.436   4.536  14.192  0.9153  0.4014  0.0219
15311TIP3    H267425   1.384   4.410  14.257 -1.2868  0.3677 -1.6900
15312TIP3   OH267426   4.521   2.814   5.083 -0.1835 -0.1536 -0.5900
15312TIP3    H167427   4.474   2.827   5.165 -2.1500 -2.3212 -1.2638
15312TIP3    H267428   4.551   2.901   5.058 -2.8985  1.1897  0.4743
15313TIP3   OH267429   1.760   2.063  11.967  0.2358  0.2096  0.1131
15313TIP3    H167430   1.739   1.970  11.966  0.2152  0.2140 -1.4895
15313TIP3    H267431   1.678   2.105  11.996  0.0482 -0.2196  0.2120
15314TIP3   OH267432   6.136   1.366  11.613 -0.2120  0.0665 -0.1728
15314TIP3    H167433   6.179   1.389  11.530 -1.0165  0.5064 -0.4850
15314TIP3    H267434   6.122   1.272  11.607 -0.1369  0.0720 -0.4764
15315TIP3   OH267435   5.973   4.008   4.867 -0.2249  0.0292  0.8625
15315TIP3    H167436   5.902   4.031   4.807 -0.9581  0.1311  1.7443
15315TIP3    H267437   5.942   4.037   4.953  0.6384 -0.4624  1.3517
15316TIP3   OH267438   2.954   0.971  10.808 -0.1624 -0.6497 -0.1225
15316TIP3    H167439   3.028   0.910  10.810 -0.9775 -1.6863  2.4270
15316TIP3    H267440   2.987   1.049  10.854 -0.1435 -0.4553 -0.4639
15317TIP3   OH267441   5.405   0.050   1.563 -0.3190  0.3406  0.3228
15317TIP3    H167442   5.412   0.144   1.580  0.2202  0.2628  0.5821
15317TIP3    H267443   5.388   0.012   1.650 -0.1686  0.1717  0.2795
15318TIP3   OH267444   4.487   2.668  15.012 -0.0638  0.1426 -0.2236
15318TIP3    H167445   4.402   2.687  15.050  0.6241  1.5064  0.6959
15318TIP3    H267446   4.474   2.678  14.917 -0.5113  2.1500  0.0224
15319TIP3   OH267447   1.897   4.797   4.953  0.0332  0.0492  0.8416
15319TIP3    H167448   1.976   4.831   4.995  0.4081 -2.2108  2.1065
15319TIP3    H267449   1.925   4.769   4.866  0.7220 -0.9936  1.3843
15320TIP3   OH267450   1.907   2.960  10.658 -0.4178 -0.7030  0.1231
15320TIP3    H167451   1.882   2.926  10.572  0.2007  0.9069 -0.7422
15320TIP3    H267452   1.963   3.035  10.639 -2.1310  1.1505  1.8628
15321TIP3   OH267453   6.645   4.224   2.927 -1.1877  0.0006 -0.6994
15321TIP3    H167454   6.643   4.175   3.010  0.3218 -0.1872 -0.7435
15321TIP3    H267455   6.697   4.301   2.946  1.3438 -1.2580 -2.0462
15322TIP3   OH267456   2.637   2.524   0.306 -0.1264 -0.4225 -0.2373
15322TIP3    H167457   2.593   2.504   0.389 -2.2896  0.0071 -1.2049
15322TIP3    H267458   2.626   2.446   0.253  0.6832 -0.4612 -0.3669
15323TIP3   OH267459   4.995   0.709   3.533 -0.2708 -0.0493 -0.2650
15323TIP3    H167460   4.995   0.653   3.611  2.4686  0.9765  0.6063
15323TIP3    H267461   5.037   0.790   3.562  0.7244  0.4327 -2.7673
15324TIP3   OH267462   0.399   0.437   5.576 -0.0404 -0.0176  0.5655
15324TIP3    H167463   0.367   0.509   5.521 -0.4464  0.3867  1.3111
15324TIP3    H267464   0.321   0.389   5.602  0.3844 -1.9965 -1.5856
15325TIP3   OH267465   2.181   4.349   3.735 -0.0586 -0.2530 -0.7625
15325TIP3    H167466   2.201   4.375   3.825 -0.6647 -0.6236 -0.5153
15325TIP3    H267467   2.133   4.424   3.699  0.3845 -0.0093 -0.8553
15326TIP3   OH267468   6.622   2.105  15.780  0.3322  0.1938  0.6087
15326TIP3    H167469   6.596   2.046  15.852  0.3880  0.0032  0.4750
15326TIP3    H267470   6.629   2.191  15.821  0.9326 -0.0108  0.9541
15327TIP3   OH267471   1.460   1.503   0.374  0.3270  0.5610 -0.5411
15327TIP3    H167472   1.530   1.498   0.439 -0.0179  1.7520 -0.0633
15327TIP3    H267473   1.437   1.411   0.357  1.4131  0.1814 -0.0787
15328TIP3   OH267474   6.418   4.320  12.290 -0.0188 -0.3785  0.5301
15328TIP3    H167475   6.350   4.260  12.260 -1.4222  1.5916 -0.4218
15328TIP3    H267476   6.408   4.322  12.385 -0.8646 -0.6063  0.4534
15329TIP3   OH267477   3.387   5.285  11.444 -0.1117  0.1217  0.5483
15329TIP3    H167478   3.367   5.358  11.386 -0.8476 -0.1313  0.4828
15329TIP3    H267479   3.406   5.325  11.529  0.0845  0.4256  0.3623
15330TIP3   OH267480   1.309   4.678  15.210  0.0593 -0.3236  0.0583
15330TIP3    H167481   1.271   4.697  15.296 -0.3214 -0.4680 -0.0760
15330TIP3    H267482   1.396   4.643  15.229 -0.1825 -0.7405  0.3988
15331TIP3   OH267483   0.551   2.499  13.905 -0.2656 -0.3752  0.1527
15331TIP3    H167484   0.519   2.452  13.828  0.2765 -0.2773 -0.1433
15331TIP3    H267485   0.641   2.523  13.882  0.5680 -1.9877  1.5557
15332TIP3   OH267486   2.818   0.046  17.050 -0.2350  0.1688  0.2751
15332TIP3    H167487   2.789   0.122  17.100 -0.4820 -0.3514  0.9474
15332TIP3    H267488   2.877   0.081  16.983 -2.0336  1.1945 -0.8262
15333TIP3   OH267489   5.151   1.586   2.114  0.2159 -0.0481 -0.4561
15333TIP3    H167490   5.078   1.552   2.165 -1.9067  2.7346 -1.3985
15333TIP3    H267491   5.198   1.645   2.173  0.7022 -0.5140 -0.3640
15334TIP3   OH267492   0.335   1.197   3.670  0.0503  0.0550  0.1327
15334TIP3    H167493   0.276   1.256   3.717  0.9097  0.3924  0.8090
15334TIP3    H267494   0.364   1.134   3.736  1.9665  1.0601  0.3210
15335TIP3   OH267495   2.543   6.480  12.561  0.1076 -0.3111  0.1977
15335TIP3    H167496   2.463   6.532  12.561 -1.6018 -2.7731 -0.9508
15335TIP3    H267497   2.514   6.390  12.572  2.6571 -1.3958 -1.1034
15336TIP3   OH267498   1.719   4.343   5.222  0.5767  0.0022  0.2291
15336TIP3    H167499   1.797   4.388   5.188  1.2233  0.3375  2.0588
15336TIP3    H267500   1.663   4.331   5.145  2.1747  0.2649 -1.0341
15337TIP3   OH267501   0.440   4.693  14.807  0.0260  0.1238 -0.5309
15337TIP3    H167502   0.450   4.715  14.900  4.1319 -0.0433 -0.7697
15337TIP3    H267503   0.490   4.760  14.761 -1.1716 -0.3181 -2.6140
15338TIP3   OH267504   6.810   3.196  17.029 -0.5526  0.6379 -0.3806
15338TIP3    H167505   6.813   3.279  16.981 -1.1046  0.8119 -0.1195
15338TIP3    H267506   6.852   3.216  17.113 -0.8275  0.6969 -0.2566
15339TIP3   OH267507   5.996   0.967  10.039 -0.1382 -0.1714 -0.0043
15339TIP3    H167508   5.919   0.910  10.042  0.1195 -0.4915  1.3111
15339TIP3    H267509   6.070   0.908  10.036  0.0813  0.1293 -0.6657
15340TIP3   OH267510   6.545   5.741   0.719  0.5657  0.1816 -0.0366
15340TIP3    H167511   6.625   5.782   0.687  0.9417  0.3369  1.0573
15340TIP3    H267512   6.474   5.796   0.685  1.0288  1.3155  0.7825
15341TIP3   OH267513   3.670   1.418  14.885 -0.5184 -0.2883 -0.4472
15341TIP3    H167514   3.741   1.355  14.898  0.9129  1.3901  0.1868
15341TIP3    H267515   3.713   1.496  14.850 -2.1046  0.6589 -0.3658
15342TIP3   OH267516   6.008   6.479  16.888  0.1633  0.3083  0.2856
15342TIP3    H167517   5.933   6.523  16.927  0.3169  0.7330  0.1088
15342TIP3    H267518   6.069   6.550  16.867  0.2478  0.0437 -0.3682
15343TIP3   OH267519   2.643   2.573   5.980  0.3436 -0.3830 -0.2193
15343TIP3    H167520   2.587   2.502   6.010 -0.5528  0.9237  1.3517
15343TIP3    H267521   2.668   2.547   5.891 -3.3295 -0.7230 -1.3381
15344TIP3   OH267522   5.444   6.708   6.420 -0.4539  0.2645  0.2029
15344TIP3    H167523   5.506   6.635   6.420 -0.5265  0.2055  0.6422
15344TIP3    H267524   5.434   6.731   6.512 -0.7965  0.5228  0.1006
15345TIP3   OH267525   4.988   3.928   4.996 -0.2761 -0.7049 -0.1300
15345TIP3    H167526   5.030   3.948   4.912  0.0758 -1.4248 -0.1328
15345TIP3    H267527   5.041   3.858   5.033 -2.3490 -2.8207 -0.8834
15346TIP3   OH267528   5.244   5.956   0.239  0.2083 -0.2386  0.1288
15346TIP3    H167529   5.269   5.864   0.248  1.2272  0.1185  1.3095
15346TIP3    H267530   5.300   6.002   0.302 -1.4367  0.9817  0.7683
15347TIP3   OH267531   4.670   3.545  14.026 -0.0035  0.3999 -0.3477
15347TIP3    H167532   4.588   3.591  14.006  0.5640  1.8379  0.4876
15347TIP3    H267533   4.738   3.601  13.990  0.6621 -0.4021 -0.3586
15348TIP3   OH267534   3.578   5.444   1.090  0.4330  0.8359  0.2017
15348TIP3    H167535   3.605   5.390   1.164  0.6363 -0.2930 -0.6541
15348TIP3    H267536   3.660   5.470   1.048  0.3291  1.7047  0.5122
15349TIP3   OH267537   5.685   1.285   3.435 -0.1746 -0.3859  0.8030
15349TIP3    H167538   5.707   1.372   3.403  2.1987 -0.7105  1.3208
15349TIP3    H267539   5.591   1.288   3.451 -0.1140  2.1855  1.1301
15350TIP3   OH267540   4.692   5.276  12.457  0.1226 -0.6459  0.0049
15350TIP3    H167541   4.747   5.209  12.416 -0.4276 -1.0685 -0.0535
15350TIP3    H267542   4.753   5.326  12.513  0.2704 -2.1784  1.2947
15351TIP3   OH267543   0.043   2.964  13.992  0.3544  0.4198  0.0866
15351TIP3    H167544   0.041   2.952  14.087 -0.2983  2.0587  0.3051
15351TIP3    H267545   0.041   2.875  13.957 -2.3789 -0.2223  1.5919
15352TIP3   OH267546   4.164   5.886   0.272 -0.4527  0.0076 -0.5662
15352TIP3    H167547   4.094   5.902   0.335  0.8096 -2.6261  1.7280
15352TIP3    H267548   4.245   5.906   0.319  0.5023 -0.2729 -2.0017
15353TIP3   OH267549   5.239   3.281  16.724  0.1510  0.6752  0.5565
15353TIP3    H167550   5.270   3.366  16.693 -1.8094  1.5653  0.8656
15353TIP3    H267551   5.311   3.221  16.706  1.2644  2.2370 -0.4485
15354TIP3   OH267552   4.051   0.508  12.380 -0.4412 -0.4404  0.1578
15354TIP3    H167553   4.116   0.448  12.419 -0.3352  0.4093  1.3412
15354TIP3    H267554   4.104   0.578  12.343 -0.6057 -0.6807 -0.5397
15355TIP3   OH267555   0.680   3.700   3.574 -0.4155 -0.1185  0.0916
15355TIP3    H167556   0.680   3.771   3.510  2.3017 -0.1235 -0.0105
15355TIP3    H267557   0.666   3.744   3.658 -0.0991  0.3561 -0.1034
15356TIP3   OH267558   5.150   2.170   0.909  0.1053  0.0951  0.0188
15356TIP3    H167559   5.098   2.250   0.901  2.0385  1.4552  0.3185
15356TIP3    H267560   5.129   2.137   0.997 -2.3584 -1.0201 -0.9139
15357TIP3   OH267561   5.191   2.713   3.265 -0.2679 -0.1626 -0.6199
15357TIP3    H167562   5.232   2.651   3.204 -0.1390 -1.4395  0.7189
15357TIP3    H267563   5.121   2.753   3.214  0.5511 -0.3411 -1.9597
15358TIP3   OH267564   6.606   4.242   1.475  0.4143 -0.4283  0.6536
15358TIP3    H167565   6.639   4.204   1.556  1.5282 -1.5044 -0.2695
15358TIP3    H267566   6.656   4.199   1.405 -0.8389  0.1154 -0.6406
15359TIP3   OH267567   6.289   5.581   4.504  0.2718 -0.2698 -0.1068
15359TIP3    H167568   6.361   5.571   4.441  0.0162 -0.1292 -0.4219
15359TIP3    H267569   6.225   5.635   4.459  0.5796  0.7943  0.6961
15360TIP3   OH267570   2.045   2.460  14.894 -0.4144 -0.2571 -0.0286
15360TIP3    H167571   1.955   2.440  14.868 -0.8059 -0.5043  1.4629
15360TIP3    H267572   2.082   2.376  14.919 -0.8007  0.2269  2.3963
15361TIP3   OH267573   5.677   0.515  15.812  0.0027  0.0680  0.3783
15361TIP3    H167574   5.622   0.538  15.737  0.9264  0.4838 -0.1998
15361TIP3    H267575   5.620   0.523  15.888 -0.8880 -0.1125 -0.2598
15362TIP3   OH267576   1.726   5.507   3.409  0.1182  0.2871  0.2710
15362TIP3    H167577   1.746   5.464   3.326 -1.1183 -0.5323  0.3739
15362TIP3    H267578   1.801   5.488   3.465  1.0335  0.9753 -0.6823
15363TIP3   OH267579   5.714   3.816   4.929 -0.3938 -0.2082  0.5558
15363TIP3    H167580   5.733   3.852   5.015  1.5672  1.7798 -0.5919
15363TIP3    H267581   5.746   3.726   4.933 -1.8803 -0.7195  2.3550
15364TIP3   OH267582   0.825   4.472  14.542  0.1706  0.0257 -0.3561
15364TIP3    H167583   0.762   4.401  14.539 -0.4969  0.4609  1.7059
15364TIP3    H267584   0.800   4.530  14.470 -1.7672  0.1400  0.3623
15365TIP3   OH267585   3.288   1.190   2.665 -0.0637 -0.0524 -0.0529
15365TIP3    H167586   3.329   1.116   2.620 -1.0513 -0.6361 -0.0414
15365TIP3    H267587   3.270   1.253   2.595  0.9011  0.2438 -0.0440
15366TIP3   OH267588   0.866   3.112  15.021  0.2202  0.1710 -0.0601
15366TIP3    H167589   0.820   3.188  14.987  0.1987  0.7485  1.2163
15366TIP3    H267590   0.878   3.055  14.944  0.9229  1.7804 -1.2102
15367TIP3   OH267591   0.820   5.277  14.697 -0.9551  0.1536  0.0520
15367TIP3    H167592   0.894   5.325  14.658  0.7662 -1.5728  0.9971
15367TIP3    H267593   0.800   5.325  14.777 -0.1914  0.0893  0.2901
15368TIP3   OH267594   1.025   3.164  13.712 -0.1099  0.6287  1.1230
15368TIP3    H167595   1.003   3.076  13.683 -1.3071  0.9155  1.1230
15368TIP3    H267596   0.947   3.195  13.759  1.1683  0.7602  3.3171
15369TIP3   OH267597   5.709   2.321  15.549 -0.1630 -0.0779 -0.1822
15369TIP3    H167598   5.662   2.403  15.540  0.6889  0.4136 -0.2001
15369TIP3    H267599   5.644   2.261  15.587 -0.4626  0.9090  0.9435
15370TIP3   OH267600   0.801   1.706  16.686  0.0127  0.4033  0.7033
15370TIP3    H167601   0.889   1.704  16.649  0.3863 -0.6328  1.5604
15370TIP3    H267602   0.743   1.708  16.611  0.7412 -1.4854  0.0289
15371TIP3   OH267603   5.912   4.034  11.851  0.7175 -0.6125 -0.2884
15371TIP3    H167604   5.879   4.123  11.861  1.3200 -0.2896 -1.0043
15371TIP3    H267605   5.921   4.023  11.756  0.8884 -1.3396 -0.1886
15372TIP3   OH267606   0.754   0.762  10.717  0.0903 -0.9758 -0.5175
15372TIP3    H167607   0.847   0.773  10.698  0.2540  0.0838  0.7101
15372TIP3    H267608   0.738   0.668  10.709  1.1065 -1.0930 -1.3867
15373TIP3   OH267609   1.550   0.299   2.095 -0.5271 -0.0910  0.4340
15373TIP3    H167610   1.542   0.242   2.172  2.4356 -1.0737  0.1597
15373TIP3    H267611   1.594   0.377   2.128  2.2324 -1.1812 -0.4180
15374TIP3   OH267612   0.940   1.910   4.166  0.1354  0.2786  0.6428
15374TIP3    H167613   0.971   1.955   4.245  0.3992 -0.9922  1.2757
15374TIP3    H267614   0.925   1.820   4.194 -1.2374  0.1542 -0.3930
15375TIP3   OH267615   2.321   5.548   5.155 -0.1387  0.4101 -0.2216
15375TIP3    H167616   2.232   5.540   5.189  0.4065 -0.2267  1.1051
15375TIP3    H267617   2.347   5.458   5.134  0.7852  0.3663  1.0141
15376TIP3   OH267618   6.654   5.725  11.715 -0.4298  0.1359  0.4515
15376TIP3    H167619   6.694   5.760  11.795 -1.3303  1.1040  0.5076
15376TIP3    H267620   6.724   5.724  11.651  0.0950  0.1700  1.0175
15377TIP3   OH267621   1.038   1.975  14.683  0.0335  0.4703 -0.1557
15377TIP3    H167622   1.018   1.918  14.609  2.4190  0.2337 -0.7176
15377TIP3    H267623   1.082   1.918  14.746 -0.2349  1.0865  0.6029
15378TIP3   OH267624   2.505   2.393   2.682 -0.2277 -0.0421  0.2081
15378TIP3    H167625   2.573   2.457   2.702 -0.0567 -0.0362 -0.3871
15378TIP3    H267626   2.519   2.370   2.590 -0.1216 -1.1386  0.4814
15379TIP3   OH267627   0.060   5.246  13.744  0.0214 -0.3089 -0.0017
15379TIP3    H167628   0.045   5.278  13.655 -0.9321  0.1632  0.3081
15379TIP3    H267629   0.149   5.274  13.766 -0.0323  0.2797 -0.5108
15380TIP3   OH267630   0.788   5.650   4.985  0.2830 -0.3008 -0.5202
15380TIP3    H167631   0.740   5.727   5.016 -0.0731 -0.2633 -1.1439
15380TIP3    H267632   0.863   5.686   4.939 -1.9068 -0.0783 -4.3388
15381TIP3   OH267633   3.371   2.620  16.642 -0.6314  0.3589  0.5420
15381TIP3    H167634   3.449   2.592  16.689 -0.3446 -0.3913 -0.3582
15381TIP3    H267635   3.322   2.672  16.706  1.3514  2.2299  0.6587
15382TIP3   OH267636   2.491   5.703   3.148 -0.0471  0.0543  0.0073
15382TIP3    H167637   2.435   5.754   3.207  1.6619 -0.0765  1.8656
15382TIP3    H267638   2.580   5.736   3.166  1.0806 -3.1584  0.9700
15383TIP3   OH267639   3.963   0.122   5.585  0.8062 -0.1319 -0.1661
15383TIP3    H167640   4.014   0.178   5.527  0.4764 -0.4863 -0.8009
15383TIP3    H267641   3.973   0.162   5.672 -0.0112  1.3175 -0.7114
15384TIP3   OH267642   5.246   2.504   0.770  0.6169  0.1813 -0.1354
15384TIP3    H167643   5.171   2.445   0.764  0.5873 -0.0716  1.9674
15384TIP3    H267644   5.268   2.507   0.864  3.8404 -0.5052 -0.7332
15385TIP3   OH267645   0.531   5.010  14.645  0.0336 -0.1698 -0.3716
15385TIP3    H167646   0.468   4.969  14.586 -1.5801 -0.2609  1.3145
15385TIP3    H267647   0.535   5.101  14.616 -1.1523 -0.0878 -0.3119
15386TIP3   OH267648   3.847   5.163  13.219  0.1979  0.2229 -0.2509
15386TIP3    H167649   3.761   5.177  13.257  0.8861  2.2579  0.6937
15386TIP3    H267650   3.858   5.234  13.156  0.8848 -0.4743 -0.9386
15387TIP3   OH267651   3.698   3.592   3.942 -0.4801  0.1180  0.0361
15387TIP3    H167652   3.707   3.671   3.889  0.8117  0.2527  0.4334
15387TIP3    H267653   3.787   3.572   3.971 -0.7955 -1.4421  0.0090
15388TIP3   OH267654   3.233   5.436  13.438 -0.2703 -0.4356 -0.3800
15388TIP3    H167655   3.151   5.483  13.450 -0.0335 -0.0465 -0.2623
15388TIP3    H267656   3.211   5.344  13.456 -0.7790 -0.4045 -0.8057
15389TIP3   OH267657   1.951   2.244  13.625  0.4794  0.4870 -0.0454
15389TIP3    H167658   2.035   2.198  13.612 -0.1478 -1.2528  1.5646
15389TIP3    H267659   1.972   2.336  13.609  2.6329  0.0750  0.0167
15390TIP3   OH267660   0.127   0.589  14.273 -0.0020 -0.2475 -0.0118
15390TIP3    H167661   0.174   0.613  14.194 -0.9685 -1.0714 -0.8586
15390TIP3    H267662   0.071   0.515  14.247 -1.3423  0.3301  1.0945
15391TIP3   OH267663   4.522   6.279  11.098 -0.2094  0.0524  0.2210
15391TIP3    H167664   4.441   6.278  11.149 -0.3248 -1.0180  0.0340
15391TIP3    H267665   4.500   6.327  11.019 -0.2770  0.9409  0.7615
15392TIP3   OH267666   3.252   5.597   0.741  0.5006  0.6080  0.0561
15392TIP3    H167667   3.296   5.526   0.787 -0.2002  0.0601 -0.1162
15392TIP3    H267668   3.323   5.648   0.702  0.9908 -0.1075  0.0097
15393TIP3   OH267669   1.587   1.209  14.900 -0.1112  0.1254 -0.2969
15393TIP3    H167670   1.566   1.213  14.994  0.8519  0.9077 -0.1053
15393TIP3    H267671   1.533   1.278  14.861  0.6632  0.8678 -0.0779
15394TIP3   OH267672   3.352   4.584   2.992  0.2959 -0.3945  0.0558
15394TIP3    H167673   3.393   4.599   3.077 -0.3923  2.5420 -0.0249
15394TIP3    H267674   3.350   4.670   2.950 -1.3006 -1.3544 -2.0559
15395TIP3   OH267675   0.544   6.056  16.401  0.3298 -0.7574  0.1248
15395TIP3    H167676   0.588   5.971  16.395 -2.1552 -2.2276  1.0221
15395TIP3    H267677   0.503   6.067  16.315  0.1461 -0.7739  0.2101
15396TIP3   OH267678   3.229   5.845   4.908 -0.1582  0.2717  0.0994
15396TIP3    H167679   3.157   5.853   4.971  0.4188  0.8446  0.6947
15396TIP3    H267680   3.224   5.925   4.856 -1.1784 -0.5826 -1.2026
15397TIP3   OH267681   1.175   2.114  17.091  0.0099  0.4464 -0.0428
15397TIP3    H167682   1.102   2.054  17.106  0.9685 -0.9737 -0.9005
15397TIP3    H267683   1.133   2.200  17.081 -1.2420  0.3209  3.0667
15398TIP3   OH267684   6.386   0.588   3.645 -0.2618  0.1863 -0.7191
15398TIP3    H167685   6.464   0.543   3.678 -1.0322 -0.1962  0.6298
15398TIP3    H267686   6.329   0.598   3.721 -0.4943  2.7091 -1.1543
15399TIP3   OH267687   3.649   0.856   3.809 -0.4910  0.1945  0.1236
15399TIP3    H167688   3.697   0.922   3.859 -0.8930  0.6862 -0.1293
15399TIP3    H267689   3.634   0.896   3.723  0.5729 -0.8102 -0.5534
15400TIP3   OH267690   5.038   2.495  16.213  0.2759 -0.1904  0.4251
15400TIP3    H167691   4.959   2.498  16.266  0.6450 -2.3397  1.2038
15400TIP3    H267692   5.108   2.477  16.275  1.1917  0.3166 -0.4245
15401TIP3   OH267693   0.598   2.945   0.532 -0.2642  0.3369  0.0495
15401TIP3    H167694   0.527   2.981   0.585 -0.2829  1.1382 -0.4996
15401TIP3    H267695   0.564   2.860   0.503 -0.4811  0.1442  0.8310
15402TIP3   OH267696   3.144   5.488   5.365 -0.2138  0.4864 -0.2224
15402TIP3    H167697   3.224   5.527   5.330  1.6057 -2.5515  0.2843
15402TIP3    H267698   3.159   5.482   5.459 -0.5660 -1.0722 -0.2461
15403TIP3   OH267699   5.461   1.517   2.688  0.2993 -0.0000  0.2366
15403TIP3    H167700   5.438   1.596   2.639 -1.5069  1.4981  3.2286
15403TIP3    H267701   5.523   1.547   2.754 -0.5574 -0.9975  1.5443
15404TIP3   OH267702   4.625   1.039  15.500  0.6912  0.2370 -0.3562
15404TIP3    H167703   4.618   1.128  15.465  0.5535  1.0222  1.5134
15404TIP3    H267704   4.545   0.996  15.474  1.8836 -0.2726 -3.5689
15405TIP3   OH267705   6.121   2.407  10.281  0.2521  0.2310  0.6565
15405TIP3    H167706   6.112   2.402  10.376  1.4444  1.3126  0.8528
15405TIP3    H267707   6.182   2.480  10.267 -0.5103  0.5934 -0.9697
15406TIP3   OH267708   3.923   3.087   2.591  0.0932 -0.8140  0.1721
15406TIP3    H167709   3.950   3.170   2.551  0.3820  0.8702  3.5320
15406TIP3    H267710   3.972   3.020   2.543 -0.1567  0.8485 -2.6598
15407TIP3   OH267711   1.514   4.782   3.235 -0.1134 -0.3042  0.2405
15407TIP3    H167712   1.582   4.842   3.203 -1.1706  1.3768  1.0038
15407TIP3    H267713   1.470   4.831   3.304 -2.1442 -1.3282 -0.2575
15408TIP3   OH267714   4.196   4.189  14.357  0.4413 -0.8142 -0.2099
15408TIP3    H167715   4.289   4.203  14.340  0.7058 -0.9072  1.0856
15408TIP3    H267716   4.167   4.132  14.285  1.9482 -2.7826  0.6541
15409TIP3   OH267717   0.001   5.728   0.701  0.1920 -0.3452 -0.1416
15409TIP3    H167718  -0.016   5.643   0.661  0.7975 -1.7303  2.3394
15409TIP3    H267719   0.026   5.784   0.628 -0.2991 -2.2566 -1.8742
15410TIP3   OH267720   3.178   4.493   5.904 -0.6134  0.3801 -0.5299
15410TIP3    H167721   3.189   4.517   5.995  3.1693 -3.7227  0.4311
15410TIP3    H267722   3.110   4.425   5.905 -0.9030  0.6611 -0.8448
15411TIP3   OH267723   4.833   2.417   2.186  0.6950 -0.3460 -0.4423
15411TIP3    H167724   4.799   2.329   2.203  0.1944 -0.1370 -0.3067
15411TIP3    H267725   4.756   2.474   2.198  0.6674 -0.0227 -1.9401
15412TIP3   OH267726   2.051   3.595  16.821 -0.3523 -0.1128  0.9465
15412TIP3    H167727   2.057   3.597  16.917 -1.4172  0.0288  1.0155
15412TIP3    H267728   2.089   3.510  16.797 -0.0864 -0.1525  1.4885
15413TIP3   OH267729   5.284   6.535  14.825 -0.0427 -0.5037 -0.0656
15413TIP3    H167730   5.211   6.483  14.791 -1.2370 -0.2186  1.9262
15413TIP3    H267731   5.249   6.625  14.830  1.3720  0.1891 -1.6501
15414TIP3   OH267732   3.539   2.047   6.272  0.0066 -0.6316 -0.1135
15414TIP3    H167733   3.443   2.048   6.275 -0.0064  1.9585  1.9133
15414TIP3    H267734   3.566   2.039   6.364  1.7139 -0.2017 -0.5394
15415TIP3   OH267735   3.152   4.113  10.972 -0.6282 -0.1255 -0.0745
15415TIP3    H167736   3.074   4.155  10.937 -0.6465 -1.6284 -1.9959
15415TIP3    H267737   3.225   4.169  10.946 -0.9731  0.9928  1.2565
15416TIP3   OH267738   0.231   4.220  11.527  0.3395 -0.7359  0.8018
15416TIP3    H167739   0.246   4.305  11.485  0.3449 -0.7831  0.7090
15416TIP3    H267740   0.160   4.237  11.589 -1.0454 -1.1200 -0.6328
15417TIP3   OH267741   0.865   4.967  13.383 -0.2462 -0.6128 -0.1587
15417TIP3    H167742   0.877   5.061  13.381  1.2962 -0.5133  3.7436
15417TIP3    H267743   0.770   4.954  13.385 -0.4691  0.9715  0.4750
15418TIP3   OH267744   5.014   3.662  15.397 -0.5517 -0.0334  0.2580
15418TIP3    H167745   4.979   3.577  15.372 -0.2779  0.2684 -1.2730
15418TIP3    H267746   4.936   3.717  15.411 -0.8447  0.6221 -3.0714
15419TIP3   OH267747   1.983   4.223   0.593 -0.4332  0.1294 -0.3783
15419TIP3    H167748   2.062   4.192   0.550 -0.2925  0.7635 -0.5878
15419TIP3    H267749   2.001   4.315   0.614 -1.4864  0.5810 -1.3448
15420TIP3   OH267750   1.744   5.541   1.542 -0.4622 -0.2036 -0.8835
15420TIP3    H167751   1.739   5.614   1.603 -1.2997 -0.3178 -0.8049
15420TIP3    H267752   1.705   5.467   1.589  0.2498 -0.6680 -1.0108
15421TIP3   OH267753   6.599   5.316  14.747 -0.3774  0.0407 -0.0522
15421TIP3    H167754   6.523   5.368  14.774  0.1676  1.0719 -0.4584
15421TIP3    H267755   6.672   5.378  14.750  0.5958 -1.1179  1.0665
15422TIP3   OH267756   6.808   2.782   2.908  0.1951  0.0049  0.1438
15422TIP3    H167757   6.731   2.790   2.964 -0.9952 -1.6324 -1.1772
15422TIP3    H267758   6.785   2.831   2.829  1.0069  0.5202  0.2209
15423TIP3   OH267759   3.154   2.873   1.471 -0.1869  0.2614  0.0149
15423TIP3    H167760   3.074   2.925   1.460 -1.1733 -1.0695  0.6419
15423TIP3    H267761   3.134   2.789   1.428  0.7024 -0.2615  0.5937
15424TIP3   OH267762   3.733   4.185   6.015  0.0855 -0.2439 -0.4368
15424TIP3    H167763   3.713   4.263   6.068  0.0471 -0.3603 -0.2776
15424TIP3    H267764   3.647   4.156   5.983  0.1914  0.3119 -1.2581
15425TIP3   OH267765   2.925   4.152  16.014 -0.1340 -0.0998  0.1504
15425TIP3    H167766   2.873   4.129  15.937  0.5452  0.3026 -0.4420
15425TIP3    H267767   2.924   4.073  16.068 -1.5234 -0.0331  0.2603
15426TIP3   OH267768   3.506   3.162   3.941  0.0492 -0.0651  0.1889
15426TIP3    H167769   3.478   3.144   3.851 -1.1279  2.0184  0.0556
15426TIP3    H267770   3.593   3.201   3.932 -0.1252  0.2724 -0.0774
15427TIP3   OH267771   2.813   5.150   4.604 -0.5066  0.2713  0.2091
15427TIP3    H167772   2.738   5.106   4.564 -0.0475  0.1487 -0.5398
15427TIP3    H267773   2.795   5.243   4.592 -0.3229  0.2347 -0.4021
15428TIP3   OH267774   5.042   1.710  12.267 -0.3634  0.0226  0.1806
15428TIP3    H167775   5.124   1.661  12.257 -0.0827 -0.0001  2.2188
15428TIP3    H267776   4.982   1.648  12.308 -0.9350  0.5024  0.0809
15429TIP3   OH267777   3.234   3.914  15.666 -0.4210  0.4395  0.0302
15429TIP3    H167778   3.183   3.836  15.644 -1.3052  0.9579  0.1717
15429TIP3    H267779   3.168   3.983  15.674  0.3048  1.1037  0.3399
15430TIP3   OH267780   0.490   6.284   1.415 -0.2349 -0.0032 -0.0534
15430TIP3    H167781   0.488   6.189   1.428 -0.1790 -0.1413 -0.9476
15430TIP3    H267782   0.541   6.318   1.487 -0.1231 -0.6750  0.1871
15431TIP3   OH267783   5.550   3.317   2.465 -0.3493 -0.2089 -0.2647
15431TIP3    H167784   5.528   3.395   2.414 -0.0254 -0.8897 -1.4923
15431TIP3    H267785   5.645   3.307   2.453 -0.4615 -1.0430 -0.5182
15432TIP3   OH267786   0.522   2.164  13.229 -0.1378  0.5117  0.1480
15432TIP3    H167787   0.472   2.087  13.255 -0.6907  0.2085 -1.6249
15432TIP3    H267788   0.534   2.214  13.309 -3.6037  0.7699  0.6602
15433TIP3   OH267789   0.401   0.744   4.009 -0.0448 -0.1762 -0.4400
15433TIP3    H167790   0.412   0.729   3.915 -0.6437 -1.7155 -0.3002
15433TIP3    H267791   0.386   0.656   4.045 -0.0477  0.4178  1.0621
15434TIP3   OH267792   0.624   1.054  10.900 -0.5613  0.2820  0.0495
15434TIP3    H167793   0.535   1.035  10.929  0.4601 -3.9130  1.0918
15434TIP3    H267794   0.622   1.037  10.805 -0.7986 -0.1376  0.1268
15435TIP3   OH267795   1.214   0.938   6.325 -0.6577 -0.4086 -0.5093
15435TIP3    H167796   1.214   0.857   6.375 -1.4578 -0.0862  0.0384
15435TIP3    H267797   1.294   0.934   6.273  0.8026 -0.2877  1.5672
15436TIP3   OH267798   6.148   3.319  13.258  0.4319  0.4631  0.4450
15436TIP3    H167799   6.092   3.277  13.322 -0.7603 -0.2716 -1.0191
15436TIP3    H267800   6.122   3.281  13.174  2.4024  0.8783 -0.4215
15437TIP3   OH267801   3.237   5.500  11.822  0.2290  0.3187 -0.5352
15437TIP3    H167802   3.243   5.563  11.894  1.3937 -0.4664  0.0901
15437TIP3    H267803   3.146   5.505  11.793  0.2707  2.2419 -0.4760
15438TIP3   OH267804   0.400   3.829  15.027 -0.1726  0.2492  0.1791
15438TIP3    H167805   0.401   3.925  15.025 -1.3091  0.2993  1.0679
15438TIP3    H267806   0.308   3.807  15.040  0.1430 -0.9570  0.4338
15439TIP3   OH267807   6.058   0.230  16.152  0.5445 -0.3002 -0.4653
15439TIP3    H167808   6.132   0.204  16.207  1.6563 -0.6735 -2.0336
15439TIP3    H267809   5.982   0.191  16.193  1.6203 -2.4789 -0.3846
15440TIP3   OH267810   6.408   6.628   5.676  0.2445 -0.0663  0.1045
15440TIP3    H167811   6.391   6.586   5.760 -0.7075 -0.7958 -0.4263
15440TIP3    H267812   6.474   6.572   5.634 -0.6997 -0.8289 -0.4175
15441TIP3   OH267813   3.856   3.618   2.478  0.5789 -0.2087  0.4211
15441TIP3    H167814   3.788   3.571   2.429 -0.9026  1.3730  0.8483
15441TIP3    H267815   3.878   3.692   2.423 -0.1505  0.8586  1.5077
15442TIP3   OH267816   6.097   3.821   0.733 -0.5442 -0.3381 -0.5437
15442TIP3    H167817   6.113   3.749   0.672 -0.4049 -0.6411 -0.1595
15442TIP3    H267818   6.152   3.893   0.702 -1.4798 -0.0365 -1.5503
15443TIP3   OH267819   0.641   3.735   1.514 -0.3127 -0.1549 -0.7076
15443TIP3    H167820   0.678   3.649   1.493  1.4629  0.8603 -2.1244
15443TIP3    H267821   0.651   3.743   1.609  1.8920 -0.5583 -0.8396
15444TIP3   OH267822   4.749   1.303  16.435  0.6049 -0.3637  0.2028
15444TIP3    H167823   4.791   1.243  16.373 -2.4338 -0.9486 -1.4900
15444TIP3    H267824   4.670   1.256  16.464  0.2722  1.2194  2.0741
15445TIP3   OH267825   1.072   0.828  16.010  0.2792 -0.0730  0.2218
15445TIP3    H167826   0.992   0.786  15.978 -0.5063  0.5553  1.2795
15445TIP3    H267827   1.085   0.792  16.098  2.2466 -1.5786 -0.6092
15446TIP3   OH267828   2.003   4.242  13.314 -0.1588 -0.1419 -0.3337
15446TIP3    H167829   2.042   4.155  13.320  1.2635  0.5857  2.0246
15446TIP3    H267830   1.959   4.242  13.229  1.8344 -2.3257 -1.4905
15447TIP3   OH267831   4.386   0.196  13.774 -0.3188 -0.2406  0.0315
15447TIP3    H167832   4.389   0.103  13.794  2.8391 -0.2062  0.1568
15447TIP3    H267833   4.381   0.238  13.860 -1.2074 -0.2681 -0.0011
15448TIP3   OH267834   3.162   4.595  12.473  0.4079 -0.7946 -0.9566
15448TIP3    H167835   3.205   4.520  12.513  1.8605 -0.1565 -1.2716
15448TIP3    H267836   3.203   4.605  12.387 -0.3382 -0.1302 -1.2625
15449TIP3   OH267837   3.706   3.006   3.786  0.1564  0.2134  0.4692
15449TIP3    H167838   3.610   3.010   3.787  0.1884  1.0959  0.5399
15449TIP3    H267839   3.733   3.093   3.759  0.9420 -0.1324  0.1117
15450TIP3   OH267840   1.610   5.107   5.311  0.2205 -0.0320 -0.5207
15450TIP3    H167841   1.635   5.199   5.303  1.0284 -0.0451  1.3896
15450TIP3    H267842   1.639   5.067   5.228  2.1801  0.9488 -0.3668
15451TIP3   OH267843   2.292   5.089  11.970  0.2475  0.3899  0.3882
15451TIP3    H167844   2.343   5.061  12.046 -0.6772 -3.0190 -0.0742
15451TIP3    H267845   2.358   5.104  11.902  0.8698 -1.5565  0.4866
15452TIP3   OH267846   1.069   3.601   2.878  0.2921 -0.0298 -0.2512
15452TIP3    H167847   1.146   3.646   2.914  1.1163 -1.0124 -0.7128
15452TIP3    H267848   0.999   3.666   2.883  0.4467  0.0575  2.6460
15453TIP3   OH267849   0.046   5.243   2.505 -0.1962 -0.4154 -0.4056
15453TIP3    H167850   0.006   5.222   2.589 -0.3999  0.1720 -0.3508
15453TIP3    H267851  -0.026   5.277   2.451  0.1791  0.5151 -0.3515
15454TIP3   OH267852   1.524   4.483  11.701 -0.2477 -0.1091 -0.0378
15454TIP3    H167853   1.442   4.511  11.661 -0.3774 -0.6522 -0.1727
15454TIP3    H267854   1.532   4.391  11.675  1.3307  0.4192 -1.5826
15455TIP3   OH267855   4.676   1.669   1.081 -0.4301 -0.3053  0.5212
15455TIP3    H167856   4.746   1.694   1.020 -0.7393 -1.9939 -0.5953
15455TIP3    H267857   4.603   1.644   1.025 -1.7834  0.8915  1.6652
15456TIP3   OH267858   2.469   6.770   1.544  0.8389 -0.7084 -0.1018
15456TIP3    H167859   2.408   6.826   1.591 -0.9440 -1.4902 -1.3707
15456TIP3    H267860   2.532   6.742   1.611  0.6453  1.2141  0.9564
15457TIP3   OH267861   2.360   3.207   2.453  0.1239  0.1369  0.2414
15457TIP3    H167862   2.451   3.182   2.470  0.2031  1.0462  1.2947
15457TIP3    H267863   2.345   3.181   2.362  1.6507  0.5479 -0.1681
15458TIP3   OH267864   1.403   4.922  12.457  0.1203  0.3673  0.3300
15458TIP3    H167865   1.485   4.943  12.413  0.3056  1.1910  1.0303
15458TIP3    H267866   1.418   4.946  12.549 -0.3702 -0.9764  0.7852
15459TIP3   OH267867   1.617   1.316   2.175  0.4955  0.3885  0.4261
15459TIP3    H167868   1.585   1.230   2.203  1.5579  0.4872  2.0771
15459TIP3    H267869   1.688   1.296   2.114 -1.0268  0.1583 -1.3517
15460TIP3   OH267870   1.813   4.054  10.967  0.2313  0.4597 -0.5381
15460TIP3    H167871   1.740   4.046  11.028  0.3675  0.0406 -0.4264
15460TIP3    H267872   1.877   3.991  10.998 -0.1256 -0.5307 -1.7209
15461TIP3   OH267873   2.440   5.081   6.503  0.1336  0.2300  0.7066
15461TIP3    H167874   2.472   5.170   6.495 -1.9372  1.0339  0.7564
15461TIP3    H267875   2.351   5.090   6.538  0.0653 -1.8817  1.2633
15462TIP3   OH267876   3.981   1.306  14.150 -0.1765  0.5167 -0.1424
15462TIP3    H167877   3.930   1.378  14.187  1.0807  1.1589  0.4023
15462TIP3    H267878   3.984   1.240  14.220 -1.4006 -0.1403 -0.6705
15463TIP3   OH267879   2.069   5.142   5.884 -0.1244  0.2067  0.0408
15463TIP3    H167880   2.164   5.149   5.897 -0.1176 -0.1374  0.1889
15463TIP3    H267881   2.031   5.184   5.962 -0.0890 -0.1832  0.2733
15464TIP3   OH267882   2.753   4.815   2.226  0.2521  0.4258 -0.2319
15464TIP3    H167883   2.721   4.825   2.315  0.5973 -0.4370  0.0006
15464TIP3    H267884   2.846   4.792   2.236 -0.0271 -1.0118 -0.7523
15465TIP3   OH267885   1.733   2.586   3.373 -0.1141 -0.1222  0.1577
15465TIP3    H167886   1.780   2.555   3.295 -0.2177 -0.8330  0.3655
15465TIP3    H267887   1.802   2.619   3.431  0.0955 -0.7641  0.2850
15466TIP3   OH267888   4.049   4.044   2.946  0.2958  0.5927  0.1813
15466TIP3    H167889   4.088   3.958   2.966  0.6122  0.9373  1.0716
15466TIP3    H267890   3.964   4.023   2.909  0.8163 -0.1412 -0.6512
15467TIP3   OH267891   4.958   4.829  13.986  0.0421  0.3229 -0.1533
15467TIP3    H167892   4.924   4.818  14.075  0.6227  1.3004  0.1988
15467TIP3    H267893   4.880   4.826  13.931 -0.4299  0.7046  0.4734
15468TIP3   OH267894   2.222   0.690  16.920  0.6298 -0.1163 -0.0572
15468TIP3    H167895   2.140   0.721  16.958 -0.0076 -2.2474  0.4637
15468TIP3    H267896   2.290   0.738  16.966 -0.2572  0.0301  1.1392
15469TIP3   OH267897   0.712   4.511   6.054 -0.0103  0.5382 -0.0848
15469TIP3    H167898   0.735   4.574   6.123 -1.1763  0.1228  0.7186
15469TIP3    H267899   0.657   4.446   6.099  0.3615 -0.5171 -1.1107
15470TIP3   OH267900   2.215   3.670   5.295 -0.3226  0.3630  0.1276
15470TIP3    H167901   2.247   3.630   5.214  2.8332  0.7886  1.0303
15470TIP3    H267902   2.169   3.599   5.340  0.8986 -0.8847 -0.5099
15471TIP3   OH267903   6.780   1.289  10.078  0.1333  0.6890  0.4602
15471TIP3    H167904   6.773   1.376  10.039 -1.8171  0.7634  0.8752
15471TIP3    H267905   6.871   1.284  10.109  0.5269  2.2268 -0.3298
15472TIP3   OH267906   0.478   4.053  14.191 -0.0287  0.2317  1.0672
15472TIP3    H167907   0.545   4.090  14.134  0.7193 -1.9913  0.3859
15472TIP3    H267908   0.508   4.074  14.280  1.4042 -0.3640  0.7623
15473TIP3   OH267909   0.329   4.623  15.662 -0.6273 -0.5636  0.1095
15473TIP3    H167910   0.274   4.694  15.695  0.0517 -0.5118  1.1961
15473TIP3    H267911   0.273   4.545  15.665 -1.0180 -0.2808  0.0362
15474TIP3   OH267912   2.449   3.632  11.932 -0.5058 -0.5099 -0.1166
15474TIP3    H167913   2.381   3.676  11.881 -0.6495 -0.7883 -0.1659
15474TIP3    H267914   2.509   3.596  11.866 -0.2477 -0.1638 -0.0709
15475TIP3   OH267915   5.596   5.481   2.095  0.2859  0.6977 -0.2088
15475TIP3    H167916   5.614   5.570   2.067 -1.5849  1.1896  0.0391
15475TIP3    H267917   5.567   5.489   2.185 -4.3098  0.5204 -1.4266
15476TIP3   OH267918   2.264   4.616   2.520 -0.0555  0.1990 -0.5217
15476TIP3    H167919   2.244   4.678   2.450 -0.4042 -1.2695 -1.7963
15476TIP3    H267920   2.184   4.564   2.530  0.2627 -0.1346  0.4290
15477TIP3   OH267921   2.852   2.982   4.782 -0.0692 -0.1338  0.0071
15477TIP3    H167922   2.901   2.900   4.766 -0.3701 -0.2379 -0.3674
15477TIP3    H267923   2.891   3.045   4.722 -1.1594 -0.5111 -1.1408
15478TIP3   OH267924   6.592   0.200  12.183  0.2667  0.8197 -0.1392
15478TIP3    H167925   6.557   0.286  12.160 -0.9171  0.5514  0.5558
15478TIP3    H267926   6.638   0.214  12.266 -2.1263  0.3556  1.3622
15479TIP3   OH267927   2.423   3.306  15.467  0.1578 -0.4276 -0.1888
15479TIP3    H167928   2.336   3.271  15.486  0.0592  0.5368  1.2650
15479TIP3    H267929   2.414   3.347  15.381 -0.6537 -0.8364 -0.3140
15480TIP3   OH267930   0.825   3.264   3.332  0.0468 -0.5381  0.0827
15480TIP3    H167931   0.789   3.193   3.278  2.5096 -1.0768 -0.9823
15480TIP3    H267932   0.768   3.266   3.409 -1.8613 -1.6686 -1.1992
15481TIP3   OH267933   2.356   4.591   1.883  0.2733  0.2447 -0.0671
15481TIP3    H167934   2.428   4.528   1.880 -0.0639 -0.2464  1.3578
15481TIP3    H267935   2.339   4.613   1.791  4.0882  2.5614 -0.4129
15482TIP3   OH267936   2.396   0.868   1.571 -0.5115  0.0048 -0.0328
15482TIP3    H167937   2.314   0.915   1.586 -1.2666 -1.0564 -0.6962
15482TIP3    H267938   2.380   0.816   1.493  1.3798  1.0366 -1.1731
15483TIP3   OH267939   5.640   0.408   5.445 -0.0410 -0.7604 -0.0373
15483TIP3    H167940   5.610   0.369   5.528  0.0475  0.0157  0.3676
15483TIP3    H267941   5.585   0.367   5.379  0.5703 -2.1642  0.2719
15484TIP3   OH267942   5.703   3.021  13.312  0.0154  0.1488  0.5024
15484TIP3    H167943   5.719   2.960  13.383  1.3198 -0.6672 -0.4497
15484TIP3    H267944   5.661   2.969  13.244  1.8678  0.0363 -0.6410
15485TIP3   OH267945   4.918   1.014   1.684 -0.1494  0.0725  0.2074
15485TIP3    H167946   4.904   1.059   1.600 -0.8531  0.7027  0.6468
15485TIP3    H267947   4.900   0.922   1.665 -1.3158  0.3504 -0.1040
15486TIP3   OH267948   5.995   6.277   1.407 -0.6109 -0.6144 -0.1683
15486TIP3    H167949   5.992   6.371   1.387 -0.8477 -0.3097  1.1811
15486TIP3    H267950   6.071   6.245   1.358 -0.7214  0.2098 -0.9156
15487TIP3   OH267951   1.710   1.549   2.994 -0.1356 -0.5270  0.6376
15487TIP3    H167952   1.784   1.495   3.024 -0.6610 -1.9942 -0.5721
15487TIP3    H267953   1.726   1.561   2.900 -1.0552 -0.2286  0.5126
15488TIP3   OH267954   0.541   0.508  12.767 -0.3701 -0.7372  0.7481
15488TIP3    H167955   0.606   0.445  12.738  0.7995  0.2239  1.1923
15488TIP3    H267956   0.502   0.542  12.687  1.6014  0.6245  0.2979
15489TIP3   OH267957   1.763   3.000  12.995  0.0331 -0.2819 -0.1085
15489TIP3    H167958   1.855   3.004  12.968  0.8300 -1.1944  2.2792
15489TIP3    H267959   1.752   2.912  13.029 -0.3231  1.1670  4.0758
15490TIP3   OH267960   1.530   3.940   4.777 -0.5667  0.5427  0.4312
15490TIP3    H167961   1.496   3.951   4.688 -0.3189 -0.7823  0.1458
15490TIP3    H267962   1.618   3.905   4.764 -0.5466  0.2891  1.2000
15491TIP3   OH267963   5.787   0.805   4.285  0.5523  0.1094  0.6821
15491TIP3    H167964   5.726   0.732   4.297  0.4240 -0.3214 -2.0225
15491TIP3    H267965   5.799   0.841   4.373  0.8240 -3.2935  2.1952
15492TIP3   OH267966   0.681   5.196  16.083 -0.0113 -0.6164  0.3859
15492TIP3    H167967   0.741   5.195  16.009  0.6108  1.5984  0.7865
15492TIP3    H267968   0.597   5.222  16.047  0.5550  1.6362  0.5487
15493TIP3   OH267969   5.097   1.867  15.177  0.0009 -0.0655 -0.2496
15493TIP3    H167970   5.190   1.889  15.176  0.0986 -0.3493 -2.5258
15493TIP3    H267971   5.092   1.790  15.234  0.7083  1.4645  2.0208
15494TIP3   OH267972   4.920   5.020   3.078 -0.6046 -0.5056 -0.8688
15494TIP3    H167973   4.829   5.041   3.099 -0.1517 -1.6141  3.0393
15494TIP3    H267974   4.971   5.070   3.143  1.4828 -1.0673 -1.9909
15495TIP3   OH267975   3.536   2.801   1.798 -0.3699 -0.3950  1.0107
15495TIP3    H167976   3.447   2.767   1.806 -0.8686  1.0336  2.0032
15495TIP3    H267977   3.526   2.884   1.751  0.1768  0.6194  2.5995
15496TIP3   OH267978   6.788   5.530   0.518 -0.1192  0.6059 -0.3001
15496TIP3    H167979   6.809   5.455   0.574 -0.0357  1.3549  0.6995
15496TIP3    H267980   6.793   5.495   0.429 -0.2632 -0.6159  0.1461
15497TIP3   OH267981   6.691   1.555  16.083 -0.5001  0.5469  0.3186
15497TIP3    H167982   6.707   1.474  16.035  2.6464 -0.4880  2.7567
15497TIP3    H267983   6.739   1.622  16.033  0.1548  0.1175  0.3695
15498TIP3   OH267984   5.786   0.670   3.305  0.3141 -0.2837 -0.0362
15498TIP3    H167985   5.764   0.749   3.255 -0.3808  0.0223  0.7385
15498TIP3    H267986   5.718   0.664   3.372  1.6702 -0.2295  1.3981
15499TIP3   OH267987   3.981   2.964  11.943  0.3995  0.2540  0.2077
15499TIP3    H167988   3.976   3.037  11.882  1.4517 -1.4011 -2.0216
15499TIP3    H267989   4.073   2.962  11.971  0.0255  0.7184  1.5685
15500TIP3   OH267990   1.149   3.755   0.674 -0.4365  0.5158 -0.0011
15500TIP3    H167991   1.182   3.690   0.736  0.9118 -0.2030 -1.3851
15500TIP3    H267992   1.211   3.751   0.601 -1.7665  1.5720 -1.2401
15501TIP3   OH267993   1.057   5.580   4.002 -0.1327 -0.0927 -0.9919
15501TIP3    H167994   1.039   5.488   4.021  2.3801 -0.2458  1.1985
15501TIP3    H267995   1.140   5.580   3.955  1.5203  1.0834  1.6944
15502TIP3   OH267996   2.797   1.513   0.010  0.1346 -0.1082  0.5668
15502TIP3    H167997   2.791   1.454   0.084  1.1224 -0.7846  0.1338
15502TIP3    H267998   2.879   1.561   0.023  0.3615 -0.2970 -0.1301
15503TIP3   OH267999   1.296   1.243   0.292  0.3407 -0.0699 -0.4075
15503TIP3    H168000   1.266   1.165   0.337  0.3641  0.6249  0.8533
15503TIP3    H268001   1.229   1.309   0.309  0.4377  0.2604 -1.2444
15504TIP3   OH268002   5.683   6.487  13.582 -0.0754  0.4762 -0.5420
15504TIP3    H168003   5.602   6.518  13.543 -0.6509  1.1361  1.0728
15504TIP3    H268004   5.713   6.417  13.524 -0.5443  1.7908 -2.4429
15505TIP3   OH268005   1.783   1.647   5.691 -0.0872  0.7483  0.4049
15505TIP3    H168006   1.728   1.718   5.722 -2.3358 -0.5022 -0.4952
15505TIP3    H268007   1.789   1.586   5.765 -1.5882 -0.0259 -0.0727
15506TIP3   OH268008   4.527   6.601   5.844 -0.1827 -0.1060 -0.2822
15506TIP3    H168009   4.485   6.674   5.889 -0.1747  0.0768 -0.5692
15506TIP3    H268010   4.493   6.605   5.754  0.2847 -0.0816 -0.4609
15507TIP3   OH268011   3.455   4.274   2.562 -0.1542 -0.0963 -0.0103
15507TIP3    H168012   3.496   4.296   2.646 -1.3038 -1.5946  0.9883
15507TIP3    H268013   3.431   4.182   2.570 -1.3192  0.0308 -1.5516
15508TIP3   OH268014   5.822   0.739  14.787 -0.1537 -0.1327  0.2759
15508TIP3    H168015   5.894   0.802  14.779  1.7031 -1.2142  4.8802
15508TIP3    H268016   5.849   0.664  14.734 -0.2341  1.1760 -1.7029
15509TIP3   OH268017   5.826   4.028   3.067  0.1136 -0.0332 -0.4918
15509TIP3    H168018   5.794   3.974   2.995  0.1105 -0.1413 -0.4093
15509TIP3    H268019   5.885   3.971   3.116 -2.5740 -1.1540  1.7004
15510TIP3   OH268020   4.918   5.960  13.195  0.6712  0.1761 -0.3444
15510TIP3    H168021   4.885   5.943  13.283 -0.0322 -1.0919 -0.8368
15510TIP3    H268022   4.928   6.055  13.191 -1.8112  0.5085  0.2161
15511TIP3   OH268023   0.357   2.490   1.426 -0.2930  0.1673 -0.0054
15511TIP3    H168024   0.365   2.402   1.390  0.1016  0.5326 -0.8364
15511TIP3    H268025   0.379   2.548   1.354  0.5287  0.9294  0.8336
15512TIP3   OH268026   1.701   2.673  16.024 -0.2187 -0.3708  0.0385
15512TIP3    H168027   1.607   2.656  16.018 -0.0295 -1.1565 -1.1659
15512TIP3    H268028   1.724   2.649  16.114 -1.2419  0.2861  0.4925
15513TIP3   OH268029   4.600   3.833  10.870 -0.3704 -0.0389 -0.6781
15513TIP3    H168030   4.597   3.928  10.865  0.4475 -0.0451 -1.7458
15513TIP3    H268031   4.663   3.807  10.801 -0.7472 -1.3493 -0.5632
15514TIP3   OH268032   3.694   4.090   2.311 -0.1148 -0.1382 -0.0872
15514TIP3    H168033   3.749   4.040   2.251 -0.2741 -1.4356  0.8029
15514TIP3    H268034   3.614   4.108   2.261  0.0755 -0.4937 -0.5268
15515TIP3   OH268035   5.767   1.293   3.970 -0.2735 -0.4833 -0.0085
15515TIP3    H168036   5.731   1.255   3.890 -2.1575  0.7501  0.1983
15515TIP3    H268037   5.784   1.218   4.027  0.0007 -1.2881 -1.1138
15516TIP3   OH268038   0.121   0.472   5.420  0.2158 -0.1915 -0.0311
15516TIP3    H168039   0.056   0.470   5.350  0.4715 -0.6193 -0.2628
15516TIP3    H268040   0.198   0.429   5.382  0.2512 -0.7103  0.6143
15517TIP3   OH268041   0.864   0.513   0.568 -0.4518 -0.4313 -0.0998
15517TIP3    H168042   0.951   0.472   0.577 -0.0903  0.2188 -0.5500
15517TIP3    H268043   0.881   0.595   0.523 -1.5000 -1.0265 -1.6513
15518TIP3   OH268044   6.366   2.503  11.675  0.0468  0.5886 -0.1381
15518TIP3    H168045   6.411   2.528  11.756 -1.1561  1.9199  0.1489
15518TIP3    H268046   6.388   2.572  11.613  1.0852 -0.4979 -1.0366
15519TIP3   OH268047   4.637   1.024   0.355  0.5672  0.7048 -0.4726
15519TIP3    H168048   4.697   0.987   0.420  1.7009 -0.2895 -2.0130
15519TIP3    H268049   4.568   0.959   0.346  0.9620  0.3607 -1.0123
15520TIP3   OH268050   3.808   1.205   2.323 -0.2531 -1.1748  0.4796
15520TIP3    H168051   3.786   1.143   2.254  0.9293  0.0341 -1.0645
15520TIP3    H268052   3.904   1.210   2.321 -0.1853 -0.9956  2.1372
15521TIP3   OH268053   2.274   5.069   5.192 -0.2628  0.6483  0.5620
15521TIP3    H168054   2.337   5.068   5.264 -0.3723  0.7946  0.6596
15521TIP3    H268055   2.307   5.137   5.133 -0.8118  1.3379  1.0414
15522TIP3   OH268056   3.683   0.656  12.335 -0.2589  0.9272  0.6758
15522TIP3    H168057   3.595   0.691  12.327 -1.2278 -0.8992  2.4646
15522TIP3    H268058   3.676   0.566  12.301  1.5149  1.4410 -1.3429
15523TIP3   OH268059   5.990   6.701  10.104  0.3789  0.1492  0.3203
15523TIP3    H168060   5.991   6.776  10.163  3.9571  0.5488 -0.0017
15523TIP3    H268061   6.054   6.640  10.143 -0.0246 -1.2785 -1.1424
15524TIP3   OH268062   3.549   2.988   4.141  0.3071 -0.6848  0.4366
15524TIP3    H168063   3.642   3.010   4.133  0.1434  0.2537  1.0494
15524TIP3    H268064   3.506   3.044   4.077  0.1143 -0.7695  0.4927
15525TIP3   OH268065   4.952   1.341   6.007  0.1500 -0.0470  0.2116
15525TIP3    H168066   5.041   1.330   5.975  0.4743  0.2644  0.9980
15525TIP3    H268067   4.936   1.435   6.003  0.4977  0.1056  1.7210
15526TIP3   OH268068   1.919   3.007   3.708  0.0548  0.3028  0.1797
15526TIP3    H168069   1.826   2.989   3.700  0.1054  0.3363 -0.5226
15526TIP3    H268070   1.944   2.967   3.792 -0.5520  0.1633  0.2991
15527TIP3   OH268071   1.064   2.483   3.260 -0.1719  0.2764  0.2054
15527TIP3    H168072   1.078   2.396   3.297 -0.9648  0.1532  0.2351
15527TIP3    H268073   1.026   2.467   3.174 -1.4388  0.5892  0.6780
15528TIP3   OH268074   5.733   2.958   0.665 -0.1363 -0.4562 -0.7026
15528TIP3    H168075   5.641   2.932   0.661  0.3175 -2.0747 -1.4807
15528TIP3    H268076   5.760   2.939   0.755 -0.1758 -1.4143 -0.8892
15529TIP3   OH268077   3.538   5.802  11.849 -0.5630  0.1011 -0.4816
15529TIP3    H168078   3.568   5.878  11.800 -0.8479  0.8900  0.5514
15529TIP3    H268079   3.542   5.730  11.786  1.8036  0.5081 -0.8900
15530TIP3   OH268080   4.964   1.721   4.985  0.1628 -0.0973 -0.2635
15530TIP3    H168081   4.919   1.805   4.991  1.0358  0.5273 -1.9870
15530TIP3    H268082   4.933   1.682   4.903  0.2931 -1.1496  0.1634
15531TIP3   OH268083   0.633   3.732  11.807  0.5713  0.0247 -0.0527
15531TIP3    H168084   0.653   3.709  11.716  0.6943 -1.7664  0.3970
15531TIP3    H268085   0.541   3.709  11.817  0.0527  1.8628 -0.1784
15532TIP3   OH268086   3.618   6.649  10.664 -0.2671 -0.1081  0.3858
15532TIP3    H168087   3.622   6.720  10.728 -1.3708 -0.3259  0.7143
15532TIP3    H268088   3.639   6.570  10.715 -1.3999 -0.3136  0.5425
15533TIP3   OH268089   0.099   5.026  17.046  0.4568  0.1047 -0.0067
15533TIP3    H168090   0.139   4.996  17.128 -0.6386 -1.6010 -0.0443
15533TIP3    H268091   0.108   4.952  16.986 -0.5815  0.5786 -0.7797
15534TIP3   OH268092   6.065   4.819   6.187  0.5221  0.3733  1.1202
15534TIP3    H168093   6.008   4.889   6.219 -0.7675  0.0988 -0.4669
15534TIP3    H268094   6.019   4.739   6.211 -0.7071  0.1523 -1.6059
15535TIP3   OH268095   5.716   0.829   3.666  0.1595 -0.1381 -0.2735
15535TIP3    H168096   5.736   0.744   3.707 -0.0335  0.4494  1.0652
15535TIP3    H268097   5.622   0.827   3.652  0.4277 -1.1014 -2.5233
15536TIP3   OH268098   6.461   2.650   4.103  0.4389  0.4810 -0.0584
15536TIP3    H168099   6.421   2.564   4.113  0.1602  0.7419  1.3094
15536TIP3    H268100   6.487   2.675   4.192 -0.1279  2.1014 -0.3114
15537TIP3   OH268101   3.918   6.148  16.792 -0.2815 -0.1407 -0.5350
15537TIP3    H168102   3.884   6.078  16.848  1.5795  1.1574  2.5243
15537TIP3    H268103   3.896   6.229  16.839 -1.7276  1.4111 -3.5754
15538TIP3   OH268104   3.157   6.038   2.550  0.2275 -0.1298  0.3436
15538TIP3    H168105   3.125   6.128   2.541  0.6769 -0.0931 -1.2331
15538TIP3    H268106   3.247   6.042   2.517  0.1836 -1.1943  0.0853
15539TIP3   OH268107   0.550   6.221  12.523  0.1739  0.2112 -0.6157
15539TIP3    H168108   0.561   6.128  12.502  1.5425  0.6936 -2.2879
15539TIP3    H268109   0.609   6.236  12.596  1.2277  0.0735 -1.4069
15540TIP3   OH268110   0.980   2.382  15.458 -0.0632 -0.2658  0.2463
15540TIP3    H168111   0.906   2.442  15.465 -0.1630 -0.3605  0.0279
15540TIP3    H268112   1.057   2.437  15.464 -0.1526 -0.0499 -0.4320
15541TIP3   OH268113   1.388   4.368   3.819  0.2899 -0.0634  0.1972
15541TIP3    H168114   1.361   4.407   3.735 -0.2486  0.2441  0.5084
15541TIP3    H268115   1.418   4.280   3.796 -1.1578 -0.4961 -0.1409
15542TIP3   OH268116   5.712   1.985   0.927  0.4212  0.0993  0.0209
15542TIP3    H168117   5.619   1.986   0.946  0.3795  0.5396 -0.1959
15542TIP3    H268118   5.754   1.997   1.012  0.2698  0.4751  0.0409
15543TIP3   OH268119   2.148   1.491  12.740 -0.6842  0.0660  0.1914
15543TIP3    H168120   2.183   1.494  12.829  1.5052  0.2806 -0.6057
15543TIP3    H268121   2.207   1.547  12.690 -1.1302 -1.0119 -1.6265
15544TIP3   OH268122   1.857   4.186  10.740  0.0672  0.1535 -0.0240
15544TIP3    H168123   1.790   4.140  10.689 -0.6191  2.0812 -0.9282
15544TIP3    H268124   1.849   4.149  10.828  0.5765 -2.5027 -0.9781
15545TIP3   OH268125   5.635   6.346   2.942  0.1398  0.4059 -0.0057
15545TIP3    H168126   5.559   6.376   2.992  2.0269  2.5862  1.7284
15545TIP3    H268127   5.638   6.251   2.958 -1.1983  0.5462  1.3046
15546TIP3   OH268128   2.122   6.342  14.693 -0.3053 -0.4311 -0.4774
15546TIP3    H168129   2.114   6.331  14.598 -0.3272 -0.6018 -0.4555
15546TIP3    H268130   2.084   6.263  14.730  1.7951 -1.4721 -0.3788
15547TIP3   OH268131   1.511   1.033  15.134  0.4444 -0.1399  0.5263
15547TIP3    H168132   1.473   0.988  15.058 -0.0352 -1.7559  1.6582
15547TIP3    H268133   1.438   1.040  15.196  1.3844 -1.1037  1.7887
15548TIP3   OH268134   4.792   4.585  16.994 -0.1334 -0.8966  0.7207
15548TIP3    H168135   4.840   4.630  16.924 -1.0239  0.3813  0.8935
15548TIP3    H268136   4.767   4.655  17.054  0.4243 -1.9438  2.2327
15549TIP3   OH268137   0.317   4.650  12.079  0.5359  0.0232  0.6195
15549TIP3    H168138   0.383   4.616  12.138  1.2111 -0.8240 -0.5793
15549TIP3    H268139   0.243   4.673  12.135  1.3255 -0.3165  1.8187
15550TIP3   OH268140   3.104   1.957  12.439 -0.0331  0.3945 -1.0273
15550TIP3    H168141   3.087   2.021  12.508  0.4484 -0.6910  0.1590
15550TIP3    H268142   3.057   1.878  12.467  1.4582 -0.5674 -1.0749
15551TIP3   OH268143   5.517   0.122  11.521  0.5879 -0.3450 -0.2535
15551TIP3    H168144   5.534   0.212  11.493 -0.9086  0.5302  1.4291
15551TIP3    H268145   5.546   0.120  11.612 -0.1688 -1.3233 -0.0218
15552TIP3   OH268146   4.561   2.842  12.817  0.0133 -0.3096  0.3750
15552TIP3    H168147   4.544   2.831  12.910  0.3109 -1.1729  0.3428
15552TIP3    H268148   4.633   2.905  12.812  1.7440 -2.1284  0.8896
15553TIP3   OH268149   1.581   5.044   0.202 -0.0867 -0.0457  0.0902
15553TIP3    H168150   1.549   4.999   0.281  1.2780 -1.4380 -0.1006
15553TIP3    H268151   1.650   4.987   0.169  0.1334  1.0917 -1.4940
15554TIP3   OH268152   3.139   3.164  15.940 -0.2575 -0.2023  0.6838
15554TIP3    H168153   3.167   3.119  16.020  1.6269  0.0715  0.2337
15554TIP3    H268154   3.214   3.157  15.881 -1.5143 -0.1841 -0.9928
15555TIP3   OH268155   1.587   0.767  12.485 -0.0171 -0.0956 -0.4938
15555TIP3    H168156   1.589   0.840  12.422  0.7292  2.2053  2.0201
15555TIP3    H268157   1.509   0.783  12.538  1.2737  0.1534  1.4393
15556TIP3   OH268158   0.245   1.621  16.278 -0.0623 -0.2332 -0.1209
15556TIP3    H168159   0.183   1.551  16.257 -0.0629  0.5242 -3.2067
15556TIP3    H268160   0.328   1.592  16.238  0.7422  0.1988  1.1797
15557TIP3   OH268161   4.518   0.731   3.388 -0.0859 -0.1163  0.1837
15557TIP3    H168162   4.457   0.762   3.455 -0.1997 -0.7628  0.3845
15557TIP3    H268163   4.475   0.654   3.350 -0.0258  0.2466 -0.6446
15558TIP3   OH268164   2.866   0.562   1.873  0.2643  0.3727 -0.1812
15558TIP3    H168165   2.785   0.541   1.825 -0.6061  2.2727  0.3545
15558TIP3    H268166   2.836   0.603   1.954  1.7665  0.5555  0.3094
15559TIP3   OH268167   2.464   2.137   2.793 -0.2130  0.2426 -0.3513
15559TIP3    H168168   2.375   2.145   2.829  1.1828  2.9394  3.0466
15559TIP3    H268169   2.479   2.220   2.748  0.9119  0.2051 -0.0685
15560TIP3   OH268170   0.446   3.351   2.174  0.2407 -0.1557 -0.4501
15560TIP3    H168171   0.457   3.377   2.265 -0.9881  0.6901 -0.5192
15560TIP3    H268172   0.428   3.432   2.127  0.1302 -0.6650 -1.3193
15561TIP3   OH268173   4.927   3.352  11.249 -0.3650  0.4128  0.4450
15561TIP3    H168174   4.845   3.392  11.277  0.2830  1.2776  1.1270
15561TIP3    H268175   4.900   3.265  11.217 -1.5573  0.7294  0.5152
15562TIP3   OH268176   0.047   3.281  13.379 -0.0659 -0.4447 -0.3162
15562TIP3    H168177  -0.040   3.298  13.343  0.7837 -0.0467 -2.2950
15562TIP3    H268178   0.044   3.188  13.405 -1.1584 -0.3545 -0.0580
15563TIP3   OH268179   3.678   2.515   5.285 -1.0603 -0.4373  0.5457
15563TIP3    H168180   3.753   2.520   5.345 -0.8605 -2.0799  0.4544
15563TIP3    H268181   3.710   2.553   5.203 -0.8942  0.4874  1.0221
15564TIP3   OH268182   2.255   5.820   5.239  0.2644 -0.2111  0.0950
15564TIP3    H168183   2.264   5.861   5.153 -1.2112  0.1983  0.1156
15564TIP3    H268184   2.307   5.740   5.232 -1.6223 -1.3784 -1.9854
15565TIP3   OH268185   2.495   6.577  12.874 -0.1080 -0.0822 -0.1624
15565TIP3    H168186   2.495   6.537  12.787 -0.6057 -0.5242  0.0275
15565TIP3    H268187   2.507   6.670  12.859 -1.9994  0.0888 -0.8443
15566TIP3   OH268188   2.025   4.068  11.671 -0.6803 -0.3947  0.8635
15566TIP3    H168189   2.114   4.069  11.635 -1.1221  0.8284 -0.2824
15566TIP3    H268190   2.035   4.029  11.758  0.8096 -1.2196  0.3642
15567TIP3   OH268191   3.083   1.970  14.173 -0.2687 -0.7665  0.6729
15567TIP3    H168192   3.137   1.917  14.114 -0.0235 -0.6684  0.8062
15567TIP3    H268193   3.110   2.060  14.156 -2.7225 -0.3328 -1.7034
15568TIP3   OH268194   5.812   5.587  11.451 -0.2126 -0.5538 -0.0676
15568TIP3    H168195   5.816   5.546  11.364  2.0892  0.1023 -0.3427
15568TIP3    H268196   5.855   5.524  11.509  1.1752  0.3444 -0.0598
15569TIP3   OH268197   5.814   1.969   5.183 -0.5686  0.8663  0.5451
15569TIP3    H168198   5.865   2.030   5.236  0.4142  0.6487 -0.1147
15569TIP3    H268199   5.833   1.883   5.221  1.5150  0.4955 -1.1173
15570TIP3   OH268200   0.196   3.032  10.995  0.4372  0.3298  0.0147
15570TIP3    H168201   0.229   3.101  10.938 -0.2684  2.1390  1.6728
15570TIP3    H268202   0.104   3.021  10.970  0.0596  1.2969  0.8918
15571TIP3   OH268203   5.223   3.529  13.817 -0.6607 -0.0492  0.1968
15571TIP3    H168204   5.258   3.615  13.795  0.3575 -0.4851  0.0734
15571TIP3    H268205   5.183   3.497  13.736 -2.5153  0.9635  0.6437
15572TIP3   OH268206   5.697   0.992  15.483 -0.5714 -0.1683 -0.3100
15572TIP3    H168207   5.693   0.927  15.554 -0.6354  1.5928  1.4017
15572TIP3    H268208   5.776   0.969  15.434 -0.2697 -1.1999  0.5996
15573TIP3   OH268209   4.742   2.221  11.584 -0.7723 -0.0823 -0.4064
15573TIP3    H168210   4.698   2.155  11.637  0.7294  0.3379  1.4891
15573TIP3    H268211   4.829   2.184  11.568 -1.0174  0.0481 -2.1541
15574TIP3   OH268212   4.441   1.516  14.202  0.3337  0.0627 -0.0978
15574TIP3    H168213   4.411   1.602  14.229  0.7583  0.0511  0.4315
15574TIP3    H268214   4.479   1.530  14.115  0.6612  0.4619  0.1076
15575TIP3   OH268215   4.217   1.075   3.524  0.2023 -0.0080 -0.1919
15575TIP3    H168216   4.219   0.984   3.493 -1.9630 -1.0921  2.4209
15575TIP3    H268217   4.160   1.120   3.462  1.5938 -0.2635 -1.7374
15576TIP3   OH268218   3.763   6.733  12.548 -0.4132 -0.3522  0.3858
15576TIP3    H168219   3.850   6.723  12.511 -0.9211  2.2670 -1.7743
15576TIP3    H268220   3.710   6.668  12.502 -0.9068  2.4437 -3.4912
15577TIP3   OH268221   0.484   2.196  11.368  0.4989 -0.1830 -0.2723
15577TIP3    H168222   0.420   2.260  11.400 -0.0178 -0.1860 -1.2591
15577TIP3    H268223   0.551   2.194  11.436  0.0827  0.7590  0.1925
15578TIP3   OH268224   4.978   2.823  15.256 -0.1384 -0.3557  0.2245
15578TIP3    H168225   4.925   2.770  15.195 -0.3563 -0.7217  0.7296
15578TIP3    H268226   4.947   2.913  15.241 -1.7695 -0.6796  1.3333
15579TIP3   OH268227   5.433   5.514   6.522 -0.3610 -0.1577  0.1484
15579TIP3    H168228   5.428   5.444   6.457 -2.3991  1.1122 -1.1632
15579TIP3    H268229   5.473   5.472   6.599  2.9885 -1.4905 -2.0716
15580TIP3   OH268230   1.048   0.972   6.113 -0.1779 -0.0269  0.4044
15580TIP3    H168231   1.095   0.968   6.196 -1.0266  2.0279  1.0508
15580TIP3    H268232   1.001   0.889   6.108  0.4471 -0.4841  1.6234
15581TIP3   OH268233   2.995   3.557  11.135  0.1136 -0.4153  0.2801
15581TIP3    H168234   3.067   3.503  11.166 -0.0689 -0.5821  0.4179
15581TIP3    H268235   2.926   3.544  11.200  0.3132  0.5361  0.6932
15582TIP3   OH268236   6.332   2.827   5.540 -0.0379  0.3262  0.2491
15582TIP3    H168237   6.301   2.834   5.449  2.3590  0.8829 -0.6211
15582TIP3    H268238   6.345   2.733   5.553  1.9947  0.3700 -0.9645
15583TIP3   OH268239   3.382   2.920  16.919  0.3424 -0.0049 -0.0311
15583TIP3    H168240   3.330   2.961  16.988 -1.5508 -1.0722 -0.7727
15583TIP3    H268241   3.318   2.884  16.858  1.9491 -1.5807 -0.8729
15584TIP3   OH268242   4.404   4.036   3.289  0.0246  0.0589 -0.0282
15584TIP3    H168243   4.428   4.046   3.196  0.8728 -0.3094  0.1441
15584TIP3    H268244   4.419   3.944   3.308 -0.3600  0.0874  0.4274
15585TIP3   OH268245   1.139   6.693   1.680  0.0770 -0.1455 -0.5306
15585TIP3    H168246   1.116   6.697   1.772 -0.4307 -1.4629 -0.5899
15585TIP3    H268247   1.235   6.685   1.680  0.0822 -0.1122 -0.1255
15586TIP3   OH268248   0.108   2.956  11.888  0.0765 -0.7456 -0.2893
15586TIP3    H168249   0.174   2.887  11.882 -0.3065 -1.0051 -2.7347
15586TIP3    H268250   0.112   3.000  11.803 -0.2228  1.7861  0.9108
15587TIP3   OH268251   6.523   3.607   5.874 -0.3869  0.4784 -0.4359
15587TIP3    H168252   6.605   3.603   5.826 -1.3047 -0.5233 -1.9971
15587TIP3    H268253   6.466   3.543   5.831 -1.2026 -0.6816  2.1495
15588TIP3   OH268254   0.129   3.928  13.938 -0.5448 -0.3587  0.2696
15588TIP3    H168255   0.113   3.839  13.906  1.2133 -0.8344  0.5982
15588TIP3    H268256   0.106   3.924  14.031 -1.9538 -0.0093 -0.0298
15589TIP3   OH268257   6.481   6.717   1.304 -0.4422 -0.0205 -0.6537
15589TIP3    H168258   6.409   6.760   1.256 -1.8738 -1.2891  0.2691
15589TIP3    H268259   6.556   6.775   1.290 -1.6058  1.3242 -1.7311
15590TIP3   OH268260   5.159   6.564  15.216  0.0541 -0.9040  0.3304
15590TIP3    H168261   5.208   6.612  15.282 -0.1754 -1.1897  0.7115
15590TIP3    H268262   5.221   6.551  15.144 -0.2776  1.2632 -0.4399
15591TIP3   OH268263   1.406   5.878  16.194 -0.2753  0.7150 -0.0067
15591TIP3    H168264   1.446   5.960  16.224  0.3205 -0.0258  1.3098
15591TIP3    H268265   1.448   5.810  16.247 -0.5886 -0.4794 -1.2305
15592TIP3   OH268266   1.639   5.214  10.942 -0.1873  0.2292 -0.4583
15592TIP3    H168267   1.599   5.129  10.923 -0.7298  0.4135 -0.1549
15592TIP3    H268268   1.614   5.269  10.868  0.3833  0.0558 -0.7859
15593TIP3   OH268269   3.265   4.249   4.636 -0.5015 -0.1533 -0.1188
15593TIP3    H168270   3.349   4.297   4.633 -0.8314  0.5241  0.8599
15593TIP3    H268271   3.288   4.163   4.670 -0.2061  0.0775  0.2847
15594TIP3   OH268272   0.947   3.288  16.494 -0.0266  0.4195 -0.3007
15594TIP3    H168273   0.880   3.239  16.447 -0.6595  0.8793  0.0928
15594TIP3    H268274   0.932   3.267  16.586 -1.4143  2.5944  0.0478
15595TIP3   OH268275   2.698   2.132  17.088  0.1281  0.2944  0.7376
15595TIP3    H168276   2.766   2.175  17.037 -1.1550  1.7298  0.1577
15595TIP3    H268277   2.743   2.060  17.132  1.5265 -0.3263 -1.5290
15596TIP3   OH268278   4.518   3.927  14.267 -0.1517 -0.0205  0.1367
15596TIP3    H168279   4.569   3.851  14.296 -0.9709 -0.3445  0.7432
15596TIP3    H268280   4.519   3.987  14.342 -0.0834  0.2804 -0.1005
15597TIP3   OH268281   5.118   1.595  16.580  0.2006 -0.5549 -0.2497
15597TIP3    H168282   5.034   1.612  16.623 -0.7348 -0.7114 -1.9237
15597TIP3    H268283   5.176   1.664  16.613 -0.8780  0.1731  0.1841
15598TIP3   OH268284   5.525   6.098   0.940 -0.0813 -0.6776 -0.4065
15598TIP3    H168285   5.484   6.045   1.009  0.3287 -0.4640  0.0075
15598TIP3    H268286   5.606   6.129   0.979  0.2104 -0.6438 -1.0302
15599TIP3   OH268287   6.650   4.076   1.718  0.0093  0.5106 -0.2301
15599TIP3    H168288   6.630   3.986   1.744 -2.1314  1.0033  0.0390
15599TIP3    H268289   6.635   4.128   1.797 -0.1431  1.2611 -0.7364
15600TIP3   OH268290   0.869   0.177   4.248 -0.5494  0.1146  0.4186
15600TIP3    H168291   0.875   0.169   4.152  3.8604  1.9451  0.2771
15600TIP3    H268292   0.904   0.264   4.266 -1.3210 -0.1535  3.7424
15601TIP3   OH268293   0.956   2.939   6.098  0.5794  0.1672 -0.3532
15601TIP3    H168294   0.974   2.878   6.026 -0.6567 -0.7215  0.0626
15601TIP3    H268295   0.870   2.975   6.077 -0.3700 -1.0291  1.2855
15602TIP3   OH268296   4.521   0.336   1.997 -0.3363  0.5707  0.0932
15602TIP3    H168297   4.442   0.378   2.031 -0.0544  0.9424  0.2997
15602TIP3    H268298   4.538   0.264   2.058 -1.2210 -0.2983 -0.6596
15603TIP3   OH268299   3.476   2.671  13.852  0.1829  0.0098 -0.4812
15603TIP3    H168300   3.527   2.738  13.898  1.2196 -1.0341 -0.0586
15603TIP3    H268301   3.541   2.604  13.830 -0.6717 -0.4471 -1.6846
15604TIP3   OH268302   1.614   5.932  14.364 -0.3660 -0.2049 -0.0328
15604TIP3    H168303   1.645   5.853  14.407  0.5728 -0.0759 -0.4457
15604TIP3    H268304   1.519   5.921  14.359 -0.3767 -0.7130  1.0614
15605TIP3   OH268305   2.175   5.857   5.501 -0.4142  0.3194  0.2160
15605TIP3    H168306   2.135   5.776   5.533  0.4983 -0.1613  0.1549
15605TIP3    H268307   2.215   5.833   5.418  0.7941  0.5640  0.7125
15606TIP3   OH268308   4.295   0.073   5.119  0.2392  0.4946 -0.4935
15606TIP3    H168309   4.345   0.127   5.058  2.5582 -1.7350 -0.7420
15606TIP3    H268310   4.267  -0.002   5.066 -1.1594  0.4191  0.2994
15607TIP3   OH268311   2.052   4.783  15.065  0.1503  0.2259 -0.5607
15607TIP3    H168312   2.106   4.848  15.110 -0.5631  1.3638 -1.3110
15607TIP3    H268313   2.112   4.710  15.047  0.6230  0.0371  1.5534
15608TIP3   OH268314   5.499   0.686  17.018 -0.3203  0.1910 -0.5397
15608TIP3    H168315   5.483   0.776  16.992  0.9010  0.9912  1.2353
15608TIP3    H268316   5.435   0.669  17.087 -0.7499 -0.4221 -1.0796
15609TIP3   OH268317   6.173   1.888   2.117 -0.7329 -0.2855 -0.1030
15609TIP3    H168318   6.195   1.809   2.167  1.6913  0.5890  0.3326
15609TIP3    H268319   6.207   1.960   2.170 -1.5330  0.9617 -1.2278
15610TIP3   OH268320   6.774   0.366  16.138 -0.2165 -0.1727 -0.1209
15610TIP3    H168321   6.757   0.287  16.088 -0.8847 -0.4176  0.4769
15610TIP3    H268322   6.723   0.434  16.094  1.3018  0.2259 -1.3649
15611TIP3   OH268323   2.343   2.054  15.366  0.3824  0.0152 -0.0573
15611TIP3    H168324   2.338   2.100  15.450 -0.4583 -0.6583  0.2700
15611TIP3    H268325   2.383   1.970  15.387  0.0685 -0.1988 -0.3171
15612TIP3   OH268326   5.829   1.091   2.304 -0.2996  0.3296 -0.4669
15612TIP3    H168327   5.841   1.010   2.254  0.8296 -0.6158  1.2486
15612TIP3    H268328   5.883   1.080   2.382  0.3048  2.9542 -0.3962
15613TIP3   OH268329   5.421   0.284  10.846 -0.2263 -0.0544  0.3808
15613TIP3    H168330   5.339   0.316  10.810  0.0646 -2.3858 -2.7823
15613TIP3    H268331   5.487   0.347  10.817 -0.4337 -0.2145 -0.4642
15614TIP3   OH268332   0.355   5.003   6.221 -0.7335  0.3538 -0.1155
15614TIP3    H168333   0.262   4.984   6.229 -0.3106 -2.1961 -0.5635
15614TIP3    H268334   0.399   4.925   6.256  1.2596  1.6198  0.3827
15615TIP3   OH268335   1.143   1.964  14.170  0.2726  0.2802  0.7986
15615TIP3    H168336   1.214   1.979  14.107 -0.4944  0.4739 -0.0447
15615TIP3    H268337   1.066   1.945  14.115 -0.7295  1.7677  1.6275
15616TIP3   OH268338   6.391   4.421   0.072  0.5595 -0.2407 -0.0313
15616TIP3    H168339   6.469   4.399   0.021  0.7481  0.0049  0.1540
15616TIP3    H268340   6.327   4.355   0.046 -0.2096  1.3525 -2.5606
15617TIP3   OH268341   1.665   1.819  13.030  0.3780  0.1307  0.3611
15617TIP3    H168342   1.641   1.906  13.000 -0.3770 -0.3521 -0.4843
15617TIP3    H268343   1.760   1.815  13.021  0.1174 -0.9620 -4.9553
15618TIP3   OH268344   5.205   0.127   3.580  0.6361 -0.0919 -0.7168
15618TIP3    H168345   5.285   0.152   3.532  0.8962 -0.8019 -0.6634
15618TIP3    H268346   5.231   0.051   3.632 -0.6797 -1.8956 -2.5488
15619TIP3   OH268347   6.295   0.540   5.042  0.9105 -0.2917 -0.5243
15619TIP3    H168348   6.384   0.562   5.014 -0.0680  2.0071 -2.2444
15619TIP3    H268349   6.270   0.611   5.102  0.4866 -1.3390  0.5789
15620TIP3   OH268350   4.733   0.801   5.139  0.6279 -0.0921  0.8791
15620TIP3    H168351   4.788   0.850   5.200 -0.2636  1.8823  0.1920
15620TIP3    H268352   4.734   0.853   5.059  0.1098 -1.5531 -0.1079
15621TIP3   OH268353   0.013   5.052  14.134 -0.1179 -0.8455 -0.3094
15621TIP3    H168354  -0.062   5.014  14.180 -0.7759  0.4188 -0.2872
15621TIP3    H268355   0.001   5.146  14.142  1.6380 -0.6028 -0.0707
15622TIP3   OH268356   5.625   3.866  12.632 -0.4556 -0.2566  0.9094
15622TIP3    H168357   5.603   3.833  12.545  0.5211  1.0691  0.1177
15622TIP3    H268358   5.598   3.796  12.692  0.6937 -2.0778 -0.5962
15623TIP3   OH268359   2.420   6.285   3.239  0.4270  0.1655 -0.5486
15623TIP3    H168360   2.514   6.280   3.256  0.1685  1.0561  1.4594
15623TIP3    H268361   2.407   6.375   3.210 -0.1281  1.0008  2.0260
15624TIP3   OH268362   6.137   5.672  11.712 -0.4891  0.2859 -0.0487
15624TIP3    H168363   6.214   5.726  11.732 -0.0343  0.2928 -1.6404
15624TIP3    H268364   6.152   5.643  11.622 -2.4897  0.4916 -0.4786
15625TIP3   OH268365   6.721   5.263  16.442  0.2009  0.8323 -0.7867
15625TIP3    H168366   6.683   5.334  16.493 -0.7638  0.5049 -1.0279
15625TIP3    H268367   6.645   5.217  16.405  0.7909 -0.3597 -0.5685
15626TIP3   OH268368   0.722   3.104  16.380 -0.0025 -0.2542 -0.3353
15626TIP3    H168369   0.669   3.174  16.341 -2.0872 -2.0522 -0.9178
15626TIP3    H268370   0.663   3.061  16.442  2.2341  0.4522  2.4857
15627TIP3   OH268371   0.257   2.781  13.911  0.0817  0.1082  0.2843
15627TIP3    H168372   0.348   2.778  13.941 -0.0752  1.7862  0.9883
15627TIP3    H268373   0.263   2.807  13.820  0.3051 -0.0235  0.2593
15628TIP3   OH268374   1.528   1.591   2.326  0.1662  0.0147  0.3440
15628TIP3    H168375   1.490   1.648   2.259  1.1340  1.1543  0.7212
15628TIP3    H268376   1.555   1.513   2.278 -0.1083  0.3703 -0.4048
15629TIP3   OH268377   3.896   1.589  12.980  0.3367 -0.5230  0.2317
15629TIP3    H168378   3.891   1.501  13.017 -0.7256 -1.2976 -1.6124
15629TIP3    H268379   3.843   1.643  13.039  0.6247 -1.1818  1.1283
15630TIP3   OH268380   5.644   3.487  11.114  0.1870  0.0851 -0.3680
15630TIP3    H168381   5.642   3.582  11.124 -1.7092  0.1333 -0.8879
15630TIP3    H268382   5.698   3.472  11.035 -2.3098  1.0065 -2.3825
15631TIP3   OH268383   3.665   2.595   5.855  0.1102 -0.1410 -0.2516
15631TIP3    H168384   3.701   2.570   5.940 -0.5408  1.0400  0.3915
15631TIP3    H268385   3.699   2.683   5.840 -1.2070  0.3659 -0.3796
15632TIP3   OH268386   5.697   4.140  15.188 -0.2824  0.0525 -0.3866
15632TIP3    H168387   5.635   4.067  15.186 -0.4273  0.1848 -1.7189
15632TIP3    H268388   5.642   4.217  15.172  0.3406  0.0469 -2.9735
15633TIP3   OH268389   6.539   6.093   1.910 -0.4381  0.0271  0.7598
15633TIP3    H168390   6.489   6.155   1.962  1.6185  0.6567  2.1233
15633TIP3    H268391   6.574   6.031   1.973  0.2684 -0.5478 -0.1692
15634TIP3   OH268392   0.795   4.007  16.123 -0.2153  0.1124 -0.4604
15634TIP3    H168393   0.864   3.947  16.152  0.5032  1.2353  0.2117
15634TIP3    H268394   0.714   3.957  16.134  0.1709 -0.1007  2.0197
15635TIP3   OH268395   5.246   4.785   3.650 -0.1883 -0.2957 -0.0636
15635TIP3    H168396   5.299   4.705   3.646 -1.5526 -1.1936 -1.9900
15635TIP3    H268397   5.195   4.776   3.731  1.3368 -0.2110  0.9382
15636TIP3   OH268398   3.183   3.549   0.822 -0.1861  0.1516 -0.0188
15636TIP3    H168399   3.168   3.637   0.856 -3.0091 -0.3866  0.4311
15636TIP3    H268400   3.155   3.491   0.893 -0.8177 -1.0399 -1.1913
15637TIP3   OH268401   0.102   5.353  16.645 -0.3965  0.1648 -0.3669
15637TIP3    H168402   0.120   5.446  16.652 -0.6382  0.2165 -0.4043
15637TIP3    H268403   0.040   5.346  16.572 -0.0923 -0.0628 -0.6051
15638TIP3   OH268404   3.081   2.483  16.482 -0.3892 -0.1688  0.5314
15638TIP3    H168405   2.993   2.514  16.502 -1.0002 -1.2422 -0.3583
15638TIP3    H268406   3.115   2.546  16.419 -0.3037  0.5434  1.2761
15639TIP3   OH268407   4.840   2.406  13.467  0.7654 -0.2937 -0.9829
15639TIP3    H168408   4.874   2.449  13.389  1.9711  0.2146 -0.2094
15639TIP3    H268409   4.912   2.349  13.496  0.6035  0.0316  0.1214
15640TIP3   OH268410   4.966   5.980  12.416  0.5452  0.1205 -0.2013
15640TIP3    H168411   5.004   6.068  12.417  0.1849  0.2877 -0.5934
15640TIP3    H268412   4.980   5.949  12.326  0.7585 -0.2638 -0.0390
15641TIP3   OH268413   2.629   3.614   0.706 -0.0500 -0.2218  0.0762
15641TIP3    H168414   2.625   3.700   0.748  0.3501 -0.8273  1.4310
15641TIP3    H268415   2.549   3.609   0.654  0.0586  1.0727 -0.2504
15642TIP3   OH268416   4.451   5.380   0.410  0.0115 -0.0356 -0.6088
15642TIP3    H168417   4.471   5.473   0.401  1.5664 -0.3917 -1.2815
15642TIP3    H268418   4.471   5.343   0.324 -1.9548 -0.7945 -0.7916
15643TIP3   OH268419   5.668   6.752  11.941 -0.1262  0.5999  0.3333
15643TIP3    H168420   5.738   6.762  12.005 -0.0539  2.3769  0.0240
15643TIP3    H268421   5.599   6.704  11.988  1.5752 -1.9987  0.3581
15644TIP3   OH268422   3.491   5.446  12.139  0.0280  0.3989 -0.2002
15644TIP3    H168423   3.420   5.507  12.161  0.3653  0.4187  0.8774
15644TIP3    H268424   3.445   5.365  12.115 -0.3776  0.1526  1.2874
15645TIP3   OH268425   2.960   0.535  15.184 -0.4550  0.1613 -0.2929
15645TIP3    H168426   2.972   0.447  15.148  0.5232  0.9553 -2.0371
15645TIP3    H268427   3.049   0.570  15.193 -0.7444  0.5131  1.7001
15646TIP3   OH268428   3.728   4.325   5.010  0.2714 -0.6227 -0.0857
15646TIP3    H168429   3.748   4.287   4.925  1.3355  0.3859 -0.3135
15646TIP3    H268430   3.733   4.420   4.996 -0.1329 -0.4247  0.9652
15647TIP3   OH268431   3.058   6.661  15.414  0.3276 -0.1032 -0.3587
15647TIP3    H168432   3.035   6.579  15.458  1.9025  0.1237  0.9728
15647TIP3    H268433   3.040   6.729  15.479  1.4039  0.3639 -0.5298
15648TIP3   OH268434   2.301   0.925  13.069 -0.5862  0.0689  0.3570
15648TIP3    H168435   2.269   0.881  12.990  2.0203 -0.8732 -0.2916
15648TIP3    H268436   2.310   0.854  13.134 -1.2100  0.5664  1.0058
15649TIP3   OH268437   2.740   4.106   4.531  0.1637  0.9777 -0.8024
15649TIP3    H168438   2.789   4.096   4.450  1.7024  1.6397 -0.0106
15649TIP3    H268439   2.808   4.119   4.598 -1.0621  0.6528  0.5565
15650TIP3   OH268440   4.066   2.031  16.707  0.1505 -0.2752  0.0872
15650TIP3    H168441   4.096   2.093  16.773  2.2039 -0.5748 -0.4975
15650TIP3    H268442   4.132   1.961  16.708 -0.4137 -0.8760 -1.4405
15651TIP3   OH268443   1.228   2.145   4.623 -0.3453  0.4798 -0.1383
15651TIP3    H168444   1.317   2.151   4.588  1.1223 -0.3216  3.0672
15651TIP3    H268445   1.220   2.054   4.652 -2.8601  0.1069 -1.7235
15652TIP3   OH268446   4.474   1.388  12.736  0.2615 -0.5872  0.3133
15652TIP3    H168447   4.541   1.454  12.754 -1.0923  0.1656  3.3044
15652TIP3    H268448   4.424   1.424  12.663  1.2182  0.3404  0.0910
15653TIP3   OH268449   1.392   1.729   2.123  0.0103  0.8649  0.6614
15653TIP3    H168450   1.434   1.695   2.044  2.2431  2.3044  1.1486
15653TIP3    H268451   1.298   1.716   2.108  0.5297 -2.3184 -0.5659
15654TIP3   OH268452   6.322   2.907  16.957 -0.6835 -0.1172 -0.3159
15654TIP3    H168453   6.342   2.843  16.888 -1.8205 -0.4007 -0.3991
15654TIP3    H268454   6.392   2.896  17.021  0.1885 -0.1113 -1.2380
15655TIP3   OH268455   4.149   6.421  15.556  0.1541 -0.1129 -0.5942
15655TIP3    H168456   4.229   6.386  15.594  0.2819 -1.3578 -1.9329
15655TIP3    H268457   4.082   6.355  15.575  0.2843 -0.9180 -2.7182
15656TIP3   OH268458   2.259   2.428   1.009  0.3095  0.1054  0.9541
15656TIP3    H168459   2.224   2.359   1.066 -1.0189 -0.5315 -0.5633
15656TIP3    H268460   2.192   2.496   1.010  0.0917 -0.0858 -0.1497
15657TIP3   OH268461   5.557   4.548  14.914 -0.1624 -0.0742  0.3583
15657TIP3    H168462   5.473   4.591  14.899  0.1090  0.0916 -0.7886
15657TIP3    H268463   5.572   4.496  14.835 -0.1848 -1.8163  1.4405
15658TIP3   OH268464   3.561   3.632  15.336 -0.1394 -0.1165 -0.3949
15658TIP3    H168465   3.510   3.572  15.391 -0.6525 -1.1641 -1.9439
15658TIP3    H268466   3.502   3.706  15.321 -0.1947 -0.0731  0.0352
15659TIP3   OH268467   2.789   2.890   2.144 -0.3179  0.1259  0.8551
15659TIP3    H168468   2.777   2.870   2.052 -1.6576 -0.5601  1.1623
15659TIP3    H268469   2.869   2.843   2.169 -0.3266 -0.2310  0.2123
15660TIP3   OH268470   0.179   0.087   2.549  0.3142  0.2391  0.0494
15660TIP3    H168471   0.130   0.165   2.576  1.1139  0.2678  1.4924
15660TIP3    H268472   0.129   0.014   2.584  0.2319  0.1677 -0.2181
15661TIP3   OH268473   4.383   1.230  10.453 -0.2071  0.2485 -0.0329
15661TIP3    H168474   4.356   1.154  10.402  1.2042  0.7344 -1.6123
15661TIP3    H268475   4.479   1.228  10.450 -0.1060  1.0743  1.4658
15662TIP3   OH268476   2.284   2.142  11.699  0.1905 -0.2041  0.2118
15662TIP3    H168477   2.257   2.172  11.612  1.5399 -0.1758 -0.2249
15662TIP3    H268478   2.288   2.222  11.751 -0.4465 -0.1971  0.2570
15663TIP3   OH268479   0.191   2.180   1.951 -0.2341  0.2536  0.2825
15663TIP3    H168480   0.185   2.231   1.870  0.7999  2.2547  1.3958
15663TIP3    H268481   0.101   2.155   1.971 -0.5060 -0.2803 -1.4437
15664TIP3   OH268482   0.404   5.321   5.713  0.9638 -0.1869 -0.1058
15664TIP3    H168483   0.344   5.371   5.768  0.1686 -1.2051 -0.0196
15664TIP3    H268484   0.486   5.318   5.763  0.6578  0.0298  0.4162
15665TIP3   OH268485   1.849   4.763  12.895 -0.0226  0.0880  0.1229
15665TIP3    H168486   1.787   4.808  12.837 -0.0009 -1.0154 -0.7861
15665TIP3    H268487   1.929   4.815  12.889 -0.2182  0.3445 -0.3315
15666TIP3   OH268488   5.252   5.953  16.933 -0.1460  0.2853  0.2809
15666TIP3    H168489   5.237   5.859  16.936  1.4736 -0.0092  0.0571
15666TIP3    H268490   5.347   5.962  16.935 -0.2835  1.9471  1.0791
15667TIP3   OH268491   4.294   4.416   4.087  0.1609 -0.3092 -0.1887
15667TIP3    H168492   4.246   4.490   4.125 -0.2012 -0.2634 -0.7176
15667TIP3    H268493   4.299   4.436   3.994  1.0421 -0.4158 -0.1752
15668TIP3   OH268494   0.159   2.514  14.633  0.2719 -0.4173  0.1951
15668TIP3    H168495   0.162   2.456  14.557 -0.5509 -0.1503 -0.0578
15668TIP3    H268496   0.206   2.467  14.702  0.3991 -0.9811 -0.2674
15669TIP3   OH268497   0.651   6.337  12.126  0.1099  0.0040 -0.4931
15669TIP3    H168498   0.593   6.262  12.114 -0.3640 -0.0966  1.8893
15669TIP3    H268499   0.631   6.369  12.214  2.0817  1.3782 -0.4711
15670TIP3   OH268500   5.718   4.416   2.300 -0.3128 -0.3593  0.5037
15670TIP3    H168501   5.731   4.347   2.365  0.9352  0.5437  1.2646
15670TIP3    H268502   5.731   4.373   2.216 -1.4973 -1.4542  0.8594
15671TIP3   OH268503   1.894   6.704   0.353 -0.2910 -0.1032  0.2938
15671TIP3    H168504   1.923   6.703   0.262 -0.9565  1.1395  0.0461
15671TIP3    H268505   1.965   6.749   0.400 -0.7833  0.9344  0.0630
15672TIP3   OH268506   6.233   2.063   2.298  0.0271  0.1275 -0.1840
15672TIP3    H168507   6.201   2.080   2.387 -4.1488  3.5220 -1.9218
15672TIP3    H268508   6.307   2.122   2.288  3.1428 -3.0572  1.9585
15673TIP3   OH268509   3.061   5.153   4.251  0.1870  0.5364  0.3305
15673TIP3    H168510   2.997   5.084   4.267  0.7470  0.1015  0.7306
15673TIP3    H268511   3.061   5.164   4.156 -0.0654  0.1436  0.2824
15674TIP3   OH268512   1.810   3.809  15.625 -0.2650 -0.2725  0.0295
15674TIP3    H168513   1.872   3.759  15.572 -0.2252 -0.6054  0.3879
15674TIP3    H268514   1.768   3.868  15.563 -0.0652 -0.5096 -0.3359
15675TIP3   OH268515   3.054   1.997   4.109 -0.1592  0.0202  0.1135
15675TIP3    H168516   2.963   2.016   4.086 -0.3505 -0.8890  0.0832
15675TIP3    H268517   3.103   2.074   4.080 -1.2604  1.7786  2.6185
15676TIP3   OH268518   0.316   2.553   4.235 -0.4192 -0.3856  0.4532
15676TIP3    H168519   0.347   2.640   4.209 -1.3895  0.0547  0.7338
15676TIP3    H268520   0.285   2.513   4.154 -1.7568  0.2843  0.6125
15677TIP3   OH268521   2.294   2.671   6.112  0.0263 -0.2563 -0.4796
15677TIP3    H168522   2.381   2.650   6.146  0.0847  0.8021  0.0586
15677TIP3    H268523   2.276   2.602   6.048  0.3897 -1.6661  0.8694
15678TIP3   OH268524   2.107   5.198  16.943  0.1427 -0.0218 -0.6407
15678TIP3    H168525   2.173   5.205  17.012  0.0704 -0.9465 -0.4648
15678TIP3    H268526   2.136   5.260  16.876  0.6794  0.2581 -0.1630
15679TIP3   OH268527   5.492   4.762   4.194  0.4940  0.4008  0.0683
15679TIP3    H168528   5.485   4.711   4.113  0.5919  1.9935 -0.9993
15679TIP3    H268529   5.405   4.799   4.207  0.4360  0.0112  0.7902
15680TIP3   OH268530   6.839   2.777   1.384 -0.0049  0.2933  0.1102
15680TIP3    H168531   6.851   2.853   1.441 -0.0157  0.1068  0.3648
15680TIP3    H268532   6.872   2.703   1.436 -0.2583  0.0859 -0.0224
15681TIP3   OH268533   4.906   6.358  11.497 -0.1924  0.0518  0.7183
15681TIP3    H168534   4.838   6.421  11.472  1.2403  1.0844 -0.7837
15681TIP3    H268535   4.866   6.272  11.481 -1.4842  0.6052  0.8691
15682TIP3   OH268536   2.844   1.708  16.455  0.3560 -0.3645  0.0999
15682TIP3    H168537   2.860   1.699  16.361  0.7363  0.0085  0.1292
15682TIP3    H268538   2.755   1.744  16.460 -0.3263 -1.9123 -0.0734
15683TIP3   OH268539   5.835   0.205   5.199  0.0419 -0.0639  0.2360
15683TIP3    H168540   5.887   0.218   5.119  0.2487 -2.2638 -0.0290
15683TIP3    H268541   5.744   0.215   5.169  0.1699  1.0820  0.1596
15684TIP3   OH268542   4.861   0.093   2.384  0.4847  0.1142 -0.5743
15684TIP3    H168543   4.860   0.187   2.400 -0.6757 -0.1374  1.1062
15684TIP3    H268544   4.903   0.056   2.462  1.9209 -0.7313 -1.6819
15685TIP3   OH268545   3.126   1.059   3.288 -0.1525  0.0208  0.3178
15685TIP3    H168546   3.174   1.052   3.370  0.9427 -0.9014 -0.3702
15685TIP3    H268547   3.035   1.040   3.311 -0.0781  0.9973  1.5074
15686TIP3   OH268548   0.546   2.707   0.407 -0.4021  0.3035 -1.0494
15686TIP3    H168549   0.568   2.748   0.323 -1.0418  0.0462 -1.3440
15686TIP3    H268550   0.463   2.664   0.392 -0.6900  0.5335 -0.1806
15687TIP3   OH268551   2.930   5.357  11.986 -0.1958 -0.0842  0.3256
15687TIP3    H168552   2.861   5.371  12.051 -0.6770  0.8333 -0.3564
15687TIP3    H268553   2.974   5.278  12.015  0.1034  0.7131  2.2133
15688TIP3   OH268554   4.670   4.392  11.794 -0.4418 -0.4914  0.3520
15688TIP3    H168555   4.603   4.378  11.728 -0.5960  0.3949  0.3147
15688TIP3    H268556   4.624   4.437  11.866 -0.6598 -2.7902  1.7630
15689TIP3   OH268557   4.289   5.720  16.272  0.6543 -0.1302  0.1243
15689TIP3    H168558   4.256   5.633  16.248 -0.4290  0.6776 -1.4400
15689TIP3    H268559   4.227   5.752  16.337 -0.4054  0.4763 -1.1612
15690TIP3   OH268560   4.266   1.283   2.809  0.4703 -0.0434  0.0295
15690TIP3    H168561   4.348   1.235   2.793 -0.8350 -1.6954 -2.3449
15690TIP3    H268562   4.279   1.367   2.764  0.5280 -0.6882 -1.1870
15691TIP3   OH268563   1.270   4.861   3.981  0.1831 -0.3090 -0.0439
15691TIP3    H168564   1.341   4.819   4.029  1.4767  1.1893 -0.5330
15691TIP3    H268565   1.315   4.915   3.916 -1.4242  0.5029 -0.5199
15692TIP3   OH268566   6.775   0.440   2.134 -0.1879  0.5704 -0.1378
15692TIP3    H168567   6.689   0.422   2.170 -0.6278  0.8000 -1.0297
15692TIP3    H268568   6.790   0.533   2.152 -0.1231  0.5311  0.0147
15693TIP3   OH268569   0.906   1.392   2.330  0.0806 -0.4850 -0.4377
15693TIP3    H168570   0.945   1.371   2.245  0.3227  1.6340 -0.9057
15693TIP3    H268571   0.817   1.421   2.309  0.2622  0.4029 -0.0410
15694TIP3   OH268572   1.104   2.869   1.683  0.3003  0.4484 -0.0151
15694TIP3    H168573   1.009   2.866   1.684  0.2879  0.5713  1.8027
15694TIP3    H268574   1.131   2.778   1.670 -0.0353  0.5003 -1.2169
15695TIP3   OH268575   0.446   4.384   4.671 -0.1923  0.4980 -0.1362
15695TIP3    H168576   0.486   4.470   4.652 -0.3521  0.9743  1.5602
15695TIP3    H268577   0.521   4.325   4.678 -0.1412  0.0161 -3.1600
15696TIP3   OH268578   3.512   1.759  11.527  0.1973  0.5850 -0.3289
15696TIP3    H168579   3.594   1.754  11.477  0.4146 -1.1597  0.1381
15696TIP3    H268580   3.490   1.668  11.545 -1.9988  1.0008 -0.6393
15697TIP3   OH268581   4.526   3.685  11.878 -0.2665 -0.0368  1.0653
15697TIP3    H168582   4.465   3.614  11.859  0.6524 -1.3372  2.7300
15697TIP3    H268583   4.487   3.730  11.954 -0.5451  0.9109  0.3872
15698TIP3   OH268584   1.476   5.050  13.481  0.5301 -0.4682 -0.1150
15698TIP3    H168585   1.492   5.135  13.440 -1.9227 -0.4237 -1.1419
15698TIP3    H268586   1.412   5.068  13.550  0.4677 -1.3863  0.0782
15699TIP3   OH268587   6.216   5.418  16.948 -0.2585  0.5541 -0.0538
15699TIP3    H168588   6.292   5.447  16.897  0.8796 -2.3662 -0.1873
15699TIP3    H268589   6.149   5.484  16.930  1.3738  1.8025 -2.0620
15700TIP3   OH268590   5.448   5.504  15.708 -0.1206 -0.1836 -0.2561
15700TIP3    H168591   5.356   5.482  15.693 -0.4444 -0.7579  2.1976
15700TIP3    H268592   5.462   5.488  15.801  2.2238  0.8511 -0.3565
15701TIP3   OH268593   6.516   5.398  16.962  0.2377  0.1078  0.0155
15701TIP3    H168594   6.550   5.403  16.873 -2.5832 -1.7123 -1.2790
15701TIP3    H268595   6.513   5.305  16.982 -2.4506  0.2440  0.5994
15702TIP3   OH268596   2.585   5.758   4.069 -0.5421  0.1798 -0.0354
15702TIP3    H168597   2.632   5.679   4.044 -0.1073  0.6898 -0.9043
15702TIP3    H268598   2.558   5.797   3.985  0.7093  1.8137  0.2658
15703TIP3   OH268599   3.378   2.729   0.079 -0.5945 -0.3457  0.2595
15703TIP3    H168600   3.355   2.658   0.140  0.4981 -0.1939  0.8761
15703TIP3    H268601   3.411   2.799   0.136  0.3986 -0.1790 -0.5008
15704TIP3   OH268602   5.157   6.042   5.586 -0.5574  0.2362  0.0538
15704TIP3    H168603   5.113   5.978   5.642 -0.3718 -0.3595 -0.4652
15704TIP3    H268604   5.241   6.001   5.565 -0.5920  0.4842 -0.5864
15705TIP3   OH268605   6.020   3.826  11.361  0.1678  0.0325 -0.5378
15705TIP3    H168606   5.986   3.900  11.311 -0.7762 -0.2207 -0.2789
15705TIP3    H268607   6.114   3.827  11.343  0.4701  2.2560  0.6718
15706TIP3   OH268608   0.393   1.291   1.412  0.3927 -0.5750 -0.5152
15706TIP3    H168609   0.365   1.312   1.322  0.2806 -0.8149 -0.5368
15706TIP3    H268610   0.449   1.364   1.437  0.4534 -0.5231 -0.7955
15707TIP3   OH268611   2.977   3.621   4.484  0.1616  0.3335 -0.3503
15707TIP3    H168612   3.057   3.595   4.438  1.8700 -1.0884  3.0790
15707TIP3    H268613   3.005   3.689   4.545 -0.9099 -0.9902  1.7168
15708TIP3   OH268614   2.493   4.951  16.369  0.3052  0.4162 -0.3259
15708TIP3    H168615   2.575   4.941  16.418  0.4123 -1.1653 -0.7700
15708TIP3    H268616   2.480   5.045  16.364  0.0872  0.6795  3.0139
15709TIP3   OH268617   4.524   5.855  16.057 -0.6900  0.9243 -0.0911
15709TIP3    H168618   4.603   5.825  16.013 -0.2222 -1.2616  2.0545
15709TIP3    H268619   4.454   5.844  15.992 -0.0497 -2.2591 -0.4041
15710TIP3   OH268620   3.395   4.859   3.218 -0.3823 -0.0426  0.1432
15710TIP3    H168621   3.431   4.948   3.218 -0.6733  0.1036  1.4718
15710TIP3    H268622   3.471   4.802   3.204  0.5091  0.2481  3.0315
15711TIP3   OH268623   5.920   0.628  10.333  0.1340  0.1352 -0.4326
15711TIP3    H168624   5.901   0.719  10.356  0.5140  1.4250 -4.3464
15711TIP3    H268625   6.014   0.627  10.315  0.3897 -1.4081  0.8030
15712TIP3   OH268626   4.592   5.156  16.925  0.1691 -0.0872  0.0837
15712TIP3    H168627   4.578   5.189  17.014  2.3700 -0.6997  0.7111
15712TIP3    H268628   4.612   5.235  16.873 -0.9397  0.2463  0.1248
15713TIP3   OH268629   6.800   3.860  16.831 -0.0579  0.0588 -0.1289
15713TIP3    H168630   6.859   3.785  16.820 -0.6217 -0.1548 -2.1997
15713TIP3    H268631   6.721   3.822  16.870  0.4493 -0.0054  0.8586
15714TIP3   OH268632   5.639   1.575  16.292  0.1903  0.3265  0.0098
15714TIP3    H168633   5.721   1.556  16.337  0.6443 -1.9501 -1.5672
15714TIP3    H268634   5.590   1.630  16.352  1.6339 -0.7505  2.3016
15715TIP3   OH268635   6.740   3.253  11.397  0.2124  0.2983 -0.7224
15715TIP3    H168636   6.730   3.344  11.367  0.6507  0.3420 -0.7451
15715TIP3    H268637   6.731   3.259  11.492 -3.2909 -0.1224 -0.9081
15716TIP3   OH268638   0.485   1.192   0.263  0.1863  0.9371 -1.0112
15716TIP3    H168639   0.506   1.109   0.220  1.7597  1.0581 -0.5359
15716TIP3    H268640   0.485   1.171   0.357  1.9860  1.6941 -0.7884
15717TIP3   OH268641   4.124   4.274   2.774  0.1212  0.1437 -0.1012
15717TIP3    H168642   4.218   4.259   2.781  0.0007 -0.4669  0.2204
15717TIP3    H268643   4.087   4.189   2.748 -0.1840  0.7169 -1.6917
15718TIP3   OH268644   2.505   2.390   1.540  0.3199 -0.3277 -0.1980
15718TIP3    H168645   2.410   2.384   1.529  0.4434 -1.2167 -0.8427
15718TIP3    H268646   2.523   2.484   1.536 -0.5466 -0.1381  0.0894
15719TIP3   OH268647   5.288   3.047  13.204  0.1959 -0.1486  0.6136
15719TIP3    H168648   5.233   3.120  13.232  0.3133 -0.1167  0.7584
15719TIP3    H268649   5.374   3.086  13.188  0.4584 -0.3846  1.4096
15720TIP3   OH268650   4.682   0.983   2.322  0.3381  0.3455 -0.4606
15720TIP3    H168651   4.681   0.968   2.227  2.3188  1.6659 -0.7337
15720TIP3    H268652   4.644   0.903   2.358  1.0087 -0.8798 -2.2952
15721TIP3   OH268653   2.518   1.105  16.869 -0.5063 -0.0309 -0.2983
15721TIP3    H168654   2.572   1.029  16.849  0.4288  0.6905 -0.6108
15721TIP3    H268655   2.469   1.122  16.789 -0.2965  0.0157 -0.4199
15722TIP3   OH268656   0.304   6.708  17.113  0.4604  0.3272  0.5287
15722TIP3    H168657   0.324   6.623  17.075  0.4793 -0.1438  1.5808
15722TIP3    H268658   0.211   6.702  17.137 -0.6501  1.8894 -2.7169
15723TIP3   OH268659   1.069   3.327  14.449 -0.5372 -0.7563  0.5396
15723TIP3    H168660   1.045   3.405  14.399  1.3176 -0.0797  0.6261
15723TIP3    H268661   1.097   3.264  14.382  1.8031  0.0983  0.6126
15724TIP3   OH268662   5.963   2.367  16.497 -0.1135  0.1934 -0.6807
15724TIP3    H168663   5.937   2.430  16.430 -0.0580  0.1970 -0.6987
15724TIP3    H268664   6.017   2.304  16.451  0.2662  0.4246 -0.5556
15725TIP3   OH268665   3.421   1.816  17.142 -0.1695  0.1018  0.0393
15725TIP3    H168666   3.466   1.829  17.226  1.5178 -0.2344 -0.7731
15725TIP3    H268667   3.464   1.878  17.082 -1.5888  0.5902 -0.5176
15726TIP3   OH268668   5.005   6.297   5.219  0.3115 -0.7244  0.3885
15726TIP3    H168669   5.038   6.274   5.132  0.7532  0.2750  0.2697
15726TIP3    H268670   4.913   6.270   5.218  0.5124 -1.4159 -0.1170
15727TIP3   OH268671   3.872   3.423  15.230  0.1986  0.2805  0.1356
15727TIP3    H168672   3.848   3.378  15.311 -0.0750 -0.7396 -0.4950
15727TIP3    H268673   3.962   3.453  15.245 -0.2428  1.1254  1.2342
15728TIP3   OH268674   2.988   4.341   0.657  0.6248 -0.4362  0.0341
15728TIP3    H168675   3.013   4.327   0.566  0.4389 -2.8558  0.2951
15728TIP3    H268676   3.069   4.328   0.707  0.7282  0.8865  0.2303
15729TIP3   OH268677   2.951   3.941  16.234  0.0780  0.0734 -0.3087
15729TIP3    H168678   2.919   3.996  16.306 -1.1299  0.8660 -1.4227
15729TIP3    H268679   3.034   3.905  16.267 -1.1158 -0.7565  2.0507
15730TIP3   OH268680   0.888   5.397  10.764  0.3416 -0.2573  0.4302
15730TIP3    H168681   0.811   5.340  10.774 -1.5725  1.6696 -2.1263
15730TIP3    H268682   0.952   5.343  10.717 -0.1584 -1.2904  0.9073
15731TIP3   OH268683   0.526   6.043  16.910  0.2698  0.1771  0.4832
15731TIP3    H168684   0.444   6.022  16.864  0.5577 -2.2672  0.9708
15731TIP3    H268685   0.501   6.113  16.972 -1.1027  0.4627 -0.3446
15732TIP3   OH268686   4.553   2.591  13.774  0.5002  0.2672 -0.3255
15732TIP3    H168687   4.620   2.529  13.801  0.1458 -0.4940 -1.1259
15732TIP3    H268688   4.470   2.551  13.801  0.3808  1.8963  2.0278
15733TIP3   OH268689   4.737   2.227   3.489  0.3356 -0.0179 -0.5396
15733TIP3    H168690   4.656   2.199   3.447 -0.2551  0.0829  0.4913
15733TIP3    H268691   4.736   2.183   3.575  0.5754  1.2316  0.1275
15734TIP3   OH268692   0.399   6.361   1.723 -0.0573  0.1183  1.2288
15734TIP3    H168693   0.419   6.274   1.690 -0.7971 -0.1667  1.5241
15734TIP3    H268694   0.480   6.410   1.711 -0.1419 -0.0984 -0.5905
15735TIP3   OH268695   4.346   0.749  12.665 -0.0094 -1.0717 -0.1314
15735TIP3    H168696   4.431   0.722  12.629 -0.4570 -2.4719 -0.1811
15735TIP3    H268697   4.362   0.759  12.759 -0.4796 -4.5917  0.4489
15736TIP3   OH268698   3.916   2.459   0.522 -0.1938  0.3846 -0.3084
15736TIP3    H168699   3.856   2.527   0.490  0.7413  1.0079 -0.7736
15736TIP3    H268700   3.902   2.385   0.464 -1.3848  0.0817  0.3380
15737TIP3   OH268701   4.031   1.058   0.887  0.2375  0.0894  0.1751
15737TIP3    H168702   3.962   1.124   0.886 -1.7455 -1.8339  2.0850
15737TIP3    H268703   4.044   1.037   0.979  1.1095 -1.8769 -0.3455
15738TIP3   OH268704   5.023   3.959   5.573  0.9064  0.5094 -0.0612
15738TIP3    H168705   5.093   4.009   5.613  2.5777 -1.3040 -0.5760
15738TIP3    H268706   5.011   3.883   5.630 -0.9142  0.9393  0.2000
15739TIP3   OH268707   2.104   5.790  15.639 -0.0634  0.3615  0.2810
15739TIP3    H168708   2.195   5.816  15.621 -0.2719  0.8022 -0.1617
15739TIP3    H268709   2.073   5.752  15.557 -0.2312  0.0577  0.4825
15740TIP3   OH268710   1.406   0.172  15.397 -0.3942 -0.6156  0.1097
15740TIP3    H168711   1.395   0.134  15.484  0.6105  0.1335  0.5893
15740TIP3    H268712   1.500   0.170  15.382 -0.4645  0.1963 -0.5182
15741TIP3   OH268713   0.393   0.387   0.885  0.7713  0.0054 -0.0038
15741TIP3    H168714   0.379   0.373   0.979  0.9660 -0.7593 -0.0877
15741TIP3    H268715   0.312   0.428   0.855  0.8441  0.5909  0.5608
15742TIP3   OH268716   6.708   1.901  11.657 -0.0436  0.1890  0.2372
15742TIP3    H168717   6.653   1.847  11.601 -1.8240  0.7309  1.3643
15742TIP3    H268718   6.649   1.969  11.690  1.0514  0.2212  2.2872
15743TIP3   OH268719   0.199   1.013   4.409 -0.2676 -0.6927  0.2213
15743TIP3    H168720   0.286   1.044   4.435 -0.7161 -0.0110  0.9759
15743TIP3    H268721   0.194   0.924   4.443  0.2475 -0.8400 -0.0848
15744TIP3   OH268722   5.838   0.288  13.370  0.6777  0.2848  0.2667
15744TIP3    H168723   5.856   0.370  13.324  1.2230 -0.7035 -1.3292
15744TIP3    H268724   5.744   0.273  13.357  0.9278 -0.2721 -1.0647
15745TIP3   OH268725   0.843   0.881   0.091  0.3595  0.1215 -0.2996
15745TIP3    H168726   0.916   0.859   0.034  0.3936 -0.6571  0.0339
15745TIP3    H268727   0.827   0.801   0.142  0.2999  0.7745  0.7430
15746TIP3   OH268728   2.955   0.283   0.914 -0.2068 -0.8008 -0.1265
15746TIP3    H168729   2.906   0.208   0.946  0.9251 -1.3161  0.4675
15746TIP3    H268730   3.035   0.285   0.967  0.5105 -0.1107 -1.1678
15747TIP3   OH268731   6.458   2.922  12.268 -0.9791  0.2593 -0.0136
15747TIP3    H168732   6.511   2.906  12.189  1.2802 -0.1579  1.4875
15747TIP3    H268733   6.377   2.959  12.235 -0.9345 -1.6967 -2.6962
15748TIP3   OH268734   0.751   2.342   0.859  0.6466  0.5257  0.1259
15748TIP3    H168735   0.718   2.430   0.845  0.1717  0.5512  1.2907
15748TIP3    H268736   0.781   2.313   0.773 -1.5632  0.8528 -0.8218
15749TIP3   OH268737   6.810   3.262   4.751 -0.2555  0.1586 -0.0918
15749TIP3    H168738   6.738   3.317   4.721 -1.1955  0.3318  2.2691
15749TIP3    H268739   6.889   3.313   4.732 -0.9681  1.3120 -0.0440
15750TIP3   OH268740   0.932   2.274  16.468  0.4304  0.3732 -0.1197
15750TIP3    H168741   0.845   2.268  16.508  0.5671  0.2823  0.1709
15750TIP3    H268742   0.981   2.201  16.507  0.6591  0.4724 -0.2199
15751TIP3   OH268743   2.066   2.271   5.915 -0.0573  0.0385  0.5631
15751TIP3    H168744   2.088   2.356   5.877  0.5351 -0.7772 -1.0370
15751TIP3    H268745   2.047   2.215   5.839 -0.5609 -1.2201  1.5796
15752TIP3   OH268746   0.509   2.175   5.029  0.0944 -0.0043  0.1130
15752TIP3    H168747   0.446   2.167   5.101 -1.2219 -0.5666 -1.0515
15752TIP3    H268748   0.514   2.086   4.993  2.1126 -0.1313  0.5911
15753TIP3   OH268749   3.547   5.401   1.572 -0.1138  0.1005 -0.6035
15753TIP3    H168750   3.601   5.372   1.646 -0.5207  0.7753 -0.0347
15753TIP3    H268751   3.499   5.477   1.605 -0.1926  0.5053 -1.6097
15754TIP3   OH268752   2.422   1.564   4.870 -0.8238  0.5091  0.5197
15754TIP3    H168753   2.389   1.612   4.945 -0.0331  0.8198  0.6834
15754TIP3    H268754   2.445   1.632   4.806  2.5457  0.6047  1.6448
15755TIP3   OH268755   2.696   5.668   6.016  0.0047  0.7166 -0.1835
15755TIP3    H168756   2.756   5.741   6.031 -0.8447  1.8869 -2.0624
15755TIP3    H268757   2.702   5.651   5.922  0.4670 -1.9572  0.2464
15756TIP3   OH268758   5.725   0.496  14.133  0.3292 -0.2126  0.4548
15756TIP3    H168759   5.733   0.545  14.215 -0.0514 -0.1605  0.4641
15756TIP3    H268760   5.736   0.562  14.065 -1.0966  0.0633  0.4637
15757TIP3   OH268761   2.653   2.331   3.860  0.4518  0.7691 -0.6987
15757TIP3    H168762   2.583   2.395   3.847 -0.2801  0.3467  0.9117
15757TIP3    H268763   2.723   2.360   3.802 -0.8630  1.4942 -1.9776
15758TIP3   OH268764   1.812   3.332   3.894 -0.1861  0.2142  0.5725
15758TIP3    H168765   1.890   3.279   3.909 -0.7434 -1.5243 -2.0547
15758TIP3    H268766   1.740   3.278   3.927 -0.5575  0.4026  0.0735
15759TIP3   OH268767   3.325   3.698  14.718  0.3236 -0.0604  0.2902
15759TIP3    H168768   3.230   3.687  14.714  0.3252 -0.7989  1.6588
15759TIP3    H268769   3.355   3.678  14.630 -0.8102  0.5252 -0.2581
15760TIP3   OH268770   5.559   0.901  12.969 -0.4338  0.4632 -0.3956
15760TIP3    H168771   5.567   0.968  13.037  2.7053 -0.2290  0.0595
15760TIP3    H268772   5.534   0.950  12.891 -1.5361  1.6414  0.6359
15761TIP3   OH268773   6.681   6.528   0.267  0.1967  0.8043  0.5817
15761TIP3    H168774   6.625   6.528   0.345  0.7553  1.1638  0.9950
15761TIP3    H268775   6.664   6.444   0.224  1.9991 -0.7590  2.6484
15762TIP3   OH268776   1.115   5.879  16.308 -0.0146 -0.0129  0.0735
15762TIP3    H168777   1.197   5.925  16.327 -2.1123  3.3381  2.0412
15762TIP3    H268778   1.074   5.868  16.394 -0.6277 -3.9442 -0.5666
15763TIP3   OH268779   4.146   3.746  15.631  0.3362  0.9438  0.2258
15763TIP3    H168780   4.202   3.783  15.699  0.7131  1.3799 -0.3082
15763TIP3    H268781   4.208   3.711  15.566 -0.0130  0.1289  0.3153
15764TIP3   OH268782   3.720   3.740   0.771  0.0899  0.3143 -0.5141
15764TIP3    H168783   3.740   3.810   0.833  0.0296 -0.3785  0.3028
15764TIP3    H268784   3.703   3.664   0.826  1.4829 -0.7024 -1.4368
15765TIP3   OH268785   4.412   3.832   4.530  0.4617 -0.6806  0.3259
15765TIP3    H168786   4.466   3.752   4.534  0.4889 -0.6096  2.0623
15765TIP3    H268787   4.446   3.879   4.454 -0.4443 -2.9093 -1.6073
15766TIP3   OH268788   6.742   3.941  15.380  0.1557 -0.3928  0.0232
15766TIP3    H168789   6.809   3.949  15.449  1.8005  1.0401 -1.6296
15766TIP3    H268790   6.766   3.861  15.334  0.0582 -0.4652  0.0976
15767TIP3   OH268791   6.093   0.626  14.512 -0.3854 -0.7885  0.0044
15767TIP3    H168792   6.045   0.573  14.575  1.6331 -3.2542 -0.3959
15767TIP3    H268793   6.128   0.563  14.449  0.2499  1.2707 -1.8340
15768TIP3   OH268794   0.295   6.041   1.125 -0.8098  0.4618 -0.7097
15768TIP3    H168795   0.289   6.122   1.074  3.4103  1.8014  0.4417
15768TIP3    H268796   0.348   5.983   1.071  0.1578  0.3206  0.3511
15769TIP3   OH268797   4.839   3.680  14.493 -0.0234 -0.2360  0.7404
15769TIP3    H168798   4.881   3.632  14.422 -1.1191 -1.5567  0.9404
15769TIP3    H268799   4.747   3.686  14.466 -0.1341  0.6790  1.2979
15770TIP3   OH268800   6.640   2.771   2.438 -0.7304 -0.2444 -0.3516
15770TIP3    H168801   6.606   2.860   2.435 -0.1303 -0.0265 -1.3233
15770TIP3    H268802   6.696   2.765   2.361  1.9917 -0.3665  1.5051
15771TIP3   OH268803   3.343   1.527  11.489 -0.0867  0.1710 -0.4307
15771TIP3    H168804   3.278   1.526  11.558 -1.4323  0.7206 -1.6470
15771TIP3    H268805   3.331   1.443  11.443  1.2864 -0.5164  0.3984
15772TIP3   OH268806   4.098   3.670  12.163  0.1458 -0.1022  0.2450
15772TIP3    H168807   4.081   3.685  12.257 -1.2776 -0.1376  0.0142
15772TIP3    H268808   4.109   3.576  12.155 -1.2567 -0.2805  0.1739
15773TIP3   OH268809   3.363   0.628   1.272  0.3687  0.6353  0.1558
15773TIP3    H168810   3.452   0.628   1.307  0.2172 -0.0535  0.5499
15773TIP3    H268811   3.365   0.696   1.205  0.5812  2.2151  1.6918
15774TIP3   OH268812   3.318   5.212   1.491  0.3683  0.3482 -0.5045
15774TIP3    H168813   3.390   5.266   1.522  1.3923 -0.7950 -0.8305
15774TIP3    H268814   3.347   5.122   1.506 -0.2708 -0.1842 -2.1991
15775TIP3   OH268815   4.467   2.766  13.076  0.8352 -0.1194 -0.1498
15775TIP3    H168816   4.430   2.688  13.117  2.1259 -0.9110 -0.4457
15775TIP3    H268817   4.549   2.781  13.123  0.9167  0.6769 -0.5282
15776TIP3   OH268818   1.320   6.633  13.523 -0.5694  0.0666 -0.2381
15776TIP3    H168819   1.319   6.664  13.433 -0.9639  1.9676  0.3682
15776TIP3    H268820   1.238   6.666  13.560  0.4498  0.9747  1.3173
15777TIP3   OH268821   4.093   0.963  14.156  0.2553 -0.4887 -0.7163
15777TIP3    H168822   4.127   1.017  14.084  0.8592 -0.3113 -0.2990
15777TIP3    H268823   4.000   0.954  14.136  0.1259  0.7466 -0.7864
15778TIP3   OH268824   0.241   6.810   0.466 -0.0475  0.4882  0.2383
15778TIP3    H168825   0.267   6.864   0.391 -0.4629  1.2872  0.6566
15778TIP3    H268826   0.323   6.776   0.501  0.1369 -0.0916 -0.7165
15779TIP3   OH268827   4.706   3.132   5.506 -0.1509 -0.2005  0.2323
15779TIP3    H168828   4.740   3.112   5.593 -0.1602  0.5490  0.4213
15779TIP3    H268829   4.644   3.205   5.521  2.3496  2.3150 -0.7812
15780TIP3   OH268830   2.653   1.623  15.189  0.1521  0.1497  0.5213
15780TIP3    H168831   2.591   1.691  15.163 -0.0879 -0.3238 -0.1704
15780TIP3    H268832   2.728   1.670  15.225  0.5898  0.8370 -1.2473
15781TIP3   OH268833   2.135   5.636  14.632  0.7275  0.2530  0.1601
15781TIP3    H168834   2.148   5.679  14.548  0.6496 -1.5126 -0.8247
15781TIP3    H268835   2.194   5.560  14.629 -1.5484 -1.6560  0.2776
15782TIP3   OH268836   6.098   0.767  14.737 -0.3713  0.2703  0.3632
15782TIP3    H168837   6.191   0.767  14.759  0.0239  3.1073 -0.8548
15782TIP3    H268838   6.094   0.742  14.645 -1.1287 -2.3305  1.0296
15783TIP3   OH268839   0.133   0.498  17.141  0.0795  0.2453  0.0887
15783TIP3    H168840   0.169   0.479  17.228  0.7147  0.7181 -0.0642
15783TIP3    H268841   0.197   0.461  17.080  0.3350  1.1279 -0.1871
15784TIP3   OH268842   1.522   0.384  11.034 -0.3158 -0.0079  0.6485
15784TIP3    H168843   1.487   0.296  11.021 -1.2214  0.0630  2.3585
15784TIP3    H268844   1.463   0.440  10.983 -1.2233 -0.1658  1.4856
15785TIP3   OH268845   5.358   2.748  10.804 -0.2219  0.1308  0.0224
15785TIP3    H168846   5.314   2.791  10.731  0.1790  0.0348 -0.2807
15785TIP3    H268847   5.418   2.815  10.839  2.2385 -0.8382 -1.9923
15786TIP3   OH268848   3.489   3.753   2.107 -0.0525  0.0440  0.4307
15786TIP3    H168849   3.414   3.709   2.066 -0.6466  2.0693 -0.8497
15786TIP3    H268850   3.546   3.775   2.033  0.0182  1.7040  0.9384
15787TIP3   OH268851   5.319   4.878   4.574 -0.0569 -0.6054  0.1870
15787TIP3    H168852   5.333   4.787   4.545 -1.0316 -0.9865  0.8447
15787TIP3    H268853   5.337   4.875   4.668  0.8633  0.1150  0.0443
15788TIP3   OH268854   2.131   1.142  13.922 -0.2172  0.1179  0.5668
15788TIP3    H168855   2.114   1.063  13.871 -0.6335 -0.7592  1.9875
15788TIP3    H268856   2.055   1.149  13.981  0.4094  0.8680  1.3074
15789TIP3   OH268857   0.864   0.118  12.547 -0.2058 -0.3865  0.7105
15789TIP3    H168858   0.892   0.074  12.627  0.1623  0.4374  1.0463
15789TIP3    H268859   0.865   0.049  12.480  1.6600 -0.6105  0.9215
15790TIP3   OH268860   0.432   0.142  11.568  0.2364 -0.2481 -0.2069
15790TIP3    H168861   0.404   0.194  11.644 -1.5219  0.1926 -1.0936
15790TIP3    H268862   0.361   0.079  11.556 -0.5100  0.9524 -2.6435
15791TIP3   OH268863   4.976   6.505   4.687  0.4985 -0.0851 -0.2149
15791TIP3    H168864   4.940   6.523   4.774 -0.2824  0.9849 -0.7377
15791TIP3    H268865   5.063   6.469   4.704 -0.4803 -1.9976  1.0614
15792TIP3   OH268866   5.401   4.715   0.442  0.4826 -0.4005 -0.5041
15792TIP3    H168867   5.450   4.656   0.385  0.1124 -1.1286 -0.0842
15792TIP3    H268868   5.314   4.720   0.402  0.7814  0.6301 -1.0668
15793TIP3   OH268869   4.683   0.249   0.154  0.3707  0.1013  0.8853
15793TIP3    H168870   4.713   0.161   0.132 -0.9870 -0.1526 -0.0276
15793TIP3    H268871   4.664   0.246   0.247  2.5012  0.0952  1.3663
15794TIP3   OH268872   4.556   4.130  14.442 -0.1625 -0.3492  0.0647
15794TIP3    H168873   4.540   4.224  14.450 -0.3767 -0.4143  0.4473
15794TIP3    H268874   4.651   4.122  14.430 -0.1312 -0.0905  0.1408
15795TIP3   OH268875   5.269   2.879   4.081 -0.5023  0.8327  0.0097
15795TIP3    H168876   5.263   2.973   4.064 -1.7526  0.6338 -0.8010
15795TIP3    H268877   5.226   2.868   4.166 -2.1788  0.7937 -0.7885
15796TIP3   OH268878   4.518   0.561  16.549 -0.0680  0.1916 -0.5104
15796TIP3    H168879   4.558   0.520  16.625 -0.5466 -1.8330 -1.2865
15796TIP3    H268880   4.555   0.650  16.547  1.6642 -0.4524  0.7604
15797TIP3   OH268881   5.414   6.541  15.751 -0.2654  0.4086  0.4123
15797TIP3    H168882   5.481   6.594  15.793 -0.7880  1.4114  0.0217
15797TIP3    H268883   5.371   6.495  15.823  0.4446  0.2254  0.7207
15798TIP3   OH268884   4.259   5.517   3.332  0.2605 -0.1386 -0.3855
15798TIP3    H168885   4.174   5.474   3.344  0.6693 -0.3823  2.6457
15798TIP3    H268886   4.315   5.477   3.400  1.7623  2.4889  0.0563
15799TIP3   OH268887   0.060   4.011   3.545  0.3966 -0.0658 -0.4456
15799TIP3    H168888   0.068   3.938   3.606  2.1044  0.1519 -0.3426
15799TIP3    H268889   0.151   4.037   3.528 -0.1444  2.8546  0.5181
15800TIP3   OH268890   6.167   1.405  14.830  0.8673 -0.3810 -0.3217
15800TIP3    H168891   6.211   1.489  14.822  1.0170 -0.4205  0.0631
15800TIP3    H268892   6.092   1.423  14.888  0.4485 -0.3420 -0.8647
15801TIP3   OH268893   0.062   5.669  13.604 -0.3326 -0.2745 -0.1343
15801TIP3    H168894   0.114   5.615  13.664  1.5675 -2.5777 -3.5031
15801TIP3    H268895   0.122   5.737  13.575 -0.6949 -0.1449 -0.5833
15802TIP3   OH268896   0.940   6.800   5.360  0.0541 -0.2302  0.2665
15802TIP3    H168897   0.844   6.805   5.362 -0.0393 -0.4924 -1.7910
15802TIP3    H268898   0.958   6.706   5.354  0.3443 -0.0940 -1.2988
15803TIP3   OH268899   2.584   1.509   2.707  0.7065  0.2372 -0.1925
15803TIP3    H168900   2.566   1.600   2.731 -0.7611 -0.3327  1.0256
15803TIP3    H268901   2.654   1.481   2.767  0.6320  0.3327 -0.0625
15804TIP3   OH268902   0.016   4.943  14.746 -0.3677  0.2066  0.1430
15804TIP3    H168903  -0.058   4.883  14.752 -0.2810  0.1964  1.4585
15804TIP3    H268904  -0.005   4.999  14.671  0.7958 -3.0378 -2.8983
15805TIP3   OH268905   0.873   2.858   3.065 -0.4289 -0.3545 -0.2366
15805TIP3    H168906   0.913   2.897   2.988  0.1593 -0.8493 -0.1848
15805TIP3    H268907   0.936   2.871   3.135 -0.7425 -0.3502  0.0501
15806TIP3   OH268908   2.679   3.095   6.572 -0.2289 -0.0937  0.1006
15806TIP3    H168909   2.631   3.140   6.642 -2.4479 -1.0134 -0.7451
15806TIP3    H268910   2.679   3.003   6.599 -0.4087 -0.3341 -0.6968
15807TIP3   OH268911   0.731   3.538   0.092  0.2149  0.3858  0.1022
15807TIP3    H168912   0.733   3.632   0.106  0.9552  0.7594 -2.0866
15807TIP3    H268913   0.820   3.515   0.064 -0.9132 -0.1129 -3.6788
15808TIP3   OH268914   3.166   6.428   1.128 -0.2723 -0.3705  0.2838
15808TIP3    H168915   3.087   6.430   1.182  1.5074  0.0312  3.0745
15808TIP3    H268916   3.194   6.337   1.128  1.5611  0.0583  3.1341
15809TIP3   OH268917   6.332   1.527   2.413 -0.1650 -0.6506 -0.1787
15809TIP3    H168918   6.300   1.447   2.455 -0.8022 -0.3375 -0.0507
15809TIP3    H268919   6.285   1.598   2.457  2.0214 -0.0145  1.2617
15810TIP3   OH268920   4.441   4.731   0.001  0.0316  0.4895  0.3240
15810TIP3    H168921   4.426   4.814  -0.044  1.7451  0.3297 -0.6480
15810TIP3    H268922   4.406   4.664  -0.059 -0.2546  0.4409  0.5455
15811TIP3   OH268923   2.905   5.794  14.988  0.1020 -0.0475 -0.1238
15811TIP3    H168924   2.906   5.890  14.981  0.5644  0.0323  0.7992
15811TIP3    H268925   2.962   5.765  14.917  1.8550  0.5052  0.9830
15812TIP3   OH268926   4.061   5.403   4.235  0.1547  0.0939  0.3401
15812TIP3    H168927   4.149   5.368   4.250  0.3160 -0.0952 -0.9303
15812TIP3    H268928   4.074   5.478   4.177 -0.6468 -1.2162 -1.6723
15813TIP3   OH268929   5.688   6.014   3.551  0.2773  0.2655  0.1263
15813TIP3    H168930   5.661   5.981   3.465  1.3083 -1.8816  0.5864
15813TIP3    H268931   5.606   6.032   3.596 -0.2872  0.2645 -0.8676
15814TIP3   OH268932   5.606   3.752  11.051  0.7232  0.6755  0.4561
15814TIP3    H168933   5.702   3.752  11.048  0.7028  0.0659 -0.5535
15814TIP3    H268934   5.579   3.781  10.964  0.0086 -0.7672  0.1541
15815TIP3   OH268935   0.700   6.790  10.970  0.1996  0.0878  0.7129
15815TIP3    H168936   0.679   6.697  10.979 -0.1970  0.1954  0.8989
15815TIP3    H268937   0.703   6.805  10.876  1.4954 -0.3904  0.6562
15816TIP3   OH268938   5.265   1.437  12.792 -0.3837 -0.1241  0.2744
15816TIP3    H168939   5.338   1.480  12.838 -0.6762  0.6945 -0.0184
15816TIP3    H268940   5.187   1.469  12.836 -0.6452  0.2924 -0.4896
15817TIP3   OH268941   0.452   4.089   1.514  0.4968 -0.3022 -0.2047
15817TIP3    H168942   0.516   4.090   1.585 -0.0356  1.1806  0.3105
15817TIP3    H268943   0.497   4.129   1.440  0.1835  0.8367  0.1879
15818TIP3   OH268944   4.957   2.063  14.700 -0.7670  0.1956 -0.4048
15818TIP3    H168945   4.900   2.140  14.701  1.6698  2.1238  0.5379
15818TIP3    H268946   5.010   2.074  14.621  0.8555  0.5529  0.6795
15819TIP3   OH268947   3.746   1.552   2.510  0.1480 -0.0099  0.6730
15819TIP3    H168948   3.757   1.598   2.428  0.0518 -0.2932  0.4983
15819TIP3    H268949   3.709   1.467   2.485 -0.7526  0.2544  1.0877
15820TIP3   OH268950   2.983   3.148   5.083  0.6047  0.0343 -0.2012
15820TIP3    H168951   3.032   3.079   5.038 -1.5207 -0.9945 -1.0491
15820TIP3    H268952   2.931   3.102   5.149  0.1896  0.9896  0.1525
15821TIP3   OH268953   5.657   1.861   0.053 -0.0760  0.4108  0.3030
15821TIP3    H168954   5.683   1.771   0.037  0.8472  0.6751  0.2319
15821TIP3    H268955   5.739   1.911   0.049 -0.4067  1.0956  1.5056
15822TIP3   OH268956   4.718   6.798   1.231 -0.2500  0.1338  0.0930
15822TIP3    H168957   4.801   6.761   1.201  0.2685 -0.8880  2.5196
15822TIP3    H268958   4.671   6.819   1.151  1.3003 -1.6239 -1.3910
15823TIP3   OH268959   1.345   6.722   4.871  0.5490 -0.5305 -0.2253
15823TIP3    H168960   1.418   6.661   4.857  0.0928 -0.7362 -1.9762
15823TIP3    H268961   1.344   6.776   4.792 -1.0181 -0.3366 -0.0951
15824TIP3   OH268962   3.459   2.116   5.885  0.7484 -0.1169  0.5704
15824TIP3    H168963   3.494   2.073   5.963  2.5848  2.5726  1.3515
15824TIP3    H268964   3.395   2.179   5.919 -0.0307 -0.3898 -0.3251
15825TIP3   OH268965   2.459   5.355   0.692  0.2835 -1.2735  0.2769
15825TIP3    H168966   2.542   5.358   0.740 -0.1813 -0.8657  1.0726
15825TIP3    H268967   2.410   5.283   0.733 -1.1023  0.5858  2.1386
15826TIP3   OH268968   2.645   3.933   3.742  0.2234 -0.2690  0.1861
15826TIP3    H168969   2.587   3.972   3.807  0.4555 -1.5922  1.2329
15826TIP3    H268970   2.730   3.926   3.786  0.9416  0.6907 -0.9770
15827TIP3   OH268971   1.856   6.013   5.494 -0.1347  0.3675  0.3479
15827TIP3    H168972   1.908   6.064   5.556  0.5712 -0.3711  0.3719
15827TIP3    H268973   1.867   5.922   5.521 -2.3521  0.2508  1.0447
15828TIP3   OH268974   6.784   4.985   4.698 -0.0877  0.0292  0.5074
15828TIP3    H168975   6.709   4.989   4.639  1.7985  1.7557 -1.9999
15828TIP3    H268976   6.819   4.897   4.687 -0.2254  0.0738 -0.3347
15829TIP3   OH268977   4.749   1.414   3.879 -0.2925  0.3623  0.1570
15829TIP3    H168978   4.800   1.489   3.847  0.3005  1.0503  2.4813
15829TIP3    H268979   4.805   1.376   3.947 -2.1723  0.0977  1.6058
15830TIP3   OH268980   4.135   0.314   3.215  0.1044  0.1909  0.1313
15830TIP3    H168981   4.111   0.271   3.133 -0.6897  0.0805  0.4157
15830TIP3    H268982   4.198   0.382   3.188 -0.3220  0.3112 -0.6040
15831TIP3   OH268983   4.339   3.661  12.828 -0.6779 -0.0799 -0.1781
15831TIP3    H168984   4.429   3.633  12.810 -0.1796  1.3864 -0.0592
15831TIP3    H268985   4.285   3.609  12.768  0.1028 -1.8714  0.5897
15832TIP3   OH268986   4.217   4.332  16.780 -0.3280 -0.0933  0.3070
15832TIP3    H168987   4.226   4.260  16.843  1.1061  0.0461  0.2809
15832TIP3    H268988   4.252   4.297  16.699 -0.1544  0.4520  0.1449
15833TIP3   OH268989   1.831   2.051   3.811 -0.0259 -0.3211  0.7835
15833TIP3    H168990   1.738   2.057   3.834  0.3381  0.7810  2.1697
15833TIP3    H268991   1.865   2.139   3.829  1.1060 -0.4474 -0.5868
15834TIP3   OH268992   1.121   2.334  13.330 -0.2792 -0.4217 -0.5023
15834TIP3    H168993   1.051   2.385  13.290  0.3075  0.3471 -0.5679
15834TIP3    H268994   1.101   2.243  13.307 -1.9065 -0.3529  0.4809
15835TIP3   OH268995   6.229   4.806   5.513  0.0883 -0.1056 -0.6914
15835TIP3    H168996   6.309   4.833   5.559 -0.5274  0.4360  0.0745
15835TIP3    H268997   6.231   4.856   5.432  0.9020 -0.6617 -1.0350
15836TIP3   OH268998   5.943   0.889   2.960  0.1429 -0.2678 -0.5685
15836TIP3    H168999   5.965   0.799   2.936  1.2614 -0.6261  1.5793
15836TIP3    H269000   5.861   0.882   3.009  0.8815 -0.3271  0.7068
15837TIP3   OH269001   5.427   0.936   4.713  0.2135 -0.1475  0.0295
15837TIP3    H169002   5.475   1.010   4.750  0.7732 -0.6510  0.3307
15837TIP3    H269003   5.346   0.932   4.764  0.0707  0.3982 -0.1461
15838TIP3   OH269004   0.430   0.405  12.479 -0.5370 -0.0186 -0.1742
15838TIP3    H169005   0.397   0.345  12.412 -0.4274 -0.4555  0.1615
15838TIP3    H269006   0.352   0.433  12.527 -0.6329  0.4101 -0.5751
15839TIP3   OH269007   4.228   2.132   4.523  0.4065 -0.4117  0.1653
15839TIP3    H169008   4.136   2.117   4.503 -0.0710 -0.2998  2.0450
15839TIP3    H269009   4.248   2.216   4.482 -1.2508  1.1145  2.2564
15840TIP3   OH269010   4.536   1.186  16.587 -0.1729  0.1489  0.3873
15840TIP3    H169011   4.577   1.112  16.542 -1.0428 -1.0776  1.5804
15840TIP3    H269012   4.446   1.159  16.602 -0.5638  1.5349  0.6790
15841TIP3   OH269013   5.989   0.402   0.162  0.1126  0.2789 -0.2596
15841TIP3    H169014   6.076   0.373   0.135  0.0730  1.1490 -1.3800
15841TIP3    H269015   5.998   0.423   0.255  1.3817  1.4019 -0.6141
15842TIP3   OH269016   4.719   2.798   4.279  0.0106 -0.3151  0.1216
15842TIP3    H169017   4.751   2.746   4.205 -2.0326 -1.1093 -0.2572
15842TIP3    H269018   4.782   2.781   4.349  1.6368 -0.0645 -1.1888
15843TIP3   OH269019   6.154   1.682  12.322  0.2633  0.0605 -0.5259
15843TIP3    H169020   6.125   1.613  12.262 -1.1112  1.2960 -1.3485
15843TIP3    H269021   6.073   1.725  12.350  0.9721  0.3148  1.2712
15844TIP3   OH269022   1.198   5.661   5.167 -0.1545  0.2031  0.3761
15844TIP3    H169023   1.125   5.701   5.213 -1.9623 -1.3248 -1.0040
15844TIP3    H269024   1.239   5.734   5.120 -1.9729  0.8434 -0.3095
15845TIP3   OH269025   0.147   1.013   5.851  0.4564  0.5963 -0.2229
15845TIP3    H169026   0.084   0.980   5.787  0.7984  0.9902 -0.7769
15845TIP3    H269027   0.232   1.001   5.809  0.6655  1.1039  0.0437
15846TIP3   OH269028   4.777   6.234  15.195 -0.0199 -0.2741  0.0333
15846TIP3    H169029   4.794   6.142  15.216 -0.5759 -0.2616  0.5586
15846TIP3    H269030   4.825   6.283  15.262  3.2228 -0.0355 -2.2174
15847TIP3   OH269031   1.272   5.628  16.183  0.1005  0.1126  0.4528
15847TIP3    H169032   1.278   5.603  16.275  2.5327  0.0020  0.3097
15847TIP3    H269033   1.280   5.723  16.183 -1.6615  0.2966  0.4370
15848TIP3   OH269034   2.143   3.806   0.192  0.2950  0.0902 -0.2161
15848TIP3    H169035   2.091   3.878   0.156  0.1096  0.0626 -0.0077
15848TIP3    H269036   2.078   3.738   0.211  0.5172 -0.3019 -0.8209
15849TIP3   OH269037   0.506   3.893  15.968  0.1610  0.1668  0.3880
15849TIP3    H169038   0.576   3.852  16.019 -0.7746  0.0754  1.6425
15849TIP3    H269039   0.427   3.847  15.994 -0.3423  0.0557 -1.2502
15850TIP3   OH269040   4.504   5.466   5.758  0.1495 -0.3502 -0.1388
15850TIP3    H169041   4.433   5.529   5.770 -1.3253 -1.6491 -1.4389
15850TIP3    H269042   4.533   5.444   5.846 -1.4181 -0.1283  0.4573
15851TIP3   OH269043   1.369   0.482   3.467  0.1612  0.2847  0.6521
15851TIP3    H169044   1.282   0.444   3.465  0.9808 -1.6995 -0.7381
15851TIP3    H269045   1.405   0.456   3.553 -0.6138  1.2341  1.2882
15852TIP3   OH269046   6.145   3.790  17.127 -0.4231 -0.4564 -0.2764
15852TIP3    H169047   6.215   3.767  17.187 -0.2038 -0.0531 -0.3757
15852TIP3    H269048   6.150   3.725  17.057 -0.4834 -0.7404 -0.0166
15853TIP3   OH269049   5.720   5.367  14.358  0.3590  0.1206 -0.3768
15853TIP3    H169050   5.784   5.438  14.354  0.0953  0.3387 -0.8741
15853TIP3    H269051   5.771   5.290  14.382  0.6599  0.4635  0.0904
15854TIP3   OH269052   1.169   5.144  13.339  0.2121  0.2161 -0.0412
15854TIP3    H169053   1.168   5.048  13.340 -0.3962  0.1781 -1.6155
15854TIP3    H269054   1.168   5.167  13.246  0.0889  1.7568  0.3172
15855TIP3   OH269055   4.132   6.685  15.503  0.1221  0.3567 -0.5774
15855TIP3    H169056   4.144   6.598  15.541  1.0487  0.8717  0.3998
15855TIP3    H269057   4.220   6.710  15.473  0.6866  2.2418  2.1765
15856TIP3   OH269058   6.006   3.531  16.133  0.2068 -0.1112 -0.1085
15856TIP3    H169059   6.022   3.446  16.092  0.0551  0.6511 -1.8167
15856TIP3    H269060   6.003   3.593  16.060 -0.4745  1.2538  1.0314
15857TIP3   OH269061   2.435   5.204  14.202  0.2755 -0.1291 -0.7342
15857TIP3    H169062   2.424   5.190  14.108  2.5271  1.0739 -1.2483
15857TIP3    H269063   2.525   5.174  14.220  0.0944  0.2126  0.9099
15858TIP3   OH269064   3.889   1.606  11.662 -0.0858 -0.0760 -0.2785
15858TIP3    H169065   3.831   1.652  11.600 -1.2344  1.8548  2.0615
15858TIP3    H269066   3.918   1.674  11.723 -0.0996 -2.0697  2.1085
15859TIP3   OH269067   3.277   0.250  14.432  0.1576 -0.0609  0.3983
15859TIP3    H169068   3.293   0.175  14.490  0.2555 -1.5506 -1.4817
15859TIP3    H269069   3.356   0.303  14.440  0.2937 -0.3792  1.3938
15860TIP3   OH269070   5.523   4.054  12.847  0.2200  0.5920  0.3576
15860TIP3    H169071   5.575   4.033  12.770 -0.9560  0.9054 -0.5518
15860TIP3    H269072   5.588   4.069  12.916  1.2495 -3.5486  0.5177
15861TIP3   OH269073   1.133   3.696   0.378  0.5001  0.0203  0.9607
15861TIP3    H169074   1.058   3.751   0.401  0.1988  0.1146 -0.1887
15861TIP3    H269075   1.096   3.612   0.355  0.7357  0.0838  0.3267
15862TIP3   OH269076   4.128   3.367   4.679  0.3682 -0.4984  0.4296
15862TIP3    H169077   4.205   3.417   4.709 -0.0713  1.8145 -1.8640
15862TIP3    H269078   4.154   3.333   4.593 -0.7275 -0.7919  0.2009
15863TIP3   OH269079   5.157   0.318  13.831  0.4439 -0.0026  0.4820
15863TIP3    H169080   5.142   0.389  13.768 -0.0552 -1.0177 -0.5955
15863TIP3    H269081   5.250   0.324  13.853  1.1462 -0.7866 -1.9148
15864TIP3   OH269082   4.769   0.121   4.336  0.6854  0.3516  0.2167
15864TIP3    H169083   4.848   0.128   4.390 -0.7482  0.4113  2.4419
15864TIP3    H269084   4.724   0.044   4.369 -0.4923  0.6775 -0.5736
15865TIP3   OH269085   5.366   6.687   4.309 -0.0982  0.1690  0.3742
15865TIP3    H169086   5.316   6.704   4.389 -1.4623  1.7894 -0.7476
15865TIP3    H269087   5.301   6.652   4.248  1.2512 -2.6655  0.3941
15866TIP3   OH269088   2.201   0.271   0.328 -0.8367  0.0391 -0.1797
15866TIP3    H169089   2.109   0.297   0.318 -1.7841 -1.4548  3.0680
15866TIP3    H269090   2.251   0.348   0.299 -3.0615  0.9012 -2.0275
15867TIP3   OH269091   1.784   5.663  12.720 -0.0353 -0.4116 -0.0164
15867TIP3    H169092   1.704   5.710  12.745  0.1252  1.3683 -2.5627
15867TIP3    H269093   1.760   5.614  12.641  1.4123  0.3573 -0.9740
15868TIP3   OH269094   0.742   3.516   4.737 -0.7019  0.0685  0.3383
15868TIP3    H169095   0.658   3.515   4.783 -0.8394 -1.0323  0.0825
15868TIP3    H269096   0.725   3.564   4.656 -0.9356  0.3393  0.5439
15869TIP3   OH269097   3.102   6.355  11.895 -0.3217  0.2945 -0.0013
15869TIP3    H169098   3.028   6.317  11.848  0.5399 -0.7998 -0.5419
15869TIP3    H269099   3.085   6.449  11.896 -0.9254  0.2345 -1.5576
15870TIP3   OH269100   0.790   3.188   1.201  0.0456  0.0711  0.3946
15870TIP3    H169101   0.830   3.206   1.116 -0.5151  1.8266  0.4571
15870TIP3    H269102   0.857   3.212   1.264 -0.7222  2.2379  0.4797
15871TIP3   OH269103   5.451   0.456   5.777  0.1880 -0.1225 -0.1959
15871TIP3    H169104   5.502   0.472   5.856  0.8211 -0.1324 -0.5936
15871TIP3    H269105   5.509   0.402   5.722 -1.4613 -3.0305  0.6965
15872TIP3   OH269106   0.713   5.612  12.274 -0.1322 -0.2516  0.3607
15872TIP3    H169107   0.696   5.634  12.183  1.2861  3.3471  0.8022
15872TIP3    H269108   0.807   5.596  12.278  0.2085  1.7279  1.4595
15873TIP3   OH269109   3.436   3.546  11.150  0.6968 -0.7834  0.1978
15873TIP3    H169110   3.502   3.515  11.088  0.5520  0.0339 -0.3794
15873TIP3    H269111   3.360   3.491  11.133 -0.3604  1.3573 -2.4739
15874TIP3   OH269112   0.448   0.232  14.874 -0.1449 -0.6184  1.0428
15874TIP3    H169113   0.403   0.315  14.891 -0.6446 -0.5114 -0.6540
15874TIP3    H269114   0.505   0.251  14.800 -0.1048 -1.7251  0.7807
15875TIP3   OH269115   1.620   2.394  13.553 -0.8895 -0.0379  0.0973
15875TIP3    H169116   1.655   2.474  13.591 -3.9170  1.9019 -0.8922
15875TIP3    H269117   1.695   2.334  13.552  1.9076  3.1654 -0.3795
15876TIP3   OH269118   3.064   2.540   0.956 -0.3892  0.1450 -0.3063
15876TIP3    H169119   3.022   2.625   0.967 -2.0426 -0.4200 -1.7531
15876TIP3    H269120   3.057   2.522   0.862  0.3429 -1.3788 -0.1035
15877TIP3   OH269121   3.526   3.238  14.438  0.2505 -0.1352  0.2278
15877TIP3    H169122   3.448   3.184  14.435  0.5912 -0.5955 -0.5756
15877TIP3    H269123   3.539   3.256  14.531 -2.2644  2.1369  0.2611
15878TIP3   OH269124   5.864   2.785  16.300 -0.2411 -0.8228  0.5067
15878TIP3    H169125   5.948   2.792  16.344 -0.4008 -0.0831  0.7112
15878TIP3    H269126   5.856   2.692  16.276  1.9912 -0.4534 -2.2369
15879TIP3   OH269127   2.020   4.096   2.021  0.0870 -0.1961  0.4757
15879TIP3    H169128   1.999   4.158   1.952 -0.0359 -0.4790  0.2536
15879TIP3    H269129   2.103   4.057   1.994 -0.6398 -1.3071 -0.2296
15880TIP3   OH269130   0.433   0.139  16.718  0.2591 -0.6264  0.0928
15880TIP3    H169131   0.424   0.089  16.637 -0.3733  1.4766 -1.2173
15880TIP3    H269132   0.510   0.101  16.760  0.4145 -2.0054 -1.3119
15881TIP3   OH269133   4.399   0.328   0.610 -0.0139 -0.3362 -0.3161
15881TIP3    H169134   4.310   0.351   0.637 -0.1388 -0.3402 -0.7131
15881TIP3    H269135   4.441   0.411   0.591  0.8928 -0.1013  2.2739
15882TIP3   OH269136   3.802   6.029  14.013  0.4612 -0.1417 -0.2639
15882TIP3    H169137   3.771   6.112  14.049 -1.4406 -1.6714  1.8853
15882TIP3    H269138   3.781   6.034  13.920 -2.2343  0.7136  0.3238
15883TIP3   OH269139   5.118   4.714   1.914 -0.1548 -0.2083 -0.3143
15883TIP3    H169140   5.209   4.703   1.940 -0.1860  0.3463  0.0567
15883TIP3    H269141   5.090   4.627   1.886  1.0116 -0.0316 -2.2012
15884TIP3   OH269142   3.538   2.678  13.340 -0.3128 -0.0834 -0.3498
15884TIP3    H169143   3.484   2.654  13.416  1.2528 -2.3077  0.1596
15884TIP3    H269144   3.603   2.738  13.376  2.5940 -3.7115  1.1009
15885TIP3   OH269145   5.710   3.606  14.787 -0.0211 -0.1346  0.0392
15885TIP3    H169146   5.667   3.561  14.714  0.8381  3.2180 -2.8054
15885TIP3    H269147   5.803   3.605  14.764  0.0081  3.2893 -0.4785
15886TIP3   OH269148   6.286   5.432  13.602 -0.1593 -0.6395 -0.4325
15886TIP3    H169149   6.326   5.511  13.565 -0.5408  0.8568  2.1214
15886TIP3    H269150   6.300   5.365  13.535  0.2921  1.5257 -2.6601
15887TIP3   OH269151   0.724   3.374   3.010  0.1050  0.0846 -0.2114
15887TIP3    H169152   0.759   3.299   3.058  1.9607  0.7745 -0.4004
15887TIP3    H269153   0.740   3.449   3.068 -1.6630  0.3833 -0.0509
15888TIP3   OH269154   5.989   2.812   2.666 -0.1219 -0.3805  0.3060
15888TIP3    H169155   6.075   2.801   2.707  0.0591 -0.4354 -0.0845
15888TIP3    H269156   5.940   2.864   2.729 -0.0337 -0.9346  0.8503
15889TIP3   OH269157   5.867   3.761  16.917 -0.1881 -0.2269 -0.3397
15889TIP3    H169158   5.858   3.694  16.849 -2.0582  0.9202 -1.3083
15889TIP3    H269159   5.858   3.844  16.870  0.7239  0.6837  1.0164
15890TIP3   OH269160   4.284   6.804   4.151  0.0079  0.4488 -0.2808
15890TIP3    H169161   4.215   6.871   4.148 -1.3213 -0.5301  3.5426
15890TIP3    H269162   4.353   6.842   4.205  0.1845 -0.4443  0.1454
15891TIP3   OH269163   0.692   5.332  16.945 -0.2543 -0.1941 -0.5442
15891TIP3    H169164   0.715   5.261  16.885  2.1623 -0.3205  0.4051
15891TIP3    H269165   0.713   5.412  16.897 -1.2838 -0.1583 -0.9608
15892TIP3   OH269166   3.655   6.524  12.407 -1.1904  0.2871  0.5413
15892TIP3    H169167   3.673   6.438  12.446 -2.2803  0.7476  2.1960
15892TIP3    H269168   3.562   6.522  12.388 -1.2435  1.1246  0.6874
15893TIP3   OH269169   1.172   0.116   0.254  0.2990  0.1043 -0.6485
15893TIP3    H169170   1.226   0.039   0.235 -0.3382 -0.2968 -0.8944
15893TIP3    H269171   1.227   0.191   0.233  0.6871 -0.2999 -1.0917
15894TIP3   OH269172   2.182   3.124   1.461  0.0143  0.3113 -0.8935
15894TIP3    H169173   2.200   3.215   1.439 -2.1063  1.1303  0.3898
15894TIP3    H269174   2.251   3.100   1.523  0.4123  1.1372 -1.0091
15895TIP3   OH269175   4.458   2.808  12.229  0.7224 -0.4691 -0.0378
15895TIP3    H169176   4.551   2.799  12.250  1.2578  2.9682 -0.4069
15895TIP3    H269177   4.450   2.768  12.142  1.3768 -2.4657  0.7522
15896TIP3   OH269178   1.016   5.109   0.970  0.0189 -0.5926 -0.3587
15896TIP3    H169179   1.073   5.186   0.961 -1.7302  0.8746  0.4588
15896TIP3    H269180   1.063   5.039   0.924  1.4655  1.0631 -1.5472
15897TIP3   OH269181   6.303   3.924   6.093 -0.3404 -0.1633 -0.2806
15897TIP3    H169182   6.241   3.891   6.158 -2.9354  1.7599 -1.5975
15897TIP3    H269183   6.331   4.009   6.126 -0.0150 -0.1055 -0.6892
15898TIP3   OH269184   4.608   3.977   5.913 -0.0086 -0.0594  0.6902
15898TIP3    H169185   4.618   3.933   5.997  0.3039 -1.2611  0.0561
15898TIP3    H269186   4.610   4.071   5.934  0.4869 -0.3332  1.9660
15899TIP3   OH269187   3.766   5.298   6.861  0.2849  0.3020 -0.4132
15899TIP3    H169188   3.692   5.292   6.801  0.1775  0.5293 -0.3041
15899TIP3    H269189   3.753   5.380   6.908  0.9726  0.6925 -0.8857
15900TIP3   OH269190   5.198   6.522  10.778  0.2629  0.3136  0.5372
15900TIP3    H169191   5.248   6.465  10.719 -0.3357  0.3614 -0.0281
15900TIP3    H269192   5.177   6.599  10.726  0.7101  0.8756  1.1725
15901TIP3   OH269193   4.598   2.146  12.023 -0.1030 -0.0259 -0.0094
15901TIP3    H169194   4.516   2.096  12.022 -0.2926  0.0956  2.5351
15901TIP3    H269195   4.576   2.228  11.978 -0.6768 -0.8960 -1.4113
15902TIP3   OH269196   1.788   3.170  13.215  0.3249  1.0926  0.3415
15902TIP3    H169197   1.788   3.128  13.128  0.0458  0.8023  0.4793
15902TIP3    H269198   1.695   3.178  13.237  0.3638 -1.3112  1.7827
15903TIP3   OH269199   5.455   6.070  13.087 -0.3967  0.4225  0.2490
15903TIP3    H169200   5.550   6.076  13.088 -0.4206  2.1739 -1.9042
15903TIP3    H269201   5.424   6.160  13.086 -1.9444 -0.0316 -1.8855
15904TIP3   OH269202   3.349   4.429  11.955 -0.1070 -0.5128 -0.1720
15904TIP3    H169203   3.311   4.508  11.917  0.1693  0.1019  0.7955
15904TIP3    H269204   3.435   4.421  11.914  0.1794  0.1343  0.2848
15905TIP3   OH269205   3.385   0.045  14.238  0.2687  0.3048  0.1561
15905TIP3    H169206   3.357   0.111  14.301  0.4140 -0.4544  1.0280
15905TIP3    H269207   3.358   0.081  14.153 -2.2253  0.1965  0.8273
15906TIP3   OH269208   4.604   2.940  11.169 -0.1206  0.3871 -0.2964
15906TIP3    H169209   4.579   3.025  11.204 -0.5573  0.5394 -0.9461
15906TIP3    H269210   4.538   2.922  11.101 -0.6201 -0.9177  0.5002
15907TIP3   OH269211   5.459   2.410  13.597  0.1908 -0.3774  0.5940
15907TIP3    H169212   5.536   2.436  13.547 -0.6951 -1.0220 -1.1930
15907TIP3    H269213   5.399   2.373  13.532 -0.5525 -2.3803  2.2773
15908TIP3   OH269214   5.409   0.249  16.449  0.6923  0.0632  0.3053
15908TIP3    H169215   5.347   0.237  16.377  1.0597  1.2359 -0.2352
15908TIP3    H269216   5.354   0.259  16.527  0.2616 -0.3755  0.0597
15909TIP3   OH269217   3.221   0.325   1.058 -0.1372  0.0395 -0.0145
15909TIP3    H169218   3.230   0.412   1.017  0.3849  0.1306  0.2874
15909TIP3    H269219   3.173   0.342   1.139 -0.8461 -0.0897 -0.3970
15910TIP3   OH269220   3.219   3.019   4.975 -0.1691  0.1492  0.3681
15910TIP3    H169221   3.196   2.934   5.014 -1.2211  0.7415  1.0729
15910TIP3    H269222   3.273   2.996   4.899  1.1588 -1.0769  1.6179
15911TIP3   OH269223   5.119   3.790  15.789 -0.6687 -0.4123  0.3605
15911TIP3    H169224   5.038   3.837  15.770 -0.1187  0.2878 -0.3084
15911TIP3    H269225   5.128   3.727  15.718 -1.0610 -1.1027  0.9024
15912TIP3   OH269226   4.698   0.375  15.690  0.3276 -0.1634 -0.1436
15912TIP3    H169227   4.747   0.447  15.729 -0.3032  0.6987 -0.8887
15912TIP3    H269228   4.702   0.392  15.595  0.7370 -1.4857 -0.3788
15913TIP3   OH269229   4.697   5.590  11.872  0.7693  0.0373 -0.6125
15913TIP3    H169230   4.611   5.553  11.855  2.0420 -1.6305 -4.4510
15913TIP3    H269231   4.710   5.578  11.966 -3.8760  2.2465  0.5740
15914TIP3   OH269232   4.906   1.562   2.898  0.1629  1.1503 -0.0062
15914TIP3    H169233   4.813   1.585   2.893 -0.0035  0.3771 -0.6390
15914TIP3    H269234   4.908   1.468   2.884  1.0705  1.1997 -0.2653
15915TIP3   OH269235   4.975   0.060  15.528 -0.1861  0.2969  0.3366
15915TIP3    H169236   4.887   0.088  15.552 -0.7965  0.2613 -1.6704
15915TIP3    H269237   4.992  -0.016  15.584 -1.4240  0.2994  0.7426
15916TIP3   OH269238   3.009   0.007  15.029  0.0596 -0.4216  0.3122
15916TIP3    H169239   3.070  -0.033  15.090  0.8952  0.2686 -0.0539
15916TIP3    H269240   3.016   0.101  15.046  1.4405 -0.0688 -1.8481
15917TIP3   OH269241   5.973   1.340  13.525  0.1539 -0.0730  0.3031
15917TIP3    H169242   6.023   1.259  13.524  1.5306  0.7109  1.4513
15917TIP3    H269243   5.893   1.319  13.573  0.2605 -0.8647  0.1451
15918TIP3   OH269244   3.579   3.216   3.425 -0.6579 -0.0810  0.5058
15918TIP3    H169245   3.587   3.123   3.401 -0.0540 -0.5186  2.2684
15918TIP3    H269246   3.516   3.251   3.362 -0.4944 -1.5516 -0.5399
15919TIP3   OH269247   0.497   1.116  16.928  0.1397  0.0420  0.3103
15919TIP3    H169248   0.440   1.144  17.000 -0.7272  1.6461 -0.9325
15919TIP3    H269249   0.584   1.110  16.967 -0.2483  1.2585  1.4221
15920TIP3   OH269250   0.928   4.121   1.574  0.4884 -0.1653  0.3931
15920TIP3    H169251   0.853   4.085   1.621 -0.1364  1.8167  1.0005
15920TIP3    H269252   0.973   4.175   1.638  1.9414 -0.5820 -0.2257
15921TIP3   OH269253   0.297   0.630   5.241  0.2080  0.5113  0.6837
15921TIP3    H169254   0.235   0.683   5.291  2.0164  2.6769  0.7265
15921TIP3    H269255   0.309   0.677   5.159  0.1022 -1.0998 -0.3176
15922TIP3   OH269256   4.649   5.414   4.266  0.1300  0.5269  0.1926
15922TIP3    H169257   4.603   5.485   4.221 -0.2370  0.4443  0.4324
15922TIP3    H269258   4.739   5.445   4.275  0.1495  0.6383 -0.3942
15923TIP3   OH269259   2.263   0.282  14.204 -0.2822  0.4189  0.0500
15923TIP3    H169260   2.231   0.239  14.283 -0.7416 -1.3498 -1.0351
15923TIP3    H269261   2.234   0.373  14.213 -1.1554  0.0357  1.4697
15924TIP3   OH269262   4.656   6.795  13.921 -0.1574  0.3441 -0.0779
15924TIP3    H169263   4.630   6.709  13.889 -0.2443  0.5308 -0.5262
15924TIP3    H269264   4.750   6.788  13.936 -0.3475 -0.1442  0.9327
15925TIP3   OH269265   6.050   3.341   3.616 -0.0961 -0.1443 -0.0642
15925TIP3    H169266   6.014   3.390   3.690 -0.8122  2.0751 -1.7500
15925TIP3    H269267   6.129   3.390   3.591  1.5235 -2.2598  0.6727
15926TIP3   OH269268   2.532   3.166   6.170  0.3753  0.5029 -0.2016
15926TIP3    H169269   2.626   3.155   6.187  0.0861 -3.2219 -0.1356
15926TIP3    H269270   2.502   3.227   6.237  2.1563 -1.1277  2.2669
15927TIP3   OH269271   0.025   4.364  11.158 -0.0671 -0.1680  0.1142
15927TIP3    H169272   0.096   4.300  11.157  0.6233  0.5814 -0.2995
15927TIP3    H269273   0.023   4.400  11.069 -1.0878 -0.2984  0.0697
15928TIP3   OH269274   0.087   3.752  13.575 -0.1128 -0.1060  0.5870
15928TIP3    H169275   0.143   3.821  13.610 -0.8755  1.7341 -1.5991
15928TIP3    H269276   0.142   3.707  13.511  1.0427 -2.9980  3.3039
15929TIP3   OH269277   1.332   6.713   1.235  0.1135  0.3114 -0.5077
15929TIP3    H169278   1.313   6.760   1.316 -0.0603 -0.2160 -0.2391
15929TIP3    H269279   1.364   6.628   1.264 -0.5561 -0.1151 -1.0001
15930TIP3   OH269280   1.505   2.226   4.292  0.0801  0.6655  0.3276
15930TIP3    H169281   1.458   2.208   4.210 -0.4580  1.8652  0.3608
15930TIP3    H269282   1.457   2.298   4.332  2.7200  2.9638 -0.3156
15931TIP3   OH269283   3.492   5.125   3.010  0.2496 -0.4571 -0.2659
15931TIP3    H169284   3.528   5.060   2.949 -0.3119 -0.2361 -0.8462
15931TIP3    H269285   3.556   5.129   3.082  1.5744  0.1970 -1.4308
15932TIP3   OH269286   0.196   6.027   1.443  0.0615  0.0416 -0.3304
15932TIP3    H169287   0.176   6.004   1.353  1.4744 -1.3761 -0.3303
15932TIP3    H269288   0.292   6.025   1.448  0.1497  2.8102  0.5591
15933TIP3   OH269289   6.451   0.084  12.622 -0.1569 -0.5406  0.3980
15933TIP3    H169290   6.429  -0.006  12.597 -1.0433 -0.1674 -0.2459
15933TIP3    H269291   6.485   0.077  12.711 -0.1728 -1.5145  0.3419
15934TIP3   OH269292   1.009   2.809  11.272  0.4725 -0.0655  0.1514
15934TIP3    H169293   0.938   2.871  11.255  1.1217  1.3642  2.3267
15934TIP3    H269294   0.976   2.726  11.236 -1.1523  1.1080 -1.2570
15935TIP3   OH269295   5.435   1.067  12.800 -0.2843 -0.5122  0.2426
15935TIP3    H169296   5.378   1.137  12.766 -0.2903 -0.8851 -0.5455
15935TIP3    H269297   5.375   0.999  12.828 -0.2527 -0.6141  0.0668
15936TIP3   OH269298   0.605   5.549  16.574  0.1597 -0.1150 -0.0136
15936TIP3    H169299   0.591   5.455  16.587  1.2291 -0.4294 -0.9698
15936TIP3    H269300   0.531   5.591  16.618  0.5427 -1.3268  1.9074
15937TIP3   OH269301   3.740   4.408  11.246  0.1364 -0.2129  0.2728
15937TIP3    H169302   3.708   4.472  11.182 -2.0104  0.2738  1.7128
15937TIP3    H269303   3.662   4.357  11.269  0.9611 -0.7572  2.0404
15938TIP3   OH269304   6.320   0.551   1.979 -0.2043  0.0918 -0.4833
15938TIP3    H169305   6.312   0.500   1.898  1.8514  0.0307 -0.6963
15938TIP3    H269306   6.412   0.579   1.981 -1.0126  3.0338  0.1052
15939TIP3   OH269307   4.256   3.826   2.573  0.3360 -0.4824  0.5678
15939TIP3    H169308   4.268   3.877   2.653  1.5322  0.5268 -0.2369
15939TIP3    H269309   4.339   3.780   2.560 -0.6254 -2.5481  1.1540
15940TIP3   OH269310   4.869   0.417  13.299  0.1701 -0.2238 -0.3892
15940TIP3    H169311   4.802   0.378  13.243 -0.3626  0.5932 -0.3518
15940TIP3    H269312   4.825   0.430  13.383 -0.0912  1.5940 -0.7646
15941TIP3   OH269313   1.313   2.128  11.855  0.4030  0.7235  0.3936
15941TIP3    H169314   1.270   2.153  11.774  0.4370  1.2837  0.5445
15941TIP3    H269315   1.401   2.167  11.849  1.2576 -1.2217 -0.3459
15942TIP3   OH269316   6.145   0.754  13.238  0.1159 -0.2563 -0.4239
15942TIP3    H169317   6.087   0.812  13.187  0.6802  1.1117  0.4447
15942TIP3    H269318   6.201   0.713  13.173 -0.2339  0.2459 -1.0524
15943TIP3   OH269319   2.092   2.298   0.049 -0.0411  0.2700  0.1462
15943TIP3    H169320   2.075   2.309  -0.045  0.9214  1.7917  0.1129
15943TIP3    H269321   2.123   2.384   0.078  3.0184 -1.0179  1.1171
15944TIP3   OH269322   3.845   2.404  11.559 -0.1774  0.8850  0.6400
15944TIP3    H169323   3.799   2.425  11.478  0.4914 -0.1126 -0.0220
15944TIP3    H269324   3.807   2.321  11.586  1.7392 -0.3923 -0.3654
15945TIP3   OH269325   5.481   4.227   3.789 -0.4211  0.1275  0.0759
15945TIP3    H169326   5.492   4.222   3.694 -2.5272 -0.4575 -0.2014
15945TIP3    H269327   5.547   4.289   3.818 -0.1191  0.7781 -1.8455
15946TIP3   OH269328   6.262   2.085   6.460  0.4225 -0.4894 -0.2316
15946TIP3    H169329   6.319   2.025   6.412  0.1947 -1.1805  0.3563
15946TIP3    H269330   6.187   2.033   6.486  0.0969  0.1126  0.0657
15947TIP3   OH269331   0.199   2.765   0.678 -0.2310 -0.8706 -0.1784
15947TIP3    H169332   0.113   2.809   0.679 -0.1025 -0.5668  1.3016
15947TIP3    H269333   0.184   2.684   0.631 -1.3258 -0.7735 -0.0361
15948TIP3   OH269334   0.243   4.670   0.651 -0.0798 -0.3269  0.2047
15948TIP3    H169335   0.235   4.764   0.632 -2.4442 -0.6827 -0.9224
15948TIP3    H269336   0.251   4.665   0.746  2.3398  1.0844  0.1477
15949TIP3   OH269337   3.174   0.169  14.783  0.6142  0.4631 -0.0739
15949TIP3    H169338   3.243   0.142  14.721  0.5323  1.1673 -0.4785
15949TIP3    H269339   3.092   0.157  14.735  0.3113 -1.6865  0.8669
15950TIP3   OH269340   0.445   2.138   0.836  0.7056  0.0280 -0.9472
15950TIP3    H169341   0.484   2.116   0.921 -1.6180 -1.4711 -0.1520
15950TIP3    H269342   0.419   2.230   0.845 -3.7596 -1.2131  1.9684
15951TIP3   OH269343   6.478   0.291  15.501  0.0084  0.1190  0.8951
15951TIP3    H169344   6.464   0.240  15.580 -0.0388 -0.6871  0.3777
15951TIP3    H269345   6.571   0.278  15.479  0.1802  0.8440  1.1544
15952TIP3   OH269346   5.733   3.567  12.026 -0.0930 -0.0315  0.9846
15952TIP3    H169347   5.728   3.649  12.075 -1.3463 -0.0463  0.8960
15952TIP3    H269348   5.719   3.592  11.935 -0.8009 -0.3787  0.9946
15953TIP3   OH269349   3.169   0.417  16.492  0.3907 -0.0035  0.3043
15953TIP3    H169350   3.225   0.360  16.544  0.2996 -0.7409 -0.3804
15953TIP3    H269351   3.096   0.361  16.465 -0.5852  0.8887  1.0177
15954TIP3   OH269352   6.774   3.534  15.496  0.5966  0.0072  0.0726
15954TIP3    H169353   6.703   3.594  15.520  1.0287  0.9940 -0.9855
15954TIP3    H269354   6.768   3.462  15.559 -2.1598 -0.6142 -0.7480
15955TIP3   OH269355   6.671   2.586  13.468 -0.2288  0.0549 -0.1109
15955TIP3    H169356   6.699   2.581  13.377  0.0594 -2.4921  0.0454
15955TIP3    H269357   6.587   2.540  13.470 -0.7419  0.9937  0.7452
15956TIP3   OH269358   5.729   0.831  15.711 -0.2699  0.3026  0.1613
15956TIP3    H169359   5.792   0.884  15.758 -0.3392 -1.4679  2.4109
15956TIP3    H269360   5.653   0.826  15.769 -1.1399 -0.3872 -0.9844
15957TIP3   OH269361   3.360   0.707   2.108  0.0364  0.4364  0.3648
15957TIP3    H169362   3.276   0.691   2.152 -0.2818 -0.7577 -0.6164
15957TIP3    H269363   3.348   0.790   2.063 -0.3565  0.6465  0.8507
15958TIP3   OH269364   2.903   4.952  11.593  0.1347  0.4383 -0.0463
15958TIP3    H169365   2.957   4.944  11.672  0.9591 -2.1995 -0.7794
15958TIP3    H269366   2.966   4.972  11.524 -0.1270 -0.3819 -0.5305
15959TIP3   OH269367   1.646   6.762   3.938 -0.2742 -0.1219 -0.1461
15959TIP3    H169368   1.678   6.715   4.015 -0.9532 -1.0791 -0.4297
15959TIP3    H269369   1.718   6.760   3.876  0.3664  0.8656  0.5418
15960TIP3   OH269370   3.218   3.434   3.940 -0.0137 -0.3608  0.3666
15960TIP3    H169371   3.155   3.460   3.873  1.3986  0.0170 -0.8525
15960TIP3    H269372   3.222   3.509   4.000 -0.6426 -0.3588  0.4153
15961TIP3   OH269373   5.934   4.920   2.653 -0.0075  0.3898  0.2442
15961TIP3    H169374   5.916   4.826   2.654  0.1538  0.3624  0.9938
15961TIP3    H269375   5.848   4.961   2.647 -0.0409  0.1938 -0.9207
15962TIP3   OH269376   1.473   4.495  14.536  0.2452 -0.0583 -0.1253
15962TIP3    H169377   1.477   4.588  14.561 -0.3045 -0.3855  1.2763
15962TIP3    H269378   1.428   4.495  14.452  1.8760  1.0800 -1.0670
15963TIP3   OH269379   5.733   4.096   2.754  0.1970  0.0469  0.1299
15963TIP3    H169380   5.690   4.045   2.685 -0.2863 -2.4680  2.1544
15963TIP3    H269381   5.827   4.084   2.738  0.0953 -1.4229  0.4589
15964TIP3   OH269382   3.780   0.024  12.272  0.3421 -0.4047 -0.0145
15964TIP3    H169383   3.710  -0.015  12.325  2.6939 -1.4605  2.5379
15964TIP3    H269384   3.796  -0.041  12.203 -0.8838 -0.3284 -0.4000
15965TIP3   OH269385   0.812   0.405   5.936  0.0201  0.0228 -0.3224
15965TIP3    H169386   0.746   0.440   5.997 -1.0486 -0.2651 -1.2677
15965TIP3    H269387   0.824   0.315   5.964  3.6262  1.2308  2.8406
15966TIP3   OH269388   0.400   4.282   6.311 -0.2158  0.0791 -0.0363
15966TIP3    H169389   0.493   4.280   6.291 -0.4371 -1.7498 -1.1309
15966TIP3    H269390   0.374   4.189   6.312 -2.1173  0.5729 -0.3266
15967TIP3   OH269391   0.113   1.418  14.461  0.2654  0.4600  0.9760
15967TIP3    H169392   0.045   1.481  14.483 -0.3710 -0.1467  0.7743
15967TIP3    H269393   0.133   1.435  14.369 -0.0451  0.2364  0.8673
15968TIP3   OH269394   2.215   5.778  12.006  0.2866 -0.2243  0.3629
15968TIP3    H169395   2.231   5.845  12.073  0.2016 -1.4348  1.6492
15968TIP3    H269396   2.277   5.798  11.936 -0.4020  1.7529  0.2710
15969TIP3   OH269397   6.029   5.428   3.991  0.5524  0.2380  0.8492
15969TIP3    H169398   6.096   5.409   4.056  0.7831  0.0252  0.5486
15969TIP3    H269399   6.022   5.523   3.992  0.6371  0.2442  1.0994
15970TIP3   OH269400   4.551   6.618  13.188 -0.1379  0.0783  0.3795
15970TIP3    H169401   4.541   6.713  13.188  3.8351  0.7156  1.4292
15970TIP3    H269402   4.556   6.595  13.281  0.2878 -0.9356  0.1199
15971TIP3   OH269403   5.225   2.876  11.862 -0.2560  0.0977 -0.1816
15971TIP3    H169404   5.135   2.871  11.895 -0.4299  0.9131 -0.5022
15971TIP3    H269405   5.217   2.917  11.776  0.3634 -0.4286 -0.5056
15972TIP3   OH269406   2.342   2.617  16.321 -0.2166 -0.0260 -0.3463
15972TIP3    H169407   2.394   2.595  16.399  1.5310  0.6853 -1.2518
15972TIP3    H269408   2.395   2.682  16.275 -2.6371  1.9639 -0.5608
15973TIP3   OH269409   0.672   1.413  11.421 -0.4428  0.1767  0.1360
15973TIP3    H169410   0.652   1.423  11.328 -2.1483 -0.7896  0.3740
15973TIP3    H269411   0.663   1.502  11.457  0.1049  0.5316 -0.5719
15974TIP3   OH269412   1.942   4.602  16.640  0.5575 -0.5137 -0.1566
15974TIP3    H169413   1.941   4.621  16.546  2.7748  1.1295  0.0532
15974TIP3    H269414   1.954   4.688  16.681 -1.6855 -1.0194  1.7528
15975TIP3   OH269415   1.286   1.608  13.311 -0.2718  0.3526  0.3539
15975TIP3    H169416   1.218   1.560  13.263 -1.3464  1.7863  0.3734
15975TIP3    H269417   1.354   1.543  13.328 -1.0039 -0.7951 -0.8964
15976TIP3   OH269418   3.012   4.723   2.276  0.0175 -0.1353 -0.5354
15976TIP3    H169419   3.039   4.632   2.267  0.4355 -0.2122  1.1738
15976TIP3    H269420   3.031   4.745   2.367  0.0645  1.7086 -0.9497
15977TIP3   OH269421   1.976   1.370   2.972  0.4808  0.5394  0.7397
15977TIP3    H169422   1.953   1.309   2.902 -0.8386  0.4175  1.2706
15977TIP3    H269423   2.062   1.404   2.946  0.2921  0.0260 -0.6094
15978TIP3   OH269424   2.274   2.329  13.847  0.9035  0.3538 -0.3131
15978TIP3    H169425   2.260   2.378  13.928 -1.1247 -0.5099 -0.0657
15978TIP3    H269426   2.290   2.239  13.876 -1.5878 -0.3300 -0.8220
15979TIP3   OH269427   0.675   2.124  10.446  0.0643  0.4599 -0.2389
15979TIP3    H169428   0.694   2.064  10.519  0.2396 -0.8148 -1.2873
15979TIP3    H269429   0.760   2.141  10.406  0.1201  2.0461  0.4780
15980TIP3   OH269430   6.055   1.806  15.145  0.0660 -0.4453 -0.0680
15980TIP3    H169431   6.127   1.810  15.082  0.3975  1.6028  0.3784
15980TIP3    H269432   6.081   1.739  15.208  0.7747 -0.8954 -0.8171
15981TIP3   OH269433   3.303   1.179   4.253 -0.0972 -0.5295 -0.0688
15981TIP3    H169434   3.212   1.178   4.223 -0.4498 -0.5542  0.9582
15981TIP3    H269435   3.307   1.110   4.319 -0.1136  1.3682  2.0296
15982TIP3   OH269436   0.103   4.336   1.391 -0.1903 -0.0108  0.6478
15982TIP3    H169437   0.063   4.361   1.308 -3.7940 -0.1195  2.1448
15982TIP3    H269438   0.150   4.255   1.373 -3.0984 -1.5046 -0.8478
15983TIP3   OH269439   0.419   4.132  16.488  0.5594 -0.8861 -0.4397
15983TIP3    H169440   0.439   4.188  16.563 -1.1599  0.9525 -1.2693
15983TIP3    H269441   0.329   4.154  16.465  0.9356 -1.5899 -2.8887
15984TIP3   OH269442   2.600   6.101  14.071 -0.0220 -0.1200  0.3226
15984TIP3    H169443   2.603   6.038  14.144 -0.4762 -0.5317 -0.0078
15984TIP3    H269444   2.512   6.091  14.035  0.3560 -0.2601 -0.5755
15985TIP3   OH269445   4.179   5.576   3.769  0.6379  0.0997 -0.0543
15985TIP3    H169446   4.108   5.569   3.705  1.4497  0.3227 -1.0038
15985TIP3    H269447   4.255   5.604   3.718  1.2892  0.3689  1.0295
15986TIP3   OH269448   3.606   2.328   6.130  0.5391 -0.1805 -0.0039
15986TIP3    H169449   3.589   2.323   6.224 -0.5982 -3.0163 -0.2496
15986TIP3    H269450   3.518   2.327   6.090  1.0161  0.3366 -1.1157
15987TIP3   OH269451   6.311   1.194   2.235 -0.3869 -0.0035 -0.2824
15987TIP3    H169452   6.298   1.288   2.251 -1.9999 -0.2367 -0.0354
15987TIP3    H269453   6.345   1.160   2.318 -2.7187 -0.1271  0.6905
15988TIP3   OH269454   1.433   0.892   1.141  0.1022  0.6827  0.3588
15988TIP3    H169455   1.523   0.886   1.107 -0.2894 -0.5578 -0.5358
15988TIP3    H269456   1.380   0.910   1.063 -0.3685  2.2011  0.9937
15989TIP3   OH269457   5.755   3.313   4.164 -0.1847 -0.8209 -0.0104
15989TIP3    H169458   5.721   3.260   4.236 -0.7630  1.9089  1.8952
15989TIP3    H269459   5.694   3.298   4.092 -0.8615 -1.9796  0.7617
15990TIP3   OH269460   5.183   5.927  15.244 -0.4666  0.0500 -0.0784
15990TIP3    H169461   5.119   5.928  15.173 -1.9212  0.8178  1.1781
15990TIP3    H269462   5.147   5.987  15.310  1.4086  0.2705  0.8169
15991TIP3   OH269463   6.080   1.786  15.823  0.6960 -0.5195 -0.3586
15991TIP3    H169464   6.095   1.694  15.841 -0.8813 -0.7493  0.0090
15991TIP3    H269465   6.166   1.828  15.833  1.3287 -1.8619 -0.0199
15992TIP3   OH269466   4.836   6.827   3.293 -0.1815 -0.0999  0.5466
15992TIP3    H169467   4.898   6.766   3.333 -0.1601 -0.9106 -0.6863
15992TIP3    H269468   4.857   6.912   3.333  2.3884 -0.1388 -0.5134
15993TIP3   OH269469   0.449   2.636  13.467 -0.2000 -0.4683 -0.2561
15993TIP3    H169470   0.482   2.549  13.445 -0.3261 -0.6837  0.3725
15993TIP3    H269471   0.480   2.693  13.397 -0.5668 -1.1195 -0.9588
15994TIP3   OH269472   0.729   0.673  13.505  0.7311  0.6293 -0.1579
15994TIP3    H169473   0.692   0.727  13.575  0.8183 -0.6205  0.8850
15994TIP3    H269474   0.823   0.676  13.519  0.7082 -0.2219  0.2558
15995TIP3   OH269475   6.468   0.119   0.403 -0.2315  0.3444  0.0708
15995TIP3    H169476   6.477   0.190   0.467 -0.3381  0.8098 -0.4236
15995TIP3    H269477   6.443   0.163   0.322 -2.7826 -0.4456  0.3414
15996TIP3   OH269478   5.982   1.675  13.967 -0.1757 -0.2091 -0.2199
15996TIP3    H169479   6.026   1.655  13.885 -1.4888 -0.2123 -0.9600
15996TIP3    H269480   5.909   1.613  13.970 -1.9711  1.7745 -0.5819
15997TIP3   OH269481   6.618   6.702   0.596  0.3851  0.6760  0.5685
15997TIP3    H169482   6.575   6.622   0.567  0.1811  1.2850 -0.9296
15997TIP3    H269483   6.556   6.772   0.573  1.2834  1.3952  0.2523
15998TIP3   OH269484   3.406   1.068  16.807 -0.3619 -0.5147  0.3571
15998TIP3    H169485   3.356   1.150  16.814 -1.6760 -1.3683  1.1960
15998TIP3    H269486   3.390   1.039  16.717  0.6177  0.4342 -0.1550
15999TIP3   OH269487   2.686   2.331  13.934 -0.1608  0.5170  0.0403
15999TIP3    H169488   2.629   2.320  14.010 -0.0675 -0.4610 -0.0264
15999TIP3    H269489   2.636   2.388  13.875 -0.4089  0.9368  0.6408
16000TIP3   OH269490   2.777   4.787   4.624 -0.0793 -0.8620 -0.5630
16000TIP3    H169491   2.729   4.712   4.661 -0.2906 -1.0981 -1.2880
16000TIP3    H269492   2.762   4.780   4.530  0.2004 -0.1060 -0.6690
16001TIP3   OH269493   3.237   6.182   0.610  0.1782  0.0508 -0.4435
16001TIP3    H169494   3.257   6.259   0.557  0.3518 -0.3713 -0.9968
16001TIP3    H269495   3.149   6.198   0.643  0.6761  1.0642  0.4789
16002TIP3   OH269496   4.617   3.202  11.266  0.0593  0.0547 -0.3460
16002TIP3    H169497   4.711   3.203  11.245  0.1126 -0.9741 -0.2191
16002TIP3    H269498   4.577   3.257  11.199  0.8458  1.2259  0.1035
16003TIP3   OH269499   0.446   0.041  16.139  0.1599 -0.0116 -0.3109
16003TIP3    H169500   0.456   0.134  16.160 -0.3295 -0.1519  0.6337
16003TIP3    H269501   0.517  -0.002  16.186  0.8105 -0.0507 -1.3179
16004TIP3   OH269502   5.956   2.171   4.967 -0.1673  0.2292  0.6987
16004TIP3    H169503   5.895   2.102   4.943  0.2584  0.2730 -0.5831
16004TIP3    H269504   5.903   2.251   4.966 -0.4405  0.0597  1.2124
16005TIP3   OH269505   6.603   5.880   2.858  0.6503  0.8726 -0.0969
16005TIP3    H169506   6.658   5.838   2.924  0.7686  0.4474 -0.4591
16005TIP3    H269507   6.638   5.969   2.850  2.5168  0.0776 -1.6427
16006TIP3   OH269508   6.028   6.223  17.002  0.2225  0.0336  0.3614
16006TIP3    H169509   6.110   6.173  16.993  0.0424 -0.2443  0.2670
16006TIP3    H269510   6.051   6.311  16.970  0.2306 -0.3006 -0.5714
16007TIP3   OH269511   5.524   4.894   2.679 -0.1456  0.1255  0.6200
16007TIP3    H169512   5.547   4.816   2.728 -0.4126 -0.3445  0.0104
16007TIP3    H269513   5.468   4.863   2.608 -0.1120  0.8427  0.2619
16008TIP3   OH269514   3.850   5.354   3.289 -0.0632 -0.1655  0.6136
16008TIP3    H169515   3.886   5.342   3.201  1.5605 -4.4829  1.5983
16008TIP3    H269516   3.823   5.446   3.292  3.5352  1.3060 -2.9795
16009TIP3   OH269517   4.964   0.952   3.228 -0.1302 -0.0881 -0.1223
16009TIP3    H169518   4.911   0.976   3.152  1.2529 -0.9077 -1.4164
16009TIP3    H269519   4.947   0.858   3.239  0.0182 -0.0636  0.3044
16010TIP3   OH269520   5.153   2.843   4.917 -0.0076 -0.2028  0.2536
16010TIP3    H169521   5.092   2.889   4.974  0.2116 -2.7124  2.7222
16010TIP3    H269522   5.099   2.778   4.871  0.6262 -2.7183  2.7584
16011TIP3   OH269523   6.508   6.419  13.723 -0.0496 -0.2944  0.2070
16011TIP3    H169524   6.577   6.365  13.761  0.0354 -1.0593 -0.9805
16011TIP3    H269525   6.553   6.482  13.669 -0.0495  1.9868  2.6598
16012TIP3   OH269526   4.278   3.411  13.975 -0.7133  0.3430  0.1694
16012TIP3    H169527   4.273   3.337  14.036 -0.3132 -0.4464 -0.7303
16012TIP3    H269528   4.187   3.436  13.960 -0.8741 -0.2073  0.2040
16013TIP3   OH269529   0.596   2.462  12.315  0.3715 -0.1942 -0.3137
16013TIP3    H169530   0.671   2.468  12.255 -1.9613  0.2857 -3.4344
16013TIP3    H269531   0.606   2.537  12.373  2.8438 -0.7673  0.1175
16014TIP3   OH269532   2.481   5.174   4.279  0.4598  0.4976 -0.1074
16014TIP3    H169533   2.566   5.197   4.242 -0.7962  1.4936 -2.6576
16014TIP3    H269534   2.425   5.160   4.202 -1.9312  0.9550  1.4478
16015TIP3   OH269535   5.593   4.302  13.211  0.3524 -0.4353  0.0926
16015TIP3    H169536   5.535   4.377  13.194 -0.8929 -1.3200  0.3105
16015TIP3    H269537   5.537   4.226  13.201  1.2269 -1.2874  1.4097
16016TIP3   OH269538   1.029   4.890   1.991  0.0083 -0.5373  0.2540
16016TIP3    H169539   0.974   4.922   2.062 -1.0567 -2.5040  0.3847
16016TIP3    H269540   0.975   4.825   1.946  1.2253 -0.4698 -1.4041
16017TIP3   OH269541   1.581   6.176  15.092 -0.0524  0.7696 -0.3271
16017TIP3    H169542   1.652   6.183  15.155  0.1731 -1.7076 -0.2056
16017TIP3    H269543   1.617   6.212  15.011  0.4807  1.7375  0.3182
16018TIP3   OH269544   2.512   4.533  11.819  1.0261  0.2298 -0.0548
16018TIP3    H169545   2.582   4.533  11.885  1.7219 -0.7386 -0.7581
16018TIP3    H269546   2.558   4.519  11.736 -0.1472 -2.5828 -0.3455
16019TIP3   OH269547   4.147   1.874   0.192  0.4853 -0.4897  0.0390
16019TIP3    H169548   4.208   1.948   0.190  0.8574 -0.7965 -0.0021
16019TIP3    H269549   4.203   1.797   0.196  0.0858 -0.7428  0.8594
16020TIP3   OH269550   4.125   1.745  15.264  0.5989  0.1590 -0.1588
16020TIP3    H169551   4.098   1.653  15.261 -0.4127  0.4434 -2.6737
16020TIP3    H269552   4.218   1.744  15.241  0.4700 -0.2146 -0.6770
16021TIP3   OH269553   3.155   4.633   2.501  1.1576 -0.7033  0.2425
16021TIP3    H169554   3.236   4.641   2.550  1.6593 -0.4693 -0.6047
16021TIP3    H269555   3.100   4.703   2.534  1.5437 -0.4544  0.3607
16022TIP3   OH269556   5.982   2.206  14.434 -0.3094  0.0630 -0.0870
16022TIP3    H169557   5.925   2.137  14.398 -0.8649  0.6434 -0.3442
16022TIP3    H269558   5.924   2.260  14.487  0.1955  0.1288  0.3999
16023TIP3   OH269559   6.688   0.846  12.999 -0.0353 -0.2336 -0.7062
16023TIP3    H169560   6.780   0.823  12.988  0.7385  0.8723  2.5058
16023TIP3    H269561   6.644   0.762  13.011  1.2232 -0.6521  1.4609
16024TIP3   OH269562   5.513   4.699  15.257  0.3129  0.3924 -0.3971
16024TIP3    H169563   5.449   4.644  15.212  0.0734 -0.0659  0.4892
16024TIP3    H269564   5.556   4.748  15.187 -0.8503  0.5453 -1.0141
16025TIP3   OH269565   2.100   3.598  17.114 -0.1147  0.3340 -0.1360
16025TIP3    H169566   2.141   3.629  17.195  1.4134  1.5010 -1.3079
16025TIP3    H269567   2.153   3.523  17.088  1.5273  1.9621 -1.7592
16026TIP3   OH269568   6.442   2.247   1.522 -0.6125  0.1100 -0.3513
16026TIP3    H169569   6.517   2.266   1.579  0.7212 -2.0177 -1.2262
16026TIP3    H269570   6.369   2.295   1.560  0.4736 -0.2615  2.4383
16027TIP3   OH269571   6.057   4.046   5.188 -0.6998  0.1677 -0.8405
16027TIP3    H169572   6.110   3.967   5.184  0.8778  1.1874 -1.0274
16027TIP3    H269573   6.108   4.111   5.140 -0.6602  1.9837  1.4581
16028TIP3   OH269574   1.594   0.666   0.156 -0.4141  1.1095 -0.4012
16028TIP3    H169575   1.618   0.756   0.133 -1.4105  1.0200 -1.9791
16028TIP3    H269576   1.631   0.613   0.085 -0.8186  0.4139 -0.1064
16029TIP3   OH269577   2.821   5.621  12.428  0.0281 -0.1215  0.4014
16029TIP3    H169578   2.859   5.604  12.343  1.1792  0.9419  0.6731
16029TIP3    H269579   2.887   5.672  12.475 -0.2022 -1.4442  2.2686
16030TIP3   OH269580   0.099   2.572  10.853  0.1165  0.4435  0.2004
16030TIP3    H169581   0.039   2.603  10.785 -1.1545 -0.8743  0.6804
16030TIP3    H269582   0.179   2.551  10.805 -0.9234 -0.9671 -1.0373
16031TIP3   OH269583   2.360   4.522  15.596  0.3911  0.1944  0.4127
16031TIP3    H169584   2.406   4.459  15.541  1.2151  0.0177  1.2815
16031TIP3    H269585   2.428   4.556  15.656 -0.3427  0.8467  0.8952
16032TIP3   OH269586   0.256   1.666  13.815 -0.0665 -0.0128  0.1625
16032TIP3    H169587   0.275   1.716  13.894  0.9505  0.4629 -0.3661
16032TIP3    H269588   0.161   1.656  13.815 -0.5841  3.7180 -0.7395
16033TIP3   OH269589   0.367   1.984  12.952 -0.6454  0.1803  0.6827
16033TIP3    H169590   0.362   2.068  12.908  0.0178  1.4602  2.8873
16033TIP3    H269591   0.459   1.974  12.976 -0.4307 -1.8582 -0.6627
16034TIP3   OH269592   2.841   6.220  16.764 -0.2469  0.4235 -0.0446
16034TIP3    H169593   2.913   6.160  16.745  0.9930  1.3740  1.4077
16034TIP3    H269594   2.844   6.286  16.695  0.4133  0.5618  0.1107
16035TIP3   OH269595   1.268   0.472   6.796  0.8403 -0.1063 -0.4324
16035TIP3    H169596   1.200   0.539   6.785  0.0516 -1.1920 -3.2130
16035TIP3    H269597   1.341   0.503   6.742  0.8840 -0.9447 -0.8768
16036TIP3   OH269598   6.513   4.355   4.957 -0.3070 -0.2574  0.1801
16036TIP3    H169599   6.567   4.312   4.891 -1.7203  0.0645 -1.2589
16036TIP3    H269600   6.567   4.357   5.036  1.6082 -0.2591 -1.0893
16037TIP3   OH269601   2.621   1.537  16.194  0.3979  0.1089  0.2151
16037TIP3    H169602   2.576   1.519  16.277  0.5339  0.5209  0.3806
16037TIP3    H269603   2.693   1.474  16.191 -0.8254 -1.3208 -0.5825
16038TIP3   OH269604   0.054   6.106   4.422  0.3626 -0.0520  0.1523
16038TIP3    H169605   0.128   6.151   4.380 -1.4154  2.6385 -0.3599
16038TIP3    H269606   0.030   6.036   4.361  1.0740  0.4904 -0.7688
16039TIP3   OH269607   1.343   3.134   4.061 -0.4177  0.7164  0.1850
16039TIP3    H169608   1.392   3.201   4.108 -0.0401  0.6179 -0.0634
16039TIP3    H269609   1.253   3.166   4.060  0.0703  2.1919 -1.6496
16040TIP3   OH269610   2.289   1.693  14.849  0.0897 -0.0938 -0.2695
16040TIP3    H169611   2.207   1.737  14.826 -1.1987 -1.1024  2.0128
16040TIP3    H269612   2.356   1.761  14.842 -0.9851  0.8675 -1.7737
16041TIP3   OH269613   5.028   6.744  16.870  0.2265  0.1395  0.2241
16041TIP3    H169614   4.970   6.772  16.798  1.7370  0.2734 -1.0007
16041TIP3    H269615   5.048   6.825  16.916 -0.6975  0.0637  0.7927
16042TIP3   OH269616   6.454   5.046  15.831 -0.4616  0.3479  0.4228
16042TIP3    H169617   6.449   5.016  15.740  0.6569  1.8790 -0.2076
16042TIP3    H269618   6.460   4.966  15.883  1.7096 -0.5745 -1.0952
16043TIP3   OH269619   1.869   2.467   2.589 -0.3265 -0.0127  0.5552
16043TIP3    H169620   1.853   2.517   2.669  1.1164  0.3842  0.6140
16043TIP3    H269621   1.904   2.383   2.619  1.6775  0.6880  0.3547
16044TIP3   OH269622   5.702   5.517  15.118  0.2735  0.2614 -0.3099
16044TIP3    H169623   5.669   5.489  15.203  1.3715  2.4748  0.9239
16044TIP3    H269624   5.647   5.471  15.055 -0.8688 -1.1000  1.5769
16045TIP3   OH269625   1.965   1.977   0.236  0.4196 -0.0857 -0.2366
16045TIP3    H169626   1.878   2.010   0.210  0.4268 -0.6499 -1.0344
16045TIP3    H269627   2.005   1.950   0.153  1.3399  0.1213  0.1383
16046TIP3   OH269628   2.821   0.513  16.479 -0.3702 -0.4749  0.8011
16046TIP3    H169629   2.803   0.419  16.468 -1.5091 -0.1839  0.0461
16046TIP3    H269630   2.852   0.541  16.393  0.0286 -0.1738  1.0445
16047TIP3   OH269631   5.092   5.578  12.872 -0.1766 -0.3386  0.8348
16047TIP3    H169632   5.087   5.590  12.967 -0.6699 -1.2975  0.9446
16047TIP3    H269633   5.039   5.501  12.855  2.1972 -1.9508  0.1397
16048TIP3   OH269634   1.948   5.003  15.846  0.0494 -0.5356  0.1390
16048TIP3    H169635   1.884   5.048  15.790 -0.1518 -1.4893 -0.4156
16048TIP3    H269636   1.978   5.071  15.907  0.0954  0.4802 -0.9600
16049TIP3   OH269637   5.160   0.818   4.344 -0.3814  0.2532 -0.6929
16049TIP3    H169638   5.105   0.757   4.294  1.2035 -1.6401 -0.2539
16049TIP3    H269639   5.159   0.783   4.433  0.0436  1.2702 -0.2794
16050TIP3   OH269640   0.475   3.125  11.826  0.2321  0.2181 -0.2672
16050TIP3    H169641   0.562   3.161  11.842 -0.3868  1.3624  0.6814
16050TIP3    H269642   0.418   3.202  11.823 -0.8954 -0.5850  0.1758
16051TIP3   OH269643   0.605   5.090   4.302 -0.1483 -0.6678  0.1928
16051TIP3    H169644   0.643   5.124   4.220 -1.1096  0.9949  0.3886
16051TIP3    H269645   0.531   5.149   4.320  1.4375  0.5549  3.5057
16052TIP3   OH269646   0.982   4.332   0.193  0.7165  0.1669  0.5477
16052TIP3    H169647   0.978   4.269   0.265 -0.4237 -0.4071  0.0039
16052TIP3    H269648   1.026   4.285   0.122  1.6990  0.6803  0.7891
16053TIP3   OH269649   6.048   0.909   4.143 -0.3509 -0.1022 -0.0052
16053TIP3    H169650   5.960   0.903   4.105 -0.0730 -2.1376 -0.4260
16053TIP3    H269651   6.037   0.880   4.233 -0.1492 -0.0949  0.0214
16054TIP3   OH269652   1.677   6.715  15.228 -0.0777 -0.2662  0.0234
16054TIP3    H169653   1.677   6.621  15.210 -1.1391 -0.1983 -0.3940
16054TIP3    H269654   1.675   6.722  15.323 -1.7466 -0.6962  0.0422
16055TIP3   OH269655   4.936   1.928  11.492 -0.2104  0.2839  0.0301
16055TIP3    H169656   5.023   1.904  11.461 -0.1044  2.0024 -1.1076
16055TIP3    H269657   4.936   1.903  11.585  1.0704 -0.7670 -0.2226
16056TIP3   OH269658   2.590   4.962   6.074  0.7690  0.5473  0.1100
16056TIP3    H169659   2.596   4.945   6.168 -0.3812 -1.3558 -0.1025
16056TIP3    H269660   2.679   4.951   6.041  1.0856  0.7025  0.8934
16057TIP3   OH269661   6.367   6.468   4.210  0.4100 -0.2046  0.1063
16057TIP3    H169662   6.416   6.476   4.129  0.6838 -2.2586  0.0094
16057TIP3    H269663   6.374   6.375   4.234 -2.9246 -0.5276  0.3749
16058TIP3   OH269664   6.146   4.647   3.760  0.1673 -0.3725  0.0975
16058TIP3    H169665   6.152   4.559   3.723  0.0573 -0.1364 -0.4914
16058TIP3    H269666   6.068   4.646   3.815 -1.0082 -0.0719 -1.5029
16059TIP3   OH269667   3.911   0.903   3.140  0.0130 -0.0856 -0.0337
16059TIP3    H169668   3.944   0.916   3.051  0.8495  1.1128  0.4220
16059TIP3    H269669   3.851   0.977   3.154 -0.0831 -0.2465  0.4140
16060TIP3   OH269670   2.827   1.016  12.450  0.4887 -0.2606 -0.1877
16060TIP3    H169671   2.862   1.076  12.383 -1.5162 -0.3032 -1.3362
16060TIP3    H269672   2.774   0.954  12.401 -1.0769 -0.2840  1.4439
16061TIP3   OH269673   3.586   2.940  11.374  0.8372  0.1061 -0.0493
16061TIP3    H169674   3.567   2.972  11.286  1.3284 -0.9643 -0.5523
16061TIP3    H269675   3.536   2.859  11.382  1.1975 -0.0700  0.4686
16062TIP3   OH269676   2.701   4.191  11.125  0.1988 -0.5545  0.3075
16062TIP3    H169677   2.707   4.096  11.112 -0.2237 -0.3840 -1.2890
16062TIP3    H269678   2.677   4.226  11.040 -3.3006  0.6797  1.6163
16063TIP3   OH269679   1.200   6.494   4.558 -0.3996 -0.2722 -0.7055
16063TIP3    H169680   1.240   6.536   4.482 -1.0608  0.9927 -0.3791
16063TIP3    H269681   1.267   6.432   4.589  1.6029  2.1163  0.1267
16064TIP3   OH269682   5.985   0.285   4.362  0.6498 -0.0740  0.3468
16064TIP3    H169683   6.011   0.377   4.367 -0.0021  0.0837  1.0385
16064TIP3    H269684   6.046   0.246   4.299 -0.1022  1.1812 -1.2359
16065TIP3   OH269685   0.630   5.676   5.519 -0.0182 -0.3109  0.3935
16065TIP3    H169686   0.633   5.583   5.543 -0.9582 -0.5097 -0.2068
16065TIP3    H269687   0.566   5.714   5.580  1.6829  0.3399  1.8458
16066TIP3   OH269688   6.643   3.066  12.459  0.2045 -0.4667  0.3558
16066TIP3    H169689   6.715   3.006  12.478  1.1047  0.5022  0.1174
16066TIP3    H269690   6.595   3.025  12.388  1.3708 -0.4759 -0.4655
16067TIP3   OH269691   0.014   6.649   2.003  0.5133 -0.1856  0.1265
16067TIP3    H169692  -0.009   6.740   1.985  0.7303 -0.0097  0.7032
16067TIP3    H269693  -0.036   6.626   2.082  1.0637 -0.3113  0.4449
16068TIP3   OH269694   0.759   4.480   5.250  0.5845  0.4503 -0.1684
16068TIP3    H169695   0.722   4.399   5.215  1.5657 -0.2151  0.3064
16068TIP3    H269696   0.683   4.528   5.283  0.0476 -0.5610  0.1339
16069TIP3   OH269697   1.426   3.085  15.859  0.3308  0.2050  0.0526
16069TIP3    H169698   1.340   3.091  15.817 -0.0186  0.0803  0.7320
16069TIP3    H269699   1.408   3.103  15.952  0.9134 -0.6577  0.3385
16070TIP3   OH269700   1.227   4.645   5.867 -0.5398  0.1660  0.3128
16070TIP3    H169701   1.276   4.565   5.882  1.8139  1.7007  1.4238
16070TIP3    H269702   1.187   4.633   5.781  1.1766 -1.5039 -0.3204
16071TIP3   OH269703   4.830   4.156  14.570 -0.4587 -0.2463 -0.1807
16071TIP3    H169704   4.827   4.249  14.592 -0.6960  0.1397 -1.7438
16071TIP3    H269705   4.896   4.119  14.629 -0.3264  0.9107  0.4180
16072TIP3   OH269706   3.196   0.265   5.927 -0.7596 -0.2996  0.1386
16072TIP3    H169707   3.249   0.185   5.922 -0.6151 -0.3888  2.2902
16072TIP3    H269708   3.209   0.307   5.842  2.3299 -0.6202  0.3389
16073TIP3   OH269709   3.646   0.218   5.340  0.3586  0.7693  0.0240
16073TIP3    H169710   3.720   0.272   5.310  1.7604 -1.3679 -0.5661
16073TIP3    H269711   3.683   0.165   5.410 -1.7007  2.4104  2.5321
16074TIP3   OH269712   4.070   6.675  16.656  0.1600 -0.4915 -0.7956
16074TIP3    H169713   4.006   6.606  16.670  0.6680 -0.6534  0.8487
16074TIP3    H269714   4.018   6.756  16.654 -0.1426 -0.6432  0.2943
16075TIP3   OH269715   4.345   6.432  12.288  0.1061  0.1923 -0.1641
16075TIP3    H169716   4.371   6.340  12.295  0.3899  0.3578  1.0678
16075TIP3    H269717   4.375   6.472  12.369  1.7643  1.8352 -1.5261
16076TIP3   OH269718   2.903   2.843   2.970  0.7206  0.1853 -0.5467
16076TIP3    H169719   2.826   2.810   2.923 -0.9362  1.6471  1.0084
16076TIP3    H269720   2.955   2.764   2.988 -1.0600 -1.0285 -0.4894
16077TIP3   OH269721   0.033   6.189  16.379  0.1547 -0.6162 -0.2639
16077TIP3    H169722  -0.052   6.175  16.337 -0.6367  1.0082  0.7008
16077TIP3    H269723   0.023   6.271  16.427  2.0825 -0.7115  0.3914
16078TIP3   OH269724   4.563   6.748   3.420 -0.2371  0.0515  0.2250
16078TIP3    H169725   4.616   6.761   3.341  0.2453 -0.8874  0.3789
16078TIP3    H269726   4.606   6.801   3.487 -0.3839  0.4908 -0.0242
16079TIP3   OH269727   4.075   5.946  16.233  0.4982  0.1330  0.0843
16079TIP3    H169728   4.162   5.955  16.193  0.3905  0.8643  0.0125
16079TIP3    H269729   4.014   5.955  16.160  0.3469  0.0664  0.2016
16080TIP3   OH269730   6.775   3.783  10.379 -0.0343  0.3987 -0.5676
16080TIP3    H169731   6.806   3.763  10.467 -2.4947 -1.4483  0.0007
16080TIP3    H269732   6.763   3.697  10.338 -0.3164  1.1727 -2.1853
16081TIP3   OH269733   4.776   4.765  11.195 -0.0048  0.7552  0.2214
16081TIP3    H169734   4.853   4.821  11.205  1.2992 -0.6109 -1.4968
16081TIP3    H269735   4.791   4.718  11.113 -1.4807 -1.3858  1.0824
16082TIP3   OH269736   0.990   5.676  17.097  0.6336  0.3614 -0.1970
16082TIP3    H169737   1.020   5.667  17.007  1.1041  0.1343 -0.0188
16082TIP3    H269738   1.066   5.710  17.145 -0.1552  2.3168 -0.2359
16083TIP3   OH269739   3.993   0.737   0.665  0.2598  0.0551  0.0914
16083TIP3    H169740   3.935   0.802   0.626 -0.9734 -0.5957  0.7687
16083TIP3    H269741   3.978   0.658   0.613  0.6830 -0.0742  0.1618
16084TIP3   OH269742   2.191   2.131  13.601 -0.0213 -0.2783  0.2246
16084TIP3    H169743   2.141   2.050  13.595 -0.3573 -0.0647  0.1062
16084TIP3    H269744   2.231   2.128  13.688 -1.3446  0.1673  0.8712
16085TIP3   OH269745   5.300   0.831  12.081  0.0833 -0.3529  0.7815
16085TIP3    H169746   5.312   0.924  12.099  3.2784 -0.3427 -0.7289
16085TIP3    H269747   5.261   0.827  11.994  2.7802 -0.2907 -0.5368
16086TIP3   OH269748   2.883   2.262  12.213 -0.0386 -0.1520 -0.1659
16086TIP3    H169749   2.812   2.316  12.180 -1.7211 -1.8539  0.4638
16086TIP3    H269750   2.883   2.184  12.157  0.6890 -0.6098  0.4403
16087TIP3   OH269751   5.825   4.990  14.871  0.7881  0.6606  0.3689
16087TIP3    H169752   5.818   5.085  14.877  2.7172  0.9279 -0.6188
16087TIP3    H269753   5.915   4.971  14.899  1.5117 -0.4943 -2.3423
16088TIP3   OH269754   2.603   2.304  16.636 -0.3881  0.2780 -0.1032
16088TIP3    H169755   2.584   2.224  16.587 -0.9559  0.1889  0.2552
16088TIP3    H269756   2.689   2.289  16.674 -0.0047  0.2876 -0.9457
16089TIP3   OH269757   2.507   1.634   6.689  0.4648  0.2676 -0.3002
16089TIP3    H169758   2.558   1.692   6.747 -0.7916 -2.5560  4.1171
16089TIP3    H269759   2.417   1.667   6.696  0.5341  1.0486 -2.4112
16090TIP3   OH269760   2.757   3.165   0.639  0.0034  0.1614  0.0853
16090TIP3    H169761   2.820   3.096   0.616 -2.2979 -2.6991  1.6690
16090TIP3    H269762   2.676   3.117   0.660 -1.7289  3.3931  1.4258
16091TIP3   OH269763   2.824   3.079  15.274 -0.0518  0.2854  0.2125
16091TIP3    H169764   2.786   3.159  15.238  0.1375  1.3429  2.2037
16091TIP3    H269765   2.796   3.079  15.366  0.3331 -1.7169  0.3634
16092TIP3   OH269766   3.947   1.399  15.121  0.0562 -0.2798 -0.4387
16092TIP3    H169767   3.887   1.467  15.092  0.0239 -0.3011 -0.4210
16092TIP3    H269768   3.897   1.347  15.184  0.3264  0.1334  0.1153
16093TIP3   OH269769   6.708   1.307   5.111 -0.0309  0.2474  0.1252
16093TIP3    H169770   6.686   1.371   5.043  2.5863  0.1977 -0.9125
16093TIP3    H269771   6.668   1.341   5.191 -0.5550  1.9943 -0.8254
16094TIP3   OH269772   3.243   3.107  11.196 -0.3517  0.5046 -0.7669
16094TIP3    H169773   3.261   3.084  11.287 -0.7634  0.2685 -0.7412
16094TIP3    H269774   3.210   3.025  11.157 -1.3827  0.9251 -0.8039
16095TIP3   OH269775   5.094   6.235  16.510  0.0460 -0.6232  0.3751
16095TIP3    H169776   5.110   6.142  16.523  0.4953 -0.7480 -0.9135
16095TIP3    H269777   5.113   6.250  16.417  3.3023  1.4142  1.2017
16096TIP3   OH269778   4.405   6.140   3.403 -0.1621 -0.3858  0.0059
16096TIP3    H169779   4.412   6.166   3.495 -1.4866 -0.2361  0.0773
16096TIP3    H269780   4.417   6.222   3.354  1.7493 -0.6416 -0.0410
16097TIP3   OH269781   0.360   2.346  16.932  0.5235 -0.7144 -0.1212
16097TIP3    H169782   0.445   2.315  16.901 -0.9695 -1.8767 -3.4612
16097TIP3    H269783   0.381   2.394  17.012  4.1827 -1.7330 -0.2585
16098TIP3   OH269784   6.259   0.235  13.801 -1.0634  0.2478 -0.3858
16098TIP3    H169785   6.311   0.310  13.773 -1.6387  0.9574  0.3845
16098TIP3    H269786   6.223   0.199  13.720 -0.1974  0.3663 -0.8249
16099TIP3   OH269787   1.347   1.957  13.712  0.1168 -0.5734  0.3308
16099TIP3    H169788   1.430   1.989  13.676 -0.5853  0.9365 -0.0086
16099TIP3    H269789   1.329   1.876  13.663  0.7502 -0.2368 -0.4786
16100TIP3   OH269790   2.961   3.828   1.311 -0.2177 -0.1642 -0.9645
16100TIP3    H169791   2.981   3.908   1.263 -0.9299 -0.2962 -1.4952
16100TIP3    H269792   2.870   3.838   1.338  0.3808  0.2535  1.0813
16101TIP3   OH269793   5.676   2.410   0.603 -0.1899 -0.1480 -0.8070
16101TIP3    H169794   5.717   2.325   0.586 -0.8299 -0.4224 -0.9774
16101TIP3    H269795   5.588   2.390   0.633 -0.1098  0.4360 -0.1343
16102TIP3   OH269796   4.966   4.753   4.099 -0.0176 -0.0363  0.1536
16102TIP3    H169797   4.906   4.822   4.069 -0.2363  0.1241  0.9444
16102TIP3    H269798   4.941   4.738   4.190 -0.2536 -1.4632 -0.1276
16103TIP3   OH269799   5.923   4.477   1.797 -0.5134  0.4834 -0.6484
16103TIP3    H169800   6.012   4.514   1.803  0.1418 -0.7615 -2.0542
16103TIP3    H269801   5.927   4.397   1.848 -1.0247  0.7602 -0.1747
16104TIP3   OH269802   5.827   6.340   4.793 -1.0832  0.5095  0.1219
16104TIP3    H169803   5.863   6.353   4.705  0.1612  0.1770  0.5631
16104TIP3    H269804   5.902   6.312   4.845 -2.0332 -0.4145  1.0335
16105TIP3   OH269805   5.803   0.429   0.919 -0.5577 -0.1171  0.0176
16105TIP3    H169806   5.751   0.361   0.962  1.5328 -1.5418  0.4323
16105TIP3    H269807   5.772   0.511   0.957 -0.4964 -1.1474  2.4354
16106TIP3   OH269808   1.595   1.422  15.687  0.2493 -0.3132 -0.1324
16106TIP3    H169809   1.685   1.428  15.717  0.4515 -0.5203 -0.6972
16106TIP3    H269810   1.600   1.386  15.599 -0.3042  0.7527 -0.6275
16107TIP3   OH269811   1.299   1.608  13.805 -0.2926  0.0644  0.7520
16107TIP3    H169812   1.263   1.629  13.719  2.4835 -0.0946 -0.5377
16107TIP3    H269813   1.295   1.513  13.811  1.6652 -0.1348 -0.3018
16108TIP3   OH269814   3.491   5.750   0.043 -0.3701 -0.4465  0.3019
16108TIP3    H169815   3.570   5.778   0.089 -0.9807  0.6025  0.7513
16108TIP3    H269816   3.523   5.706  -0.036  0.6679  0.9969 -0.1268
16109TIP3   OH269817   5.483   0.733  16.480 -0.7066  0.5904 -0.0097
16109TIP3    H169818   5.390   0.733  16.502 -0.6836  0.7672  0.0870
16109TIP3    H269819   5.501   0.643  16.452 -0.4717  0.0268  1.8083
16110TIP3   OH269820   6.196   0.032   1.313  0.2357 -0.0981  0.0365
16110TIP3    H169821   6.225  -0.006   1.395  0.2008  0.3191  0.2437
16110TIP3    H269822   6.234   0.120   1.312 -2.4062  1.1522  1.1502
16111TIP3   OH269823   1.821   5.476  14.949 -0.0973 -0.6453 -0.8052
16111TIP3    H169824   1.747   5.476  15.010  0.5090  0.2189 -0.0321
16111TIP3    H269825   1.793   5.420  14.877  0.2665 -4.1867  1.5751
16112TIP3   OH269826   4.216   5.547  12.991  0.2552 -0.4609  0.2990
16112TIP3    H169827   4.194   5.640  12.990  3.2203  0.3291  0.3020
16112TIP3    H269828   4.154   5.507  12.930 -2.2298  1.1507  1.6066
16113TIP3   OH269829   0.822   6.513   1.911 -0.5620  0.2918 -0.2075
16113TIP3    H169830   0.767   6.588   1.933 -0.7956 -0.2878  1.3245
16113TIP3    H269831   0.783   6.477   1.832 -2.5896 -0.2389  0.9569
16114TIP3   OH269832   5.596   5.359   0.646 -0.2445  0.3392  0.2297
16114TIP3    H169833   5.544   5.408   0.710  2.0659  0.3376  2.2601
16114TIP3    H269834   5.671   5.417   0.628  0.8847 -1.0956  0.1868
16115TIP3   OH269835   0.262   2.488   2.241  0.4308  0.1957  0.4851
16115TIP3    H169836   0.222   2.401   2.242 -1.7655  1.1394  2.1236
16115TIP3    H269837   0.336   2.481   2.300  1.0068 -0.8505 -0.3285
16116TIP3   OH269838   6.387   1.300  12.983 -0.3001 -0.2226  0.1196
16116TIP3    H169839   6.309   1.298  13.037 -0.1756  0.1719  0.3225
16116TIP3    H269840   6.357   1.277  12.895 -0.6170 -0.2164  0.2278
16117TIP3   OH269841   3.952   6.069   1.840 -0.5466  0.2219 -0.8077
16117TIP3    H169842   3.935   6.031   1.754 -0.0013 -1.0055 -0.3956
16117TIP3    H269843   3.868   6.068   1.885 -0.6736  0.1385 -1.0480
16118TIP3   OH269844   1.403   0.218  12.916  0.5163 -0.1521 -0.3857
16118TIP3    H169845   1.459   0.140  12.921  0.8666  0.1599  0.7644
16118TIP3    H269846   1.377   0.235  13.006  0.0081  0.7593 -0.6922
16119TIP3   OH269847   5.691   3.453   4.637 -0.0283  0.4250  0.6465
16119TIP3    H169848   5.668   3.361   4.651 -0.1611  0.1386 -1.2167
16119TIP3    H269849   5.607   3.499   4.639  0.0661  0.5872  1.9020
16120TIP3   OH269850   3.760   5.337  15.761  0.5682 -0.3374  0.0174
16120TIP3    H169851   3.785   5.350  15.669  1.2615  1.5089  0.4289
16120TIP3    H269852   3.843   5.322  15.806  0.6326  2.0589  0.8108
16121TIP3   OH269853   2.769   2.419  14.844 -0.0926  0.5752 -0.1467
16121TIP3    H169854   2.714   2.341  14.849 -1.3028  1.0682 -3.2457
16121TIP3    H269855   2.715   2.489  14.881  0.0674  0.3774  0.4763
16122TIP3   OH269856   3.925   3.990   4.316  0.7453  0.2213  0.2464
16122TIP3    H169857   3.991   4.053   4.347  0.0194  1.4720 -0.6307
16122TIP3    H269858   3.976   3.921   4.274  1.5220  1.5647 -1.1339
16123TIP3   OH269859   0.416   6.291  11.107 -0.0946  0.3447  0.4950
16123TIP3    H169860   0.399   6.232  11.034  0.6070  1.6547 -0.7749
16123TIP3    H269861   0.375   6.248  11.182 -2.4998 -0.1801 -0.9952
16124TIP3   OH269862   1.865   1.450   5.522 -0.1918  0.3606 -0.1489
16124TIP3    H169863   1.852   1.527   5.577 -0.1584  1.5739 -1.7645
16124TIP3    H269864   1.786   1.398   5.535 -1.1261  1.6311 -0.4646
16125TIP3   OH269865   0.654   5.073  13.164 -0.8594 -0.4901  0.4299
16125TIP3    H169866   0.560   5.082  13.180 -0.5187 -0.4126  2.6983
16125TIP3    H269867   0.680   5.158  13.129 -1.0838  0.8089  3.1525
16126TIP3   OH269868   6.699   6.657   3.776  0.1230 -0.1508  0.3067
16126TIP3    H169869   6.700   6.628   3.867  2.3082 -1.3882 -0.0418
16126TIP3    H269870   6.776   6.715   3.768 -1.0446  1.4015 -0.3618
16127TIP3   OH269871   1.993   1.722   5.314  0.5845 -0.1428  0.3294
16127TIP3    H169872   1.948   1.642   5.284 -0.7626  0.3345  0.9956
16127TIP3    H269873   2.078   1.720   5.270  0.3100 -1.6076 -0.1792
16128TIP3   OH269874   5.290   3.309  14.416 -0.1622  0.8113  0.2491
16128TIP3    H169875   5.366   3.261  14.447 -0.0130 -0.1782 -1.5159
16128TIP3    H269876   5.244   3.335  14.496  1.0587 -0.1514  1.3087
16129TIP3   OH269877   4.159   2.254  13.895 -0.0214  0.3938  0.0121
16129TIP3    H169878   4.127   2.318  13.832  1.7311 -1.5787 -3.1113
16129TIP3    H269879   4.091   2.187  13.898  0.4808 -0.1590 -0.8312
16130TIP3   OH269880   4.684   4.248  16.004 -0.4656  0.2109  0.0827
16130TIP3    H169881   4.616   4.188  15.973 -1.4907  0.7032  1.2979
16130TIP3    H269882   4.763   4.221  15.957 -1.4620 -0.4578 -1.2729
16131TIP3   OH269883   1.650   6.602   1.186  0.4594  0.2306  0.6199
16131TIP3    H169884   1.623   6.563   1.102 -0.7058  1.5947  0.3087
16131TIP3    H269885   1.686   6.529   1.236 -1.3361 -1.1936 -0.0335
16132TIP3   OH269886   3.754   3.993  11.708 -0.5316  0.8983 -0.5608
16132TIP3    H169887   3.846   3.983  11.734 -0.9453 -0.3068  0.5245
16132TIP3    H269888   3.734   3.914  11.658 -0.9400  1.2280 -0.9243
16133TIP3   OH269889   4.094   6.415   1.736  0.5986  0.5780 -0.3404
16133TIP3    H169890   4.163   6.367   1.783  0.0026 -0.2060 -0.2364
16133TIP3    H269891   4.081   6.494   1.789  0.2467 -0.0806  0.5902
16134TIP3   OH269892   3.738   6.153   4.658  1.0020 -0.1790  0.2336
16134TIP3    H169893   3.750   6.173   4.751 -1.7337  1.5410  0.3343
16134TIP3    H269894   3.687   6.071   4.657 -5.1677  3.0166  0.8713
16135TIP3   OH269895   4.767   3.124   3.737 -0.3445  0.1384 -0.1973
16135TIP3    H169896   4.695   3.147   3.796  1.0370  0.1852  1.5450
16135TIP3    H269897   4.729   3.130   3.650 -2.9905 -1.7312  0.7076
16136TIP3   OH269898   2.791   0.489   4.624  0.5507 -0.0314 -0.5241
16136TIP3    H169899   2.860   0.428   4.597  0.6651 -0.8815  1.4680
16136TIP3    H269900   2.738   0.439   4.686 -0.2732  1.4309  0.0004
16137TIP3   OH269901   4.099   1.913   3.343  0.0441 -0.1795  0.1861
16137TIP3    H169902   4.130   1.870   3.423 -0.9168 -0.8704  0.1990
16137TIP3    H269903   4.040   1.982   3.374  2.1726  1.7566  0.2092
16138TIP3   OH269904   0.881   3.457   6.592 -0.7381 -0.0002  0.2589
16138TIP3    H169905   0.841   3.528   6.541 -0.4496  0.4587  0.6624
16138TIP3    H269906   0.885   3.383   6.531 -0.9148  0.3740 -0.2111
16139TIP3   OH269907   0.461   3.390   4.007  0.7516 -0.1297 -0.3233
16139TIP3    H169908   0.367   3.382   4.018  0.9781 -2.6350  0.4539
16139TIP3    H269909   0.495   3.406   4.095  0.9860  2.9462 -0.8630
16140TIP3   OH269910   6.477   3.502   4.154  0.0517 -0.6086  0.5778
16140TIP3    H169911   6.497   3.410   4.135 -3.5837 -1.6914  1.2127
16140TIP3    H269912   6.408   3.524   4.091  2.0200  2.3609 -0.7402
16141TIP3   OH269913   3.366   4.896  16.164  0.4533  0.2961  0.0080
16141TIP3    H169914   3.339   4.807  16.188  0.4207  0.5917  1.1354
16141TIP3    H269915   3.284   4.942  16.149  0.3858  0.5477  1.0341
16142TIP3   OH269916   4.942   0.620   3.056  0.7569  0.4966 -0.4283
16142TIP3    H169917   4.874   0.556   3.034  0.8391  0.9323 -2.1034
16142TIP3    H269918   4.899   0.681   3.115  0.4752 -0.6973  0.6303
16143TIP3   OH269919   2.662   6.652   1.729  0.0617 -0.6172 -0.5026
16143TIP3    H169920   2.750   6.684   1.749 -0.0953 -0.2741 -0.3515
16143TIP3    H269921   2.623   6.634   1.815 -0.0099 -0.7809 -0.5696
16144TIP3   OH269922   0.161   5.673  11.793  0.6754 -0.0406 -0.2738
16144TIP3    H169923   0.087   5.615  11.805 -0.1731  0.7228 -1.5538
16144TIP3    H269924   0.229   5.637  11.850 -1.1034  0.0811  2.0678
16145TIP3   OH269925   4.289   3.772   0.003 -0.3047 -0.1081  0.1072
16145TIP3    H169926   4.202   3.813   0.009 -0.2279  0.6020 -2.5768
16145TIP3    H269927   4.290   3.731  -0.083  2.4417  0.9447 -0.4449
16146TIP3   OH269928   3.312   1.255  15.847  0.1658  0.2020  0.3989
16146TIP3    H169929   3.291   1.270  15.940 -0.8825 -0.1998  0.2446
16146TIP3    H269930   3.266   1.325  15.801  0.5700  0.3157  0.1695
16147TIP3   OH269931   5.100   5.601  16.672  0.4901  0.0102 -0.2111
16147TIP3    H169932   5.070   5.548  16.746  1.0945  0.3622  0.2912
16147TIP3    H269933   5.024   5.655  16.649  0.4673  0.2814  0.4959
16148TIP3   OH269934   2.264   3.880  14.098 -0.2032  0.1505 -0.1728
16148TIP3    H169935   2.204   3.876  14.172  0.2748  0.2139  0.2199
16148TIP3    H269936   2.224   3.943  14.038 -0.9404 -0.4166 -0.2895
16149TIP3   OH269937   1.174   5.258   5.699 -0.3966  0.4050  0.1833
16149TIP3    H169938   1.250   5.200   5.697 -0.8145 -0.1631  0.6796
16149TIP3    H269939   1.170   5.290   5.789  0.1825  1.6897 -0.2260
16150TIP3   OH269940   1.606   5.310  14.480 -0.0732  0.0994  0.4529
16150TIP3    H169941   1.658   5.230  14.470  1.9486  1.3778  0.0270
16150TIP3    H269942   1.628   5.363  14.404 -0.8916  1.3195  1.0286
16151TIP3   OH269943   3.281   6.446   2.459 -0.7961  0.0100 -0.0479
16151TIP3    H169944   3.365   6.422   2.421 -0.2080 -3.2637  2.8178
16151TIP3    H269945   3.217   6.427   2.390  0.5556 -0.4866 -1.2065
16152TIP3   OH269946   5.532   1.612  14.455 -0.2667  0.4326  0.0806
16152TIP3    H169947   5.595   1.570  14.513 -2.3272 -1.3726  1.1310
16152TIP3    H269948   5.536   1.561  14.374 -0.3512  0.3596  0.1231
16153TIP3   OH269949   0.250   5.191   4.412 -0.3957 -0.3309  0.2795
16153TIP3    H169950   0.272   5.282   4.390  0.7426 -0.3819  1.1493
16153TIP3    H269951   0.256   5.145   4.328 -2.0831  0.5728 -0.3915
16154TIP3   OH269952   4.605   6.096  11.965  0.0157 -0.0160 -0.1464
16154TIP3    H169953   4.593   6.013  11.918 -0.6450 -0.3166  0.5273
16154TIP3    H269954   4.627   6.159  11.896  1.1402 -0.8659 -0.5958
16155TIP3   OH269955   5.050   0.507  15.027 -0.1270  0.1225  0.1031
16155TIP3    H169956   5.104   0.573  14.982 -0.1451  1.0635  1.4083
16155TIP3    H269957   5.112   0.460  15.082 -0.3654  0.0913  0.3445
16156TIP3   OH269958   0.238   6.809  11.786  0.0350  0.0146 -0.8669
16156TIP3    H169959   0.240   6.827  11.692  0.9562  0.1143 -0.8296
16156TIP3    H269960   0.189   6.727  11.794 -2.0928  1.1673 -1.2381
16157TIP3   OH269961   3.645   3.475  15.664 -0.6817  0.1715  0.3298
16157TIP3    H169962   3.665   3.567  15.680 -0.0604  0.3009 -1.1249
16157TIP3    H269963   3.730   3.431  15.667 -0.6861  0.0082 -1.2319
16158TIP3   OH269964   3.889   5.291   4.682 -0.2858 -0.4106  0.1403
16158TIP3    H169965   3.944   5.328   4.751 -1.5886 -2.2760  2.3252
16158TIP3    H269966   3.801   5.325   4.701 -0.4715  0.0433 -1.4088
16159TIP3   OH269967   0.952   6.717  11.875 -0.1883 -1.0201  0.1366
16159TIP3    H169968   0.879   6.767  11.913 -0.0415 -0.9568  0.3315
16159TIP3    H269969   0.996   6.780  11.817  0.3088 -0.7725  0.7779
16160TIP3   OH269970   0.393   3.191  14.305  0.4788  0.1546 -0.0136
16160TIP3    H169971   0.359   3.268  14.260  1.1758  0.6159  0.2162
16160TIP3    H269972   0.436   3.140  14.237 -0.4397 -0.2935 -0.2550
16161TIP3   OH269973   2.630   0.901   4.188 -0.1325  0.0962 -0.3363
16161TIP3    H169974   2.694   0.841   4.226  1.0489  1.9436  0.7323
16161TIP3    H269975   2.680   0.954   4.125 -1.0479  0.2663 -0.9429
16162TIP3   OH269976   6.436   0.066   5.686 -0.6093 -0.1705 -0.2947
16162TIP3    H169977   6.423  -0.028   5.671 -1.1148 -0.3842  1.2557
16162TIP3    H269978   6.348   0.102   5.688 -0.5794 -0.1149  1.5924
16163TIP3   OH269979   0.336   4.989  11.722 -0.3892  0.4831 -0.1293
16163TIP3    H169980   0.354   5.052  11.653  0.1468  2.0065  1.3270
16163TIP3    H269981   0.421   4.950  11.742 -0.5835 -0.1349 -0.4597
16164TIP3   OH269982   5.798   4.581  11.408 -0.3054  0.5273  0.4845
16164TIP3    H169983   5.732   4.556  11.343 -1.8219 -0.7421  2.4171
16164TIP3    H269984   5.872   4.611  11.356 -1.9835  0.9804 -1.8045
16165TIP3   OH269985   0.904   3.110  16.710 -0.2963 -0.1122 -0.1436
16165TIP3    H169986   0.965   3.105  16.784  0.7231 -0.4916 -0.9688
16165TIP3    H269987   0.817   3.100  16.749  0.2462 -0.7583  0.9578
16166TIP3   OH269988   5.173   6.547  14.231  0.1376  0.0266 -0.2034
16166TIP3    H169989   5.131   6.632  14.242 -0.0733 -0.1042  0.0070
16166TIP3    H269990   5.150   6.498  14.310 -1.8587 -1.1344 -1.4083
16167TIP3   OH269991   5.051   0.124   5.459 -0.3427  0.3398  0.5583
16167TIP3    H169992   5.000   0.205   5.461 -1.4387 -0.3448  1.5859
16167TIP3    H269993   5.139   0.151   5.486 -0.8335  1.1107  1.4469
16168TIP3   OH269994   3.222   5.474  17.051  0.0865 -0.7437 -0.2887
16168TIP3    H169995   3.277   5.477  16.973  2.8595 -1.2431  1.5243
16168TIP3    H269996   3.140   5.516  17.024  2.3075  2.6816 -2.3995
16169TIP3   OH269997   6.836   2.547  15.051  0.3284 -0.0481 -0.1452
16169TIP3    H169998   6.804   2.636  15.064 -1.2796 -0.7382  1.0428
16169TIP3    H269999   6.902   2.554  14.982 -0.6355  1.8686 -0.9330
16170TIP3   OH270000   6.569   2.514  15.449  0.3402  0.1368  0.7810
16170TIP3    H170001   6.486   2.560  15.436 -1.3166 -2.4508  1.5613
16170TIP3    H270002   6.604   2.501  15.361 -1.3957 -0.9610  0.2059
16171TIP3   OH270003   5.047   0.467  13.622  0.2511  0.3070  0.3663
16171TIP3    H170004   4.995   0.389  13.604 -1.0956  1.2583 -0.0354
16171TIP3    H270005   4.988   0.540  13.605  1.1622  1.4130  1.7104
16172TIP3   OH270006   2.352   4.639  15.158 -0.6596 -0.4256 -0.7377
16172TIP3    H170007   2.298   4.697  15.211  0.8471  2.0367 -1.7189
16172TIP3    H270008   2.329   4.661  15.068  0.4589 -0.8184 -1.1319
16173TIP3   OH270009   4.912   5.120  14.232  0.2842 -0.1550  0.1385
16173TIP3    H170010   4.924   5.215  14.236  1.6877 -0.1550 -2.2206
16173TIP3    H270011   4.839   5.108  14.171  1.0634 -0.6073 -0.7159
16174TIP3   OH270012   1.151   5.121  11.364  0.4533 -0.0450  0.6193
16174TIP3    H170013   1.149   5.109  11.269 -0.4156 -3.0051  0.9297
16174TIP3    H270014   1.094   5.197  11.378  1.5598  1.2417 -1.2446
16175TIP3   OH270015   4.171   3.812   3.009  0.2064  0.3971  0.6208
16175TIP3    H170016   4.190   3.771   3.094  1.1943 -0.4518  0.0096
16175TIP3    H270017   4.192   3.745   2.945  1.0557  1.5949 -0.3812
16176TIP3   OH270018   0.954   4.646   0.947 -0.0617  0.3612  0.6777
16176TIP3    H170019   0.959   4.737   0.976 -0.0086  0.7598 -0.5294
16176TIP3    H270020   0.861   4.632   0.929 -0.2414 -0.1812  1.8899
16177TIP3   OH270021   5.943   5.663   2.134 -0.0467 -0.7297  0.2022
16177TIP3    H170022   5.856   5.653   2.096  0.2943 -0.6054 -0.6316
16177TIP3    H270023   5.927   5.674   2.228 -0.8822 -1.4047  0.1555
16178TIP3   OH270024   2.476   6.583  14.807  0.4034 -0.0506 -0.1044
16178TIP3    H170025   2.473   6.582  14.903 -0.3591  1.7267 -0.0742
16178TIP3    H270026   2.431   6.502  14.780 -1.2440  0.4427  1.0281
16179TIP3   OH270027   0.537   6.393  13.966  0.1507 -0.5278  0.1305
16179TIP3    H170028   0.484   6.341  13.906  0.2670 -2.9853  1.9799
16179TIP3    H270029   0.625   6.356  13.958  0.9870  1.4914 -0.7004
16180TIP3   OH270030   2.426   5.486  14.287 -0.4083  0.1516  0.2828
16180TIP3    H170031   2.430   5.400  14.244 -1.8345 -2.0517  4.0779
16180TIP3    H270032   2.348   5.527  14.251  0.5126  0.1045 -1.8968
16181TIP3   OH270033   6.278   4.103  14.737  0.0699 -0.2828  0.4393
16181TIP3    H170034   6.216   4.067  14.673  0.8246 -1.9326  0.5789
16181TIP3    H270035   6.244   4.075  14.822  0.3325 -0.1243  0.5986
16182TIP3   OH270036   2.987   6.536   2.344  0.1692 -0.3949 -0.1679
16182TIP3    H170037   2.907   6.485   2.327  1.4417 -2.2656 -0.7892
16182TIP3    H270038   3.009   6.575   2.260  0.5590 -0.8517 -0.2783
16183TIP3   OH270039   5.218   2.231   3.340  0.0019 -0.1123  0.2768
16183TIP3    H170040   5.227   2.166   3.410 -0.6074 -0.5117 -0.0052
16183TIP3    H270041   5.209   2.314   3.387  0.9473 -0.2012  0.6353
16184TIP3   OH270042   0.513   4.249  13.083  0.3787  0.1077  0.0097
16184TIP3    H170043   0.595   4.237  13.036  0.9519 -0.9618  1.2522
16184TIP3    H270044   0.463   4.170  13.064  0.7458 -0.4878  1.4253
16185TIP3   OH270045   4.396   1.936   5.276  0.1733 -0.2016  0.1928
16185TIP3    H170046   4.459   1.865   5.264  1.5171  0.4251  2.7030
16185TIP3    H270047   4.449   2.015   5.273 -1.0029  0.5827 -0.6021
16186TIP3   OH270048   5.192   4.799   2.275  0.4563  0.0393 -0.2055
16186TIP3    H170049   5.241   4.877   2.250 -1.2839  1.7501  1.3077
16186TIP3    H270050   5.104   4.813   2.238 -0.9876  0.7213  3.0879
16187TIP3   OH270051   5.450   1.407  16.794  0.1140 -0.0339 -0.1511
16187TIP3    H170052   5.472   1.439  16.707 -0.1484 -0.6951 -0.4627
16187TIP3    H270053   5.354   1.399  16.793 -0.2432  2.6028  1.1111
16188TIP3   OH270054   4.634   0.334   0.411  0.0408  0.8547  0.1561
16188TIP3    H170055   4.688   0.411   0.391  1.1437  0.0343 -0.1436
16188TIP3    H270056   4.560   0.369   0.460  0.6354  2.0824  0.2320
16189TIP3   OH270057   6.587   1.621   4.711 -0.3171 -0.9088  0.2590
16189TIP3    H170058   6.546   1.636   4.796 -0.9754 -0.8386 -0.0707
16189TIP3    H270059   6.676   1.594   4.732 -0.1726  0.0585  0.9526
16190TIP3   OH270060   0.955   5.646  10.646 -0.0366 -0.0729  0.0931
16190TIP3    H170061   0.901   5.701  10.702  0.9445 -0.0104  1.0170
16190TIP3    H270062   0.931   5.556  10.671 -1.5026 -0.1104 -1.2849
16191TIP3   OH270063   2.559   1.129   3.475 -0.0916  0.1603  0.0268
16191TIP3    H170064   2.464   1.133   3.477 -0.1107 -0.5388  0.6334
16191TIP3    H270065   2.585   1.204   3.420 -1.0656 -0.7954 -1.8391
16192TIP3   OH270066   5.701   2.633  11.878 -0.2552 -0.2693 -0.0080
16192TIP3    H170067   5.673   2.724  11.876 -2.2092 -0.8445 -0.1416
16192TIP3    H270068   5.727   2.618  11.969 -1.0191  0.1136  0.2789
16193TIP3   OH270069   3.999   1.347  13.678 -0.7049 -0.5787  0.2960
16193TIP3    H170070   4.043   1.368  13.761 -0.4596  0.5915 -0.1167
16193TIP3    H270071   3.942   1.422  13.662 -0.2173 -0.4572 -0.9605
16194TIP3   OH270072   0.939   2.929  11.527  0.3345 -0.5815  0.3086
16194TIP3    H170073   0.905   2.980  11.600  0.0152  2.4126 -1.7817
16194TIP3    H270074   0.861   2.902  11.479  0.5917  1.9005 -1.6651
16195TIP3   OH270075   0.313   5.407  16.822  0.6743  0.1738  0.2462
16195TIP3    H170076   0.248   5.375  16.759 -0.2525  1.1488  0.6732
16195TIP3    H270077   0.298   5.355  16.901  0.5193  0.2834  0.2901
16196TIP3   OH270078   0.171   4.248  16.453 -0.6828  0.3385 -0.6824
16196TIP3    H170079   0.088   4.247  16.405 -1.7980  3.8551  0.8928
16196TIP3    H270080   0.149   4.211  16.539 -0.0391 -0.7221 -0.9559
16197TIP3   OH270081   1.606   4.395  11.131 -0.4855 -0.4111  0.2272
16197TIP3    H170082   1.558   4.445  11.066 -0.6619  0.9688  1.3727
16197TIP3    H270083   1.570   4.424  11.215  1.3962 -0.3504  1.0591
16198TIP3   OH270084   5.731   2.028   6.381 -0.0752  0.4098  0.0401
16198TIP3    H170085   5.787   2.103   6.400 -0.1095  0.7348 -1.0712
16198TIP3    H270086   5.652   2.067   6.343 -1.0925 -0.0369  1.6054
16199TIP3   OH270087   4.951   0.165   0.387  0.0488 -0.1758 -0.4831
16199TIP3    H170088   4.991   0.087   0.425 -0.9451 -0.6152 -0.2914
16199TIP3    H270089   4.915   0.213   0.462  2.2952  1.4996 -0.3613
16200TIP3   OH270090   0.290   4.331   6.013 -0.2651  0.0323  0.7526
16200TIP3    H170091   0.203   4.298   5.994 -0.1877  0.5232 -0.5216
16200TIP3    H270092   0.294   4.334   6.109 -1.8982  0.6791  0.8258
16201TIP3   OH270093   5.235   3.767   0.345 -0.5413  0.4488 -0.4543
16201TIP3    H170094   5.179   3.705   0.298 -0.6002  0.4154 -0.3406
16201TIP3    H270095   5.227   3.849   0.296  0.2517  0.1292 -1.1313
16202TIP3   OH270096   6.136   4.307   6.086 -0.7237  0.0663  0.2440
16202TIP3    H170097   6.076   4.319   6.013  0.6643  0.7432 -0.8242
16202TIP3    H270098   6.199   4.379   6.079  0.0960 -0.4850  1.4495
16203TIP3   OH270099   2.372   6.079   3.007  0.4519  0.2043  0.3842
16203TIP3    H170100   2.362   6.016   3.079 -1.7845  1.6562  1.4944
16203TIP3    H270101   2.408   6.158   3.049  1.1258  0.4013 -0.5349
16204TIP3   OH270102   1.021   2.289  10.421 -0.6893 -0.1867 -0.1460
16204TIP3    H170103   0.951   2.353  10.429 -1.5391 -0.7634 -2.3025
16204TIP3    H270104   0.999   2.221  10.485 -0.5402  0.9490  1.1504
16205TIP3   OH270105   1.423   3.617   1.563 -0.4537  0.2737 -0.4294
16205TIP3    H170106   1.344   3.567   1.584 -0.3339  0.0699 -0.4612
16205TIP3    H270107   1.390   3.698   1.525 -0.7537  1.6263  2.4847
16206TIP3   OH270108   6.081   1.747  15.497  0.0925  0.4028 -0.0766
16206TIP3    H170109   6.022   1.687  15.453  0.8023 -0.2503 -0.1583
16206TIP3    H270110   6.068   1.730  15.590  0.6439 -0.2379 -0.1091
16207TIP3   OH270111   0.446   3.333   6.428 -0.1409  0.2950  0.2710
16207TIP3    H170112   0.477   3.346   6.518  0.1848 -0.8085  0.3326
16207TIP3    H270113   0.473   3.244   6.406  0.4007  0.7824 -1.1755
16208TIP3   OH270114   2.910   0.385   5.723 -0.1172 -0.7336  0.8291
16208TIP3    H170115   2.892   0.369   5.816 -0.3044  3.7953  1.8176
16208TIP3    H270116   2.885   0.477   5.710  1.6299 -0.6539 -3.2850
16209TIP3   OH270117   5.429   4.615  12.534  0.2404  0.5046  0.4172
16209TIP3    H170118   5.419   4.702  12.496  1.9163  0.9935  1.0093
16209TIP3    H270119   5.399   4.555  12.465  0.5442  1.4811 -0.5804
16210TIP3   OH270120   1.132   3.825   5.001  0.4568 -0.0237 -0.3976
16210TIP3    H170121   1.154   3.918   5.006  0.5708 -0.1063  1.0313
16210TIP3    H270122   1.054   3.822   4.945 -1.0722  1.2557  1.5128
16211TIP3   OH270123   0.243   2.636  15.774  0.1138 -0.5645 -0.1274
16211TIP3    H170124   0.332   2.601  15.782  0.2286 -0.3294 -0.3752
16211TIP3    H270125   0.207   2.593  15.697 -0.3777 -1.4908  0.5918
16212TIP3   OH270126   5.626   0.563   1.876  0.0404  0.6552  0.0125
16212TIP3    H170127   5.655   0.583   1.965  0.2672 -4.1667  1.2895
16212TIP3    H270128   5.530   0.567   1.881  0.0019 -0.5378  0.8691
16213TIP3   OH270129   1.744   1.843   1.320  0.6550 -0.2011 -0.2934
16213TIP3    H170130   1.729   1.749   1.312  2.3643 -0.5604  0.2236
16213TIP3    H270131   1.815   1.860   1.258 -1.0765  1.2013 -2.0368
16214TIP3   OH270132   5.207   4.564   1.130  0.2993 -0.1177 -0.1816
16214TIP3    H170133   5.116   4.581   1.105 -0.6191 -0.3730  2.6097
16214TIP3    H270134   5.216   4.469   1.124 -0.7236 -0.4689  2.5930
16215TIP3   OH270135   6.563   1.202  11.269 -0.1898  0.4329  0.2729
16215TIP3    H170136   6.543   1.163  11.354 -0.6080 -0.7403 -0.3366
16215TIP3    H270137   6.480   1.200  11.221 -0.1306  1.7637  0.0801
16216TIP3   OH270138   2.930   0.234  14.659 -0.1416 -0.1508 -0.0503
16216TIP3    H170139   2.893   0.247  14.572 -0.4740 -1.0857 -0.0629
16216TIP3    H270140   2.868   0.276  14.718 -0.0532  0.2528 -0.2442
16217TIP3   OH270141   0.773   6.537   3.263 -0.4200 -0.0024  0.0432
16217TIP3    H170142   0.830   6.589   3.319 -0.4531  0.2297 -0.1351
16217TIP3    H270143   0.703   6.507   3.321  0.0196 -0.4978  0.3136
16218TIP3   OH270144   2.575   3.263  15.690  0.0506 -0.9065 -0.0053
16218TIP3    H170145   2.545   3.186  15.738 -0.9407 -1.2164 -1.0847
16218TIP3    H270146   2.519   3.267  15.613  0.8077  0.2762 -0.5268
16219TIP3   OH270147   3.972   5.118   0.532 -0.1538 -0.2122  0.3711
16219TIP3    H170148   3.888   5.102   0.490 -0.3075 -0.3802  0.7326
16219TIP3    H270149   4.018   5.178   0.474 -0.4294 -0.3073  0.0547
16220TIP3   OH270150   2.573   4.916  13.085  0.3242 -0.0258  0.1765
16220TIP3    H170151   2.617   4.849  13.137 -0.2051  0.3549  1.1525
16220TIP3    H270152   2.487   4.926  13.126 -0.4567 -0.3262 -1.3235
16221TIP3   OH270153   2.844   0.411  12.545  0.0682 -0.0948  0.3707
16221TIP3    H170154   2.786   0.411  12.621  1.5416  2.8990  1.6580
16221TIP3    H270155   2.884   0.324  12.545 -1.6505 -0.9324  1.6328
16222TIP3   OH270156   3.219   6.724   2.412 -0.3262 -0.0260  0.3674
16222TIP3    H170157   3.198   6.631   2.400  0.1725 -0.0429 -0.4779
16222TIP3    H270158   3.136   6.764   2.435 -0.8066 -0.4908 -0.4712
16223TIP3   OH270159   4.592   0.603   5.572 -0.2614  0.3992 -0.1584
16223TIP3    H170160   4.578   0.564   5.486  3.9931  2.3639 -2.0137
16223TIP3    H270161   4.647   0.540   5.618 -0.8487  0.2652  0.3762
16224TIP3   OH270162   1.187   3.425  10.414  0.3556  0.2347 -0.2243
16224TIP3    H170163   1.238   3.350  10.383  0.5818  0.6378 -0.8501
16224TIP3    H270164   1.099   3.410  10.380  0.8701  1.2788 -2.1849
16225TIP3   OH270165   3.016   4.340  14.665  0.3600  0.0832 -0.0145
16225TIP3    H170166   3.077   4.266  14.670  1.5231  0.9294 -1.0361
16225TIP3    H270167   3.034   4.391  14.745  0.6427  0.0642 -0.0642
16226TIP3   OH270168   2.478   1.814  15.417  0.3341  0.4735 -0.3526
16226TIP3    H170169   2.567   1.840  15.390  0.7581 -0.2373  0.3172
16226TIP3    H270170   2.464   1.730  15.374  0.0534  0.5003 -0.3109
16227TIP3   OH270171   3.773   5.834  12.484 -0.5236 -0.0458 -0.6957
16227TIP3    H170172   3.715   5.907  12.463  0.4509  1.0437  0.3059
16227TIP3    H270173   3.719   5.776  12.538 -1.0784  0.2789 -0.8936
16228TIP3   OH270174   3.286   4.167   3.135  0.1583 -0.0433 -0.2500
16228TIP3    H170175   3.271   4.101   3.203  0.5420  0.8568  0.7376
16228TIP3    H270176   3.198   4.193   3.107 -0.0047 -0.3693 -0.0483
16229TIP3   OH270177   0.725   0.395  14.728 -0.2170 -0.2069 -0.6347
16229TIP3    H170178   0.813   0.430  14.720  0.1441 -1.1420 -0.8138
16229TIP3    H270179   0.668   0.468  14.703  0.4758  0.5138 -0.1748
16230TIP3   OH270180   6.249   3.675  10.469 -0.2015  0.1943  0.4330
16230TIP3    H170181   6.311   3.682  10.396 -1.6100  2.7884 -0.6633
16230TIP3    H270182   6.218   3.764  10.482 -1.7703 -0.6022  2.6839
16231TIP3   OH270183   6.784   5.112  15.026 -0.3567  0.2225 -0.8468
16231TIP3    H170184   6.773   5.033  15.079 -1.8709 -0.2900 -1.8550
16231TIP3    H270185   6.868   5.100  14.981 -0.1684 -0.4074 -0.3331
16232TIP3   OH270186   1.590   1.803   5.232  0.1284  0.2128 -0.0280
16232TIP3    H170187   1.555   1.837   5.314 -0.8468  1.6322 -0.9872
16232TIP3    H270188   1.516   1.759   5.191  0.9456 -1.6942  0.4101
16233TIP3   OH270189   2.297   3.973  12.636 -0.4492 -0.7141 -0.2622
16233TIP3    H170190   2.374   3.968  12.580 -0.9632 -0.4647 -1.0019
16233TIP3    H270191   2.223   3.956  12.577 -1.0432  0.1264  0.2134
16234TIP3   OH270192   4.382   4.037   3.571  0.2924 -0.1061 -0.2767
16234TIP3    H170193   4.420   4.091   3.501  2.0625 -1.1896 -0.2261
16234TIP3    H270194   4.349   4.100   3.634  1.2530  0.9292 -0.7622
16235TIP3   OH270195   6.038   4.348  11.861  0.4996  0.2182 -0.5528
16235TIP3    H170196   5.961   4.318  11.812 -1.1824 -1.4071  2.7207
16235TIP3    H270197   6.005   4.422  11.912  0.9711 -0.6432  1.0694
16236TIP3   OH270198   1.005   2.567  15.753  0.1387  0.1799  0.2857
16236TIP3    H170199   1.033   2.620  15.828  1.4419 -0.6775  0.4402
16236TIP3    H270200   1.077   2.505  15.739  0.0013  0.3992 -1.7583
16237TIP3   OH270201   3.264   5.737  13.577  0.1252  0.8220 -0.0767
16237TIP3    H170202   3.236   5.820  13.538  0.7664  0.5284 -1.2050
16237TIP3    H270203   3.184   5.700  13.614 -0.7864  0.5873 -2.1387
16238TIP3   OH270204   1.350   1.391  14.374  0.3252 -0.6032 -0.1963
16238TIP3    H170205   1.349   1.406  14.279 -0.2404 -0.3303 -0.1510
16238TIP3    H270206   1.286   1.322  14.388  0.3621 -0.5981 -0.0030
16239TIP3   OH270207   6.604   1.795   6.084 -0.0291 -0.2982 -0.2831
16239TIP3    H170208   6.630   1.884   6.108  1.1131 -0.2156 -1.6970
16239TIP3    H270209   6.607   1.746   6.167 -1.1659  1.0632  0.6063
16240TIP3   OH270210   6.271   5.893  14.555  0.0388 -0.4605 -0.6140
16240TIP3    H170211   6.345   5.833  14.556 -2.5537 -3.9655  1.2084
16240TIP3    H270212   6.263   5.924  14.645  1.0305  2.5192 -1.4090
16241TIP3   OH270213   5.666   0.042   1.995  0.5355 -0.1185  0.2330
16241TIP3    H170214   5.628   0.052   1.908 -0.6935 -1.3601  0.5965
16241TIP3    H270215   5.591   0.032   2.053  1.3280 -3.0026  0.9315
16242TIP3   OH270216   0.801   6.565   1.118 -0.0621 -0.2790  0.3696
16242TIP3    H170217   0.793   6.585   1.211 -0.1818 -0.7390  0.4593
16242TIP3    H270218   0.833   6.475   1.115  1.8587  0.3676 -0.0189
16243TIP3   OH270219   1.450   4.615   1.925 -0.2105  0.0474  0.2072
16243TIP3    H170220   1.490   4.626   2.011  1.2158 -1.3793 -0.2113
16243TIP3    H270221   1.396   4.693   1.913  0.1311  0.6250  2.0684
16244TIP3   OH270222   6.584   2.526  13.756  0.4575  0.2064 -0.3428
16244TIP3    H170223   6.525   2.597  13.780  0.1670  0.3494 -1.4276
16244TIP3    H270224   6.526   2.454  13.732  0.7437 -0.6098  1.2537
16245TIP3   OH270225   0.342   0.180   1.698  0.0908 -0.0748 -0.3530
16245TIP3    H170226   0.426   0.223   1.716 -1.1626  2.2797  0.3162
16245TIP3    H270227   0.277   0.249   1.710 -2.1692 -2.2812  1.2740
16246TIP3   OH270228   3.445   0.687   4.658 -0.0308  0.3315  0.1980
16246TIP3    H170229   3.466   0.627   4.586  0.2653  0.3374  0.2766
16246TIP3    H270230   3.472   0.640   4.737  0.9162  0.8631  0.2103
16247TIP3   OH270231   2.848   2.314   5.082  0.4571  0.0160 -0.1741
16247TIP3    H170232   2.798   2.363   5.016  0.5679 -0.1886 -0.4100
16247TIP3    H270233   2.857   2.376   5.155  0.6461  0.3722 -0.4930
16248TIP3   OH270234   1.993   6.540   0.643 -0.0562  0.1204  0.2840
16248TIP3    H170235   2.059   6.520   0.576  0.0295  0.0521  0.3873
16248TIP3    H270236   2.006   6.472   0.709  1.8009  1.8151  1.8052
16249TIP3   OH270237   4.346   2.166  15.543 -0.4918  0.1595 -0.2891
16249TIP3    H170238   4.264   2.131  15.508  0.4528 -0.3057 -2.2005
16249TIP3    H270239   4.414   2.117  15.497  0.8578  2.3163 -0.7294
16250TIP3   OH270240   4.047   0.131   4.087  0.7541 -0.1615 -0.3748
16250TIP3    H170241   4.032   0.192   4.160  0.8804 -0.9954  0.3771
16250TIP3    H270242   4.041   0.185   4.009  2.6517  1.1705  0.3394
16251TIP3   OH270243   5.377   4.993  13.848 -0.0700  0.0770  0.2297
16251TIP3    H170244   5.309   5.011  13.912  0.0123  0.3615  0.2392
16251TIP3    H270245   5.417   5.078  13.830 -0.0608 -0.0054 -0.1654
16252TIP3   OH270246   4.706   0.608   1.019  0.5800 -0.0848 -0.2848
16252TIP3    H170247   4.800   0.620   1.000  0.7934 -1.9304 -0.5738
16252TIP3    H270248   4.704   0.567   1.105  0.1289 -1.5231 -0.9637
16253TIP3   OH270249   5.036   1.789   2.862 -0.7818 -0.2415 -0.0283
16253TIP3    H170250   5.019   1.698   2.838  0.1390 -0.7334  1.1320
16253TIP3    H270251   4.953   1.821   2.897 -1.1937 -0.5197 -0.7191
16254TIP3   OH270252   5.698   2.376   5.295 -0.3010 -0.0459  0.3921
16254TIP3    H170253   5.608   2.353   5.319 -0.3541 -0.6700 -0.3629
16254TIP3    H270254   5.732   2.421   5.372 -1.1274 -0.1638  0.8447
16255TIP3   OH270255   1.703   3.247  12.133 -0.4696 -0.1672 -0.1813
16255TIP3    H170256   1.749   3.178  12.181 -0.6172 -0.1845 -0.0686
16255TIP3    H270257   1.697   3.213  12.043  0.2923  0.0962 -0.3433
16256TIP3   OH270258   6.693   2.385   3.854  0.2487 -0.1213  0.0072
16256TIP3    H170259   6.721   2.327   3.783 -0.1768  0.9188 -1.0659
16256TIP3    H270260   6.767   2.445   3.866 -0.7792  1.6519 -1.7639
16257TIP3   OH270261   3.104   2.608   1.334 -0.3411  0.1604 -0.3283
16257TIP3    H170262   3.034   2.609   1.268 -0.8455  1.3171  0.1859
16257TIP3    H270263   3.098   2.521   1.374 -0.6428 -0.2160 -1.1616
16258TIP3   OH270264   2.922   1.408   2.152 -0.0970  0.0344 -0.2377
16258TIP3    H170265   2.935   1.445   2.239  0.7292 -0.7479 -0.0177
16258TIP3    H270266   2.880   1.323   2.167 -0.7596  0.2732 -0.6642
16259TIP3   OH270267   4.194   0.841   0.822 -0.0269 -0.0097  0.7403
16259TIP3    H170268   4.137   0.768   0.798  0.0897  0.4853 -1.2187
16259TIP3    H270269   4.135   0.908   0.855 -0.8097  0.7983 -1.9877
16260TIP3   OH270270   0.085   1.221  13.774  0.2182  0.2258 -0.0243
16260TIP3    H170271  -0.005   1.196  13.753  0.4131  0.4838 -1.2726
16260TIP3    H270272   0.137   1.189  13.700  0.7841  2.3103 -0.6244
16261TIP3   OH270273   3.933   4.588   4.925  0.0722  0.2391  0.4453
16261TIP3    H170274   3.844   4.582   4.889  0.1840 -0.7669  0.3173
16261TIP3    H270275   3.985   4.532   4.868  0.6364  0.1817  1.0115
16262TIP3   OH270276   6.617   0.443   1.415 -0.2231  0.4867 -0.2683
16262TIP3    H170277   6.561   0.482   1.482 -0.5749 -0.4713  0.0157
16262TIP3    H270278   6.623   0.350   1.440  2.2360  0.7112  0.2368
16263TIP3   OH270279   2.484   1.936  12.093  0.0935  0.0540 -0.4544
16263TIP3    H170280   2.511   1.886  12.170 -0.4948  0.1076 -0.2064
16263TIP3    H270281   2.496   2.028  12.119  1.5293  0.0506 -1.0408
16264TIP3   OH270282   1.285   1.790   5.744  0.1793  0.1660  0.5955
16264TIP3    H170283   1.263   1.772   5.835 -0.6985 -0.6748  0.2393
16264TIP3    H270284   1.214   1.750   5.694  0.3252  1.1333 -0.4410
16265TIP3   OH270285   0.488   1.729  12.633  0.4298 -0.5071 -0.1231
16265TIP3    H170286   0.427   1.728  12.706  0.2830 -0.3173 -0.2436
16265TIP3    H270287   0.566   1.774  12.668  1.2626 -2.4179  0.6354
16266TIP3   OH270288   3.548   1.582  12.339  0.2814  0.1867 -0.4390
16266TIP3    H170289   3.580   1.533  12.264  0.0678 -0.6056 -0.0291
16266TIP3    H270290   3.479   1.638  12.304 -0.7951 -1.2067 -0.6164
16267TIP3   OH270291   0.326   4.848   1.823 -0.5396  0.1764 -0.4238
16267TIP3    H170292   0.276   4.925   1.849  0.5906  0.9722 -0.5542
16267TIP3    H270293   0.390   4.881   1.761  2.0253 -0.2934  1.8173
16268TIP3   OH270294   4.358   3.049  12.799  0.3261 -0.0406 -0.0840
16268TIP3    H170295   4.444   3.014  12.779  1.5109  2.3004  0.4874
16268TIP3    H270296   4.354   3.132  12.751 -0.0182  1.7218  2.7255
16269TIP3   OH270297   4.786   1.380   5.316  0.1709  0.5845 -0.3422
16269TIP3    H170298   4.775   1.287   5.299 -0.1367  0.3984  0.8029
16269TIP3    H270299   4.875   1.400   5.288  0.7119 -0.3546  0.6654
16270TIP3   OH270300   0.880   4.313   5.471  0.4765 -0.0665 -0.5703
16270TIP3    H170301   0.790   4.341   5.455 -0.1805 -0.8490  1.4500
16270TIP3    H270302   0.925   4.391   5.503 -0.4967 -0.4392  1.9172
16271TIP3   OH270303   1.388   6.146   2.653 -0.0330  0.2492  0.2811
16271TIP3    H170304   1.326   6.152   2.580  1.4162 -0.3030 -1.0585
16271TIP3    H270305   1.468   6.187   2.620  2.0297 -3.5885 -0.0597
16272TIP3   OH270306   2.718   2.716   1.918 -0.1316  0.5543  0.6674
16272TIP3    H170307   2.663   2.710   1.996  0.2875 -1.5000  0.8554
16272TIP3    H270308   2.697   2.638   1.866 -0.0674  1.6327 -1.0805
16273TIP3   OH270309   6.070   4.984  15.418  0.3494  0.5213  0.1282
16273TIP3    H170310   5.981   5.008  15.443  0.2303 -0.1404  0.3638
16273TIP3    H270311   6.090   5.039  15.343 -0.3006  0.5971  0.0073
16274TIP3   OH270312   4.348   5.147  11.458 -0.4118  0.0389 -0.1727
16274TIP3    H170313   4.366   5.178  11.369 -0.9094 -0.5074 -0.4785
16274TIP3    H270314   4.421   5.089  11.479 -0.4614 -0.0893 -0.3555
16275TIP3   OH270315   3.588   2.474  16.806 -0.0860 -0.6517  0.5341
16275TIP3    H170316   3.532   2.518  16.870 -1.4806 -1.7025  0.0874
16275TIP3    H270317   3.675   2.510  16.822 -0.6757  0.2360  1.9856
16276TIP3   OH270318   4.296   0.933   5.689 -0.3631  0.1084  0.0838
16276TIP3    H170319   4.262   0.959   5.774 -1.3690  0.9027 -0.5307
16276TIP3    H270320   4.384   0.969   5.686  0.7821 -2.3218  1.8674
16277TIP3   OH270321   2.262   0.669  10.833  0.0294 -0.3254  0.0547
16277TIP3    H170322   2.299   0.692  10.748 -0.4006 -1.0033 -0.3175
16277TIP3    H270323   2.170   0.696  10.827  0.4354  1.4671  1.0185
16278TIP3   OH270324   6.489   2.292  11.508 -0.3318  0.0507  0.3742
16278TIP3    H170325   6.422   2.317  11.571 -1.2093 -0.6376 -0.2629
16278TIP3    H270326   6.515   2.374  11.466 -2.4337  0.0927 -0.9812
16279TIP3   OH270327   5.117   1.930   1.148  0.2027 -0.1005  0.4409
16279TIP3    H170328   5.038   1.982   1.162 -0.9532 -2.4670  4.1080
16279TIP3    H270329   5.184   1.975   1.200 -0.2627 -0.9917  1.8848
16280TIP3   OH270330   0.720   6.770   2.050  0.4934 -0.4312  0.0309
16280TIP3    H170331   0.785   6.840   2.052  0.5506 -0.5063  1.0741
16280TIP3    H270332   0.705   6.747   2.142 -2.1161  0.6143 -0.0408
16281TIP3   OH270333   3.091   1.062   1.738  0.2272 -0.3436  0.3184
16281TIP3    H170334   3.032   1.015   1.679  0.8319 -0.5241 -0.1453
16281TIP3    H270335   3.065   1.033   1.826 -2.2170  1.6335  0.3697
16282TIP3   OH270336   6.300   5.202  10.784 -0.2086  0.1823  0.2755
16282TIP3    H170337   6.245   5.124  10.773  0.6917 -0.5700  1.0382
16282TIP3    H270338   6.255   5.270  10.732 -1.7366 -0.4635  0.6969
16283TIP3   OH270339   5.194   6.141   1.526 -0.4109 -0.5562  0.0020
16283TIP3    H170340   5.224   6.169   1.439 -0.1996 -0.5499  0.0764
16283TIP3    H270341   5.128   6.206   1.551 -0.7307 -0.7566 -0.3066
16284TIP3   OH270342   6.197   2.913   3.214 -0.3291  0.0060  0.2293
16284TIP3    H170343   6.153   2.936   3.133  0.1112  1.5298  0.3874
16284TIP3    H270344   6.261   2.983   3.228  0.9635 -1.2468  0.8831
16285TIP3   OH270345   4.970   3.508   0.586  0.4825  0.0375 -0.8222
16285TIP3    H170346   5.029   3.499   0.510 -2.4457  0.1043 -3.2831
16285TIP3    H270347   4.974   3.601   0.608 -0.1360  0.4417 -2.2777
16286TIP3   OH270348   2.275   5.893   1.189 -0.2434 -0.2039  0.2244
16286TIP3    H170349   2.256   5.947   1.266 -0.3157  0.3699 -0.1852
16286TIP3    H270350   2.249   5.805   1.214  2.0645 -0.5319  1.7666
16287TIP3   OH270351   1.155   5.360   5.087 -0.1924 -0.6365 -0.0241
16287TIP3    H170352   1.137   5.401   5.171 -1.3961  2.0341 -1.4697
16287TIP3    H270353   1.243   5.389   5.064 -0.0708 -0.9338  0.0575
16288TIP3   OH270354   2.550   3.906   0.722 -0.2523  0.1390 -0.1423
16288TIP3    H170355   2.572   3.952   0.803 -0.4333 -0.4493  0.2458
16288TIP3    H270356   2.455   3.910   0.718 -0.2620 -0.1415 -0.1477
16289TIP3   OH270357   1.946   2.245  15.323  0.9671 -0.1200  0.1978
16289TIP3    H170358   1.984   2.316  15.374 -0.3889 -0.4395  1.7514
16289TIP3    H270359   1.942   2.171  15.384  0.9781 -1.1001 -0.9343
16290TIP3   OH270360   3.797   1.905   3.037  0.0277  0.1449 -0.1853
16290TIP3    H170361   3.730   1.869   3.096 -0.2619  0.6689 -0.1890
16290TIP3    H270362   3.835   1.977   3.086  0.9169 -0.4316 -0.0028
16291TIP3   OH270363   2.602   6.035   5.787  0.4532 -0.1916  0.3041
16291TIP3    H170364   2.595   6.116   5.838 -0.0336 -0.3041  0.4188
16291TIP3    H270365   2.695   6.011   5.793  0.8950  1.1003 -0.8704
16292TIP3   OH270366   1.270   3.462   0.728  0.0976  0.0741  0.0059
16292TIP3    H170367   1.302   3.468   0.818  0.0098  0.8065 -0.0033
16292TIP3    H270368   1.350   3.456   0.675  0.1824  0.5968  0.0699
16293TIP3   OH270369   0.140   1.546  13.004 -0.7830  0.3744  0.7478
16293TIP3    H170370   0.064   1.546  13.064 -1.7299  1.4386 -0.3909
16293TIP3    H270371   0.106   1.584  12.923  0.4583 -1.0645 -0.5080
16294TIP3   OH270372   2.272   5.090   3.598 -0.4612 -0.3717 -0.1346
16294TIP3    H170373   2.253   5.094   3.692 -0.9884 -0.9220 -0.2164
16294TIP3    H270374   2.348   5.032   3.592 -1.7092 -2.0346 -0.2241
16295TIP3   OH270375   3.563   6.714  16.619 -0.0432 -0.0270 -0.2184
16295TIP3    H170376   3.541   6.747  16.706 -0.3861 -0.6662 -0.0641
16295TIP3    H270377   3.653   6.682  16.628  0.6690  1.7429 -0.6194
16296TIP3   OH270378   4.176   6.037   3.984  0.1162 -0.4515 -0.1900
16296TIP3    H170379   4.243   6.018   4.049  0.0840 -1.2671 -0.3783
16296TIP3    H270380   4.167   6.132   3.985  0.0969 -0.4587  1.0095
16297TIP3   OH270381   4.103   6.009   3.142  0.3820 -0.2201  0.3098
16297TIP3    H170382   4.043   5.936   3.128  0.5962 -0.2222 -0.6771
16297TIP3    H270383   4.151   6.017   3.060 -0.9894  2.2589 -0.3808
16298TIP3   OH270384   1.831   2.654   6.310 -0.0699  0.1559  0.5549
16298TIP3    H170385   1.846   2.598   6.234 -2.3324  1.1833 -0.7530
16298TIP3    H270386   1.791   2.595   6.375  1.5352 -0.6437  0.8672
16299TIP3   OH270387   2.760   5.642   1.721  0.0644 -0.0691  0.2059
16299TIP3    H170388   2.685   5.584   1.732 -0.3423  0.3834 -0.1571
16299TIP3    H270389   2.836   5.584   1.726 -0.3808 -0.8860 -1.6843
16300TIP3   OH270390   5.349   1.558   1.355  0.2917  0.1581  0.4281
16300TIP3    H170391   5.400   1.638   1.341  0.1397  0.2985  0.6796
16300TIP3    H270392   5.265   1.575   1.314  0.4714 -0.1061 -0.0611
16301TIP3   OH270393   6.759   0.843  15.741  0.5026 -0.0165 -0.0868
16301TIP3    H170394   6.713   0.887  15.813  0.9906 -2.4255  1.8314
16301TIP3    H270395   6.845   0.885  15.739  0.1799  0.6786  0.1228
16302TIP3   OH270396   6.395   2.008   4.750 -0.5712 -0.4052  0.2514
16302TIP3    H170397   6.337   2.014   4.674 -0.3819 -2.7779 -0.1791
16302TIP3    H270398   6.336   1.996   4.825 -0.7415  1.5223  0.4694
16303TIP3   OH270399   6.281   1.402  15.451  0.4347 -0.0999  0.4026
16303TIP3    H170400   6.204   1.395  15.506  0.5702 -0.6588  0.5308
16303TIP3    H270401   6.336   1.468  15.493  0.2756 -0.1054  0.6157
16304TIP3   OH270402   2.092   2.750  10.738 -0.4887 -0.1897  0.6511
16304TIP3    H170403   2.060   2.715  10.821  0.1768 -0.0840  0.9637
16304TIP3    H270404   2.021   2.805  10.705 -1.2922 -1.2911  0.4796
16305TIP3   OH270405   5.148   2.070  16.153  0.4893 -0.0135 -0.3365
16305TIP3    H170406   5.122   1.986  16.116 -1.2061  0.3945 -0.1700
16305TIP3    H270407   5.186   2.047  16.238 -1.3933 -0.5603  0.4181
16306TIP3   OH270408   5.766   1.551   4.093  0.4324 -0.0638 -0.2307
16306TIP3    H170409   5.715   1.534   4.172 -1.3127 -0.4620 -1.3818
16306TIP3    H270410   5.770   1.467   4.048  0.8477  0.2937 -0.8757
16307TIP3   OH270411   4.884   1.255   4.094 -0.3949 -0.1778  0.3448
16307TIP3    H170412   4.964   1.232   4.046  0.3655  1.0408  0.9879
16307TIP3    H270413   4.854   1.172   4.130  1.9895 -0.3568  2.1815
16308TIP3   OH270414   3.319   5.760  16.243 -1.1259  0.0256 -0.0581
16308TIP3    H170415   3.315   5.694  16.175 -1.5986 -1.4778  1.3726
16308TIP3    H270416   3.360   5.717  16.318  0.2652  1.9063  0.3500
16309TIP3   OH270417   4.611   5.196  10.593 -0.3061  0.2229 -0.9272
16309TIP3    H170418   4.532   5.186  10.539  1.0850 -0.2041 -3.0162
16309TIP3    H270419   4.661   5.264  10.549  1.1531 -0.5501 -0.5283
16310TIP3   OH270420   6.238   0.358   1.787 -0.4980  0.2659 -0.2401
16310TIP3    H170421   6.145   0.333   1.788 -1.0031  1.7377 -3.0195
16310TIP3    H270422   6.252   0.397   1.701  2.9675 -0.7572 -0.2843
16311TIP3   OH270423   5.177   1.255   3.906 -0.0912  0.0734 -0.3390
16311TIP3    H170424   5.190   1.185   3.970 -0.7732  0.2566  0.0148
16311TIP3    H270425   5.187   1.213   3.821  1.0534 -0.1305 -0.1224
16312TIP3   OH270426   4.668   4.832  12.998 -0.0243  0.7210  0.3517
16312TIP3    H170427   4.642   4.924  13.000  2.5514  1.5467 -0.3741
16312TIP3    H270428   4.724   4.821  13.075 -2.0024 -0.8693  1.6556
16313TIP3   OH270429   5.589   4.024   1.026 -0.0712 -0.5156 -0.3665
16313TIP3    H170430   5.535   3.946   1.015 -0.3444 -0.6216  1.3987
16313TIP3    H270431   5.654   4.000   1.093 -0.2380  0.7744  0.3087
16314TIP3   OH270432   3.746   4.801  15.237  0.6702 -0.0087 -0.1694
16314TIP3    H170433   3.694   4.721  15.239 -2.7080  1.9470  1.7135
16314TIP3    H270434   3.835   4.773  15.220 -0.4656 -4.0229 -0.3893
16315TIP3   OH270435   5.585   0.010  14.075 -0.1203  0.2934 -0.0717
16315TIP3    H170436   5.594  -0.041  14.156  1.2147  1.7483  0.7730
16315TIP3    H270437   5.645  -0.032  14.014 -0.9504 -0.6684 -0.2535
16316TIP3   OH270438   5.909   2.881   3.061 -0.0903 -0.7726  0.2277
16316TIP3    H170439   5.878   2.933   3.136 -3.0006 -0.4688 -1.0592
16316TIP3    H270440   5.891   2.791   3.086 -0.6637 -0.7024  0.0804
16317TIP3   OH270441   0.902   6.154   1.654 -0.0077  0.2140 -0.1830
16317TIP3    H170442   0.844   6.093   1.608  0.0514  0.7012 -0.9099
16317TIP3    H270443   0.856   6.237   1.653  1.0798  0.8410 -1.5906
16318TIP3   OH270444   0.057   1.190  14.150 -0.2752 -0.6696  0.0538
16318TIP3    H170445   0.119   1.169  14.080 -0.6665  1.0683 -0.8534
16318TIP3    H270446   0.107   1.244  14.211 -0.7480  0.4298 -0.4967
16319TIP3   OH270447   5.157   5.286  15.563 -0.1867 -0.2965 -0.0600
16319TIP3    H170448   5.175   5.204  15.517 -1.3838 -0.7270  0.2039
16319TIP3    H270449   5.125   5.345  15.496  0.0640 -0.2486 -0.1384
16320TIP3   OH270450   5.951   2.050   2.796 -0.5970  0.1088 -0.3836
16320TIP3    H170451   5.924   2.072   2.885 -0.1297 -0.1388 -0.1763
16320TIP3    H270452   5.903   2.112   2.741 -1.4231 -0.1849 -0.0143
16321TIP3   OH270453   4.114   2.832   0.528 -0.0970 -0.3155 -0.4590
16321TIP3    H170454   4.131   2.803   0.439 -1.7449  0.2657 -0.9855
16321TIP3    H270455   4.115   2.927   0.523  1.4600 -0.2466  0.5001
16322TIP3   OH270456   2.261   1.183   5.527  0.1628  0.2332  0.7298
16322TIP3    H170457   2.286   1.151   5.440 -1.1267  0.7073  0.1597
16322TIP3    H270458   2.219   1.268   5.511 -0.1346  0.3099  1.8082
16323TIP3   OH270459   0.905   5.703   3.379  0.4162 -0.2543 -0.2779
16323TIP3    H170460   0.995   5.722   3.407  0.0585  1.3535 -0.1093
16323TIP3    H270461   0.851   5.724   3.456 -0.1706 -0.6105 -0.5834
16324TIP3   OH270462   4.997   2.320   6.066 -0.1288  0.0892 -0.4212
16324TIP3    H170463   5.026   2.318   6.158 -2.2887 -1.4426  0.2991
16324TIP3    H270464   5.043   2.247   6.025  1.9589  1.6223 -1.0330
16325TIP3   OH270465   2.920   4.682  12.636  0.2727 -0.5146  0.0032
16325TIP3    H170466   2.997   4.710  12.586  0.4728  1.7489  1.4384
16325TIP3    H270467   2.952   4.672  12.726 -1.1096  0.7016  0.6697
16326TIP3   OH270468   1.909   1.650   0.731 -0.0264 -0.3829  0.1344
16326TIP3    H170469   1.906   1.623   0.639 -1.1424 -0.7428  0.2642
16326TIP3    H270470   1.964   1.728   0.731 -1.2801  0.5437 -1.0875
16327TIP3   OH270471   1.500   3.299   4.238  0.0391  0.3000 -0.5928
16327TIP3    H170472   1.439   3.249   4.293 -0.2855  1.2417 -0.0718
16327TIP3    H270473   1.583   3.296   4.285  0.4478 -1.0116 -1.3191
16328TIP3   OH270474   5.781   5.029  16.524 -0.0479  0.6721  0.2172
16328TIP3    H170475   5.834   5.109  16.516 -0.6304  1.0728  0.3056
16328TIP3    H270476   5.784   4.990  16.437 -1.3934  1.8482 -0.4018
16329TIP3   OH270477   0.235   5.554   2.035 -0.7849 -0.5768  0.1888
16329TIP3    H170478   0.269   5.534   2.122 -1.1149 -2.1036 -0.0044
16329TIP3    H270479   0.260   5.479   1.982 -1.2368 -0.0033 -0.8555
16330TIP3   OH270480   5.679   3.732   2.228 -0.0218 -0.1023 -0.1081
16330TIP3    H170481   5.741   3.770   2.165  0.0236 -0.5913 -0.3630
16330TIP3    H270482   5.728   3.729   2.310 -0.5387  1.8485  0.3192
16331TIP3   OH270483   5.318   1.658  15.671  0.2986 -0.0321  0.0096
16331TIP3    H170484   5.299   1.664  15.577  2.1651 -2.9998 -0.6721
16331TIP3    H270485   5.247   1.604  15.706 -0.0588  0.5566  0.2038
16332TIP3   OH270486   0.519   6.431  12.372  0.1325  0.3392 -0.1811
16332TIP3    H170487   0.535   6.369  12.443  1.7539  0.4566 -0.3840
16332TIP3    H270488   0.550   6.515  12.407  0.5884  0.4686 -0.8726
16333TIP3   OH270489   1.167   5.859  12.328  0.1406 -0.6064 -0.1099
16333TIP3    H170490   1.083   5.814  12.329  0.3285 -0.9616 -0.3058
16333TIP3    H270491   1.223   5.807  12.385  0.2023 -0.3202  0.0918
16334TIP3   OH270492   5.977   0.742  15.585 -0.2581 -0.0922 -0.5391
16334TIP3    H170493   6.012   0.673  15.642  1.4802 -0.5530 -2.0611
16334TIP3    H270494   5.886   0.752  15.613  0.7030  0.3989  2.9269
16335TIP3   OH270495   3.630   6.485   1.884  0.6022  0.1652  0.1648
16335TIP3    H170496   3.695   6.490   1.954  0.8050  1.4754 -0.0973
16335TIP3    H270497   3.554   6.533   1.918  0.1839 -0.3955  0.0304
16336TIP3   OH270498   2.221   4.530  16.860 -0.3642 -0.1851 -0.3772
16336TIP3    H170499   2.212   4.553  16.953 -1.1367  0.4128 -0.5810
16336TIP3    H270500   2.229   4.614  16.815  0.7816 -0.5045 -0.7884
16337TIP3   OH270501   2.507   3.638   2.581  0.3551 -0.2103  0.3894
16337TIP3    H170502   2.444   3.568   2.596 -0.9703  0.8811  0.1232
16337TIP3    H270503   2.495   3.660   2.488  0.7796  0.3353  0.4625
16338TIP3   OH270504   5.800   2.601  15.618 -0.1747 -0.3135 -0.1071
16338TIP3    H170505   5.849   2.529  15.657  0.8365  0.5110  0.2110
16338TIP3    H270506   5.709   2.580  15.635  0.1650 -0.8627  1.1640
16339TIP3   OH270507   0.346   1.032   5.676  0.1029 -0.4336 -0.6736
16339TIP3    H170508   0.355   1.128   5.679 -0.9348 -0.3411  0.9838
16339TIP3    H270509   0.418   0.999   5.729 -0.9784 -0.4001  0.8881
16340TIP3   OH270510   4.705   5.650  13.359  0.1562  0.5312 -0.0869
16340TIP3    H170511   4.663   5.688  13.436 -0.1313 -0.8450  0.4553
16340TIP3    H270512   4.645   5.671  13.287  0.7346  2.3838 -0.0989
16341TIP3   OH270513   2.078   6.103   1.069  0.1649  0.1904 -0.2523
16341TIP3    H170514   2.143   6.139   1.008  1.1469  2.9770  2.1886
16341TIP3    H270515   2.121   6.028   1.110  1.1927  0.9408  0.0717
16342TIP3   OH270516   1.264   1.028  14.380 -0.8706  0.2359 -0.6057
16342TIP3    H170517   1.243   1.039  14.472 -1.4954  0.3077 -0.7541
16342TIP3    H270518   1.201   0.964  14.348  1.1252 -2.0396 -0.3302
16343TIP3   OH270519   6.573   4.074  14.050 -0.0740 -0.5419 -0.0888
16343TIP3    H170520   6.582   3.985  14.016  1.8968 -0.9070  1.2241
16343TIP3    H270521   6.560   4.063  14.144 -1.1582  0.5584 -0.0780
16344TIP3   OH270522   2.290   2.444  13.033  0.6758 -0.3670  0.3610
16344TIP3    H170523   2.356   2.471  12.969  0.3848 -0.6032 -0.0442
16344TIP3    H270524   2.339   2.399  13.101  1.4055  2.3193  1.7874
16345TIP3   OH270525   2.465   2.526   3.788  0.1819  0.2245  0.1427
16345TIP3    H170526   2.428   2.590   3.727  0.9974  1.0403  0.4780
16345TIP3    H270527   2.409   2.530   3.865  0.3480  0.6905  0.2411
16346TIP3   OH270528   3.339   2.852   0.874  0.4014  0.0131  0.5803
16346TIP3    H170529   3.388   2.817   0.800  0.3819 -1.9735  1.4557
16346TIP3    H270530   3.252   2.812   0.867 -0.2593  1.3565  0.6044
16347TIP3   OH270531   3.931   4.991  13.519 -0.1781 -0.1979  0.3229
16347TIP3    H170532   3.885   4.930  13.577 -2.0110  0.1352 -0.6999
16347TIP3    H270533   3.863   5.052  13.489  0.8308  0.0214 -1.6751
16348TIP3   OH270534   6.268   3.261  13.775  0.4082 -0.5308 -0.5138
16348TIP3    H170535   6.346   3.210  13.796  2.6439  1.5207 -3.0189
16348TIP3    H270536   6.221   3.208  13.711  1.0274 -0.8001 -0.7521
16349TIP3   OH270537   6.539   6.522  13.076  0.5194  0.0947  0.1183
16349TIP3    H170538   6.491   6.450  13.119  0.3209 -0.9777 -1.7753
16349TIP3    H270539   6.567   6.578  13.148 -1.1330 -0.7586  1.5196
16350TIP3   OH270540   5.849   5.183  15.417  0.5381 -0.0671  0.0930
16350TIP3    H170541   5.777   5.197  15.478  1.4206 -0.7523  1.3547
16350TIP3    H270542   5.906   5.259  15.430  1.1169 -0.5998  0.7129
16351TIP3   OH270543   5.182   5.641  16.981 -0.1676 -0.4254 -0.3532
16351TIP3    H170544   5.201   5.550  17.003  0.0741 -0.1538  0.6209
16351TIP3    H270545   5.248   5.665  16.916  0.4115 -0.6451  0.1421
16352TIP3   OH270546   2.087   5.225  12.096  0.2465  0.5222 -0.1293
16352TIP3    H170547   2.159   5.221  12.032  0.1950  2.6758 -0.3749
16352TIP3    H270548   2.066   5.133  12.113  3.5177 -0.2538  0.4812
16353TIP3   OH270549   5.964   2.611  14.936  0.1874  0.3104 -0.3030
16353TIP3    H170550   5.903   2.672  14.976  0.8871  1.3609 -0.8044
16353TIP3    H270551   6.036   2.604  14.999 -0.9738 -1.9391  0.9047
16354TIP3   OH270552   5.305   4.515  15.836 -0.0492  0.2297  0.4811
16354TIP3    H170553   5.344   4.501  15.922 -0.7173  1.5202  1.0167
16354TIP3    H270554   5.277   4.607  15.837  3.1447  1.4297 -2.4224
16355TIP3   OH270555   6.061   2.333   2.415 -0.1609 -0.4730  0.1971
16355TIP3    H170556   6.105   2.280   2.482 -0.1137  1.8090  2.1161
16355TIP3    H270557   6.132   2.363   2.358 -0.2795 -3.0181 -1.4817
16356TIP3   OH270558   4.728   4.092   0.716  0.1058  0.3812 -0.2481
16356TIP3    H170559   4.738   4.120   0.625  1.7924  0.8335  0.0377
16356TIP3    H270560   4.635   4.073   0.726 -0.3044  1.4740 -1.7387
16357TIP3   OH270561   4.086   3.027  10.237  0.3829  0.2430  0.7621
16357TIP3    H170562   4.018   3.044  10.301  0.5316  1.3535  0.6452
16357TIP3    H270563   4.086   3.104  10.180 -0.2537 -1.0267 -1.0441
16358TIP3   OH270564   6.583   6.810  14.333 -0.0754  0.3281  0.2982
16358TIP3    H170565   6.625   6.868  14.396  0.2020 -0.4827  0.8870
16358TIP3    H270566   6.647   6.799  14.263 -0.6766  1.8333 -0.5312
16359TIP3   OH270567   1.517   3.888  16.103 -0.2459 -0.1057  0.3198
16359TIP3    H170568   1.512   3.961  16.040  0.0527 -1.3630 -1.2281
16359TIP3    H270569   1.549   3.928  16.183 -0.0405  1.4626 -0.4970
16360TIP3   OH270570   0.518   4.537  12.230  0.1438  0.2185 -0.2317
16360TIP3    H170571   0.597   4.503  12.274  0.5701 -1.3531 -2.0847
16360TIP3    H270572   0.447   4.516  12.290  0.7960 -1.1534  0.1090
16361TIP3   OH270573   1.126   3.453  16.084 -0.1052 -0.2508  0.3648
16361TIP3    H170574   1.190   3.498  16.138  0.6913 -0.0480 -0.7158
16361TIP3    H270575   1.123   3.503  16.003 -0.8798 -0.8531  0.0040
16362TIP3   OH270576   1.319   0.637   3.173  0.6712 -0.4471 -0.4367
16362TIP3    H170577   1.407   0.637   3.212  0.1897  0.7529  0.6894
16362TIP3    H270578   1.307   0.726   3.141 -0.7683 -0.1042  0.9329
16363TIP3   OH270579   3.865   4.841   0.030 -0.1738 -0.1318 -0.6229
16363TIP3    H170580   3.783   4.861   0.076 -0.6750 -0.9713 -1.1098
16363TIP3    H270581   3.934   4.860   0.093 -0.7865 -0.0590  0.0380
16364TIP3   OH270582   2.435   1.045  17.130  0.4429  0.1637 -0.3947
16364TIP3    H170583   2.512   1.075  17.082 -1.1774  1.0822 -2.5535
16364TIP3    H270584   2.406   0.967  17.083 -0.5047  0.3906 -0.1992
16365TIP3   OH270585   2.008   5.259  14.990 -0.0501  0.2797  0.1152
16365TIP3    H170586   1.983   5.268  15.082  2.2601 -0.0829  0.8339
16365TIP3    H270587   1.926   5.272  14.941 -1.3463  0.3465  2.2063
16366TIP3   OH270588   0.790   2.193  13.260 -0.3212  0.1060 -0.7829
16366TIP3    H170589   0.791   2.284  13.288 -0.0594 -0.1347 -0.0057
16366TIP3    H270590   0.700   2.178  13.231 -0.5714  0.3919 -0.1672
16367TIP3   OH270591   4.977   5.430  16.244 -1.0311 -0.6199  0.4993
16367TIP3    H170592   4.897   5.389  16.212 -0.9316  0.1721 -0.8691
16367TIP3    H270593   4.988   5.508  16.189  0.8871 -0.9293  0.3571
16368TIP3   OH270594   3.407   1.662   0.705  0.1153  0.5930  0.7411
16368TIP3    H170595   3.458   1.696   0.632  0.5101  1.8053  1.5369
16368TIP3    H270596   3.467   1.604   0.752 -0.0632  0.0036  0.2501
16369TIP3   OH270597   1.384   4.276  13.928 -0.2624 -0.2865 -0.3043
16369TIP3    H170598   1.338   4.352  13.894 -1.0728 -1.3235 -1.6203
16369TIP3    H270599   1.466   4.273  13.878  0.8984  1.0340  1.4017
16370TIP3   OH270600   2.250   4.273   0.474  0.7369  0.2800 -0.1518
16370TIP3    H170601   2.187   4.335   0.437  1.2304 -0.6052 -2.6286
16370TIP3    H270602   2.335   4.317   0.466  0.7339  0.5980  1.2176
16371TIP3   OH270603   4.611   4.972   4.254 -0.1740 -0.1001 -0.0064
16371TIP3    H170604   4.695   4.965   4.210  0.6971 -0.3102  1.6191
16371TIP3    H270605   4.547   4.941   4.190  0.9866 -0.0363 -1.2265
16372TIP3   OH270606   4.404   0.700  14.734  0.1436  0.7608  0.8644
16372TIP3    H170607   4.485   0.671  14.691 -0.5844  0.8235 -0.5809
16372TIP3    H270608   4.411   0.664  14.823  1.9536  1.1379  0.9274
16373TIP3   OH270609   3.605   1.494   5.224 -0.1726  0.7084 -0.6814
16373TIP3    H170610   3.674   1.546   5.264 -0.8633  0.8794  0.3319
16373TIP3    H270611   3.621   1.502   5.130  1.2796  0.5829 -0.4664
16374TIP3   OH270612   5.511   0.160   2.565  0.2012  0.0400 -0.2183
16374TIP3    H170613   5.434   0.204   2.527 -0.2952 -0.2356  0.4565
16374TIP3    H270614   5.555   0.121   2.490  0.1946  0.9808 -0.7355
16375TIP3   OH270615   0.183   3.547   1.636 -0.2598  0.1535 -0.4622
16375TIP3    H170616   0.237   3.529   1.713  0.1400  1.6511 -0.3695
16375TIP3    H270617   0.133   3.466   1.623  1.9647 -1.3146 -0.5375
16376TIP3   OH270618   1.383   3.342   3.506  0.3851  0.4522 -0.1856
16376TIP3    H170619   1.333   3.412   3.548  0.2595  2.3557 -3.2135
16376TIP3    H270620   1.474   3.369   3.514  0.5146 -0.1213  0.3929
16377TIP3   OH270621   2.453   0.036  13.560 -0.2451  0.2087 -0.2869
16377TIP3    H170622   2.546   0.015  13.556 -0.0501  0.3199  2.3271
16377TIP3    H270623   2.417  -0.027  13.622 -1.4967  1.5087  0.3678
16378TIP3   OH270624   5.618   5.855   4.089  0.3330  0.2790 -0.2658
16378TIP3    H170625   5.589   5.791   4.023  0.9273 -0.8062  0.4932
16378TIP3    H270626   5.633   5.803   4.168 -1.0456  1.6456  0.9639
16379TIP3   OH270627   4.639   6.652   0.586 -0.1011 -0.4642  0.0687
16379TIP3    H170628   4.693   6.709   0.530  0.1492  0.6250  1.3514
16379TIP3    H270629   4.569   6.621   0.529 -0.7793  1.8938 -0.5165
16380TIP3   OH270630   1.772   5.108  14.526  0.3235  0.7762  0.1642
16380TIP3    H170631   1.781   5.033  14.467  0.8141  2.2239 -1.7141
16380TIP3    H270632   1.859   5.119  14.564  0.3387  0.5966  0.1822
16381TIP3   OH270633   2.522   4.003  16.490 -0.9763  0.4844  0.3132
16381TIP3    H170634   2.466   4.038  16.558 -1.2240  1.5207 -0.4154
16381TIP3    H270635   2.593   3.959  16.538 -2.1399 -0.4580  1.2315
16382TIP3   OH270636   1.226   1.671  11.775 -0.0043  0.1574  0.8173
16382TIP3    H170637   1.305   1.723  11.767  0.3804 -0.7205 -3.6327
16382TIP3    H270638   1.257   1.585  11.804  0.0043  0.8950  3.1882
16383TIP3   OH270639   5.698   5.776  14.316 -0.4387 -0.3129  0.4283
16383TIP3    H170640   5.710   5.861  14.273 -0.6386 -0.4130  0.1741
16383TIP3    H270641   5.779   5.728  14.296 -0.8655 -0.6544 -0.5191
16384TIP3   OH270642   3.868   6.772  12.821 -0.4263 -0.3446  0.0242
16384TIP3    H170643   3.825   6.788  12.737 -0.1761  0.3047  0.0133
16384TIP3    H270644   3.911   6.687  12.811  1.8519  0.8809 -1.4702
16385TIP3   OH270645   0.686   6.208   5.644  0.0442  0.1044 -0.2966
16385TIP3    H170646   0.716   6.213   5.734  1.5374  0.1520 -0.7704
16385TIP3    H270647   0.760   6.239   5.592 -0.3597 -1.0236 -1.6085
16386TIP3   OH270648   1.394   0.602  16.395 -0.2080  0.1024 -0.2251
16386TIP3    H170649   1.312   0.556  16.408 -0.5838  1.2091  1.7250
16386TIP3    H270650   1.460   0.545  16.434 -0.4069  0.3445  0.4721
16387TIP3   OH270651   3.936   1.647  12.072 -0.6880  0.3753  0.2385
16387TIP3    H170652   4.006   1.658  12.137  0.8953  0.2830 -1.3580
16387TIP3    H270653   3.882   1.576  12.107 -0.8958  1.4433  2.2383
16388TIP3   OH270654   4.753   5.644   3.634  0.8010  0.0950  0.2225
16388TIP3    H170655   4.711   5.710   3.579  0.0989 -0.0438  0.5834
16388TIP3    H270656   4.720   5.561   3.601  1.7525 -0.0942 -0.2896
16389TIP3   OH270657   3.740   4.709  16.096 -0.4568 -0.0187  0.1857
16389TIP3    H170658   3.730   4.768  16.022  2.6947 -2.2965 -2.3207
16389TIP3    H270659   3.658   4.659  16.098 -1.3341  1.3358 -0.5011
16390TIP3   OH270660   5.285   4.556  12.967  0.4366  0.0943  0.1173
16390TIP3    H170661   5.345   4.514  12.906  0.1022  0.3757 -0.4162
16390TIP3    H270662   5.322   4.643  12.981 -0.3857  0.6588 -1.0460
16391TIP3   OH270663   3.495   1.495  14.347  0.7132 -0.6611  0.4305
16391TIP3    H170664   3.550   1.558  14.394  0.0858 -0.0006  0.3016
16391TIP3    H270665   3.406   1.515  14.377  0.3085 -0.2838 -0.9480
16392TIP3   OH270666   2.229   6.265   4.369 -0.2012  0.4095 -0.2400
16392TIP3    H170667   2.224   6.197   4.437  0.2782  0.1501 -0.4637
16392TIP3    H270668   2.266   6.341   4.414  0.2328  0.1992 -0.2380
16393TIP3   OH270669   3.940   0.089  16.594  0.0784  0.0326 -0.3787
16393TIP3    H170670   3.871   0.154  16.583  0.7824  1.2031  1.5268
16393TIP3    H270671   4.022   0.138  16.584  0.6364 -0.2967  1.8742
16394TIP3   OH270672   3.596   0.188  11.701 -0.6911 -0.5680 -0.0787
16394TIP3    H170673   3.533   0.190  11.629 -1.7432 -1.2995  0.7851
16394TIP3    H270674   3.676   0.225  11.664 -1.3798 -0.3775 -1.4441
16395TIP3   OH270675   2.945   2.946  14.920  0.3308  0.3872 -0.3412
16395TIP3    H170676   2.992   2.964  15.002  1.0843 -0.0444 -0.6629
16395TIP3    H270677   2.853   2.939  14.946  0.4846  0.8907  0.3688
16396TIP3   OH270678   2.227   4.422   0.760 -0.4996 -0.3108 -0.3399
16396TIP3    H170679   2.225   4.376   0.676  1.1858  1.5553 -1.4935
16396TIP3    H270680   2.190   4.360   0.823 -0.9707 -2.1015 -2.2956
16397TIP3   OH270681   6.134   5.951  11.857 -0.7294  0.4393  0.4529
16397TIP3    H170682   6.122   6.025  11.797  0.7412  1.3295  1.1849
16397TIP3    H270683   6.224   5.923  11.842 -0.8483 -0.3376  1.1376
16398TIP3   OH270684   3.436   2.800  11.649  0.3151 -0.0723  0.4506
16398TIP3    H170685   3.392   2.717  11.667  0.2082 -0.2272 -0.4750
16398TIP3    H270686   3.465   2.793  11.558  1.0860  0.5568  0.6364
16399TIP3   OH270687   2.198   1.700  15.582 -0.3615 -0.0317 -0.3883
16399TIP3    H170688   2.270   1.668  15.527 -1.5914 -0.4313 -1.8418
16399TIP3    H270689   2.124   1.644  15.559 -1.6971  1.6879 -0.5051
16400TIP3   OH270690   5.412   0.967  15.379 -0.5475 -0.2788  0.3520
16400TIP3    H170691   5.416   0.977  15.284  0.6259  0.8875  0.4951
16400TIP3    H270692   5.503   0.957  15.406 -0.7489  0.5949  1.4454
16401TIP3   OH270693   5.718   0.398   2.324 -0.4655 -0.0783  0.0322
16401TIP3    H170694   5.642   0.370   2.274  0.3489  0.6961 -1.7289
16401TIP3    H270695   5.732   0.329   2.388 -3.5212  0.4344  1.4580
16402TIP3   OH270696   3.352   1.878   5.408 -0.0120  0.1068  0.0294
16402TIP3    H170697   3.447   1.885   5.407 -0.0245  0.8051  1.5183
16402TIP3    H270698   3.327   1.882   5.315  1.3837  0.0112 -0.3778
16403TIP3   OH270699   2.057   6.389  10.663 -1.2344 -0.2173 -0.0627
16403TIP3    H170700   2.051   6.297  10.687  2.4080 -0.0035  2.5888
16403TIP3    H270701   1.990   6.432  10.715 -1.4070 -1.1460  0.5102
16404TIP3   OH270702   0.814   1.072  15.977  0.1864  0.0903  0.6240
16404TIP3    H170703   0.886   1.090  16.038 -1.1580  2.7267  1.5929
16404TIP3    H270704   0.818   1.144  15.913 -0.2661 -0.9784 -0.6505
16405TIP3   OH270705   1.099   0.995   2.449  0.0198 -0.1139 -0.0102
16405TIP3    H170706   1.143   0.991   2.364 -0.7673  1.6905 -0.5581
16405TIP3    H270707   1.143   1.066   2.496 -1.0198  0.4409  0.1695
16406TIP3   OH270708   3.939   0.044  16.948  0.1424  0.2389  0.0628
16406TIP3    H170709   4.007  -0.003  16.900  1.1549  0.9709  0.7416
16406TIP3    H270710   3.971   0.049  17.038 -1.6132 -0.8885  0.8041
16407TIP3   OH270711   5.510   5.630  14.203  0.3410  0.0268  0.1278
16407TIP3    H170712   5.583   5.665  14.253 -0.6451  1.3639  0.6993
16407TIP3    H270713   5.503   5.688  14.127 -0.3205  0.1504  0.2684
16408TIP3   OH270714   6.429   5.089   1.910  0.0085  0.2629  0.2360
16408TIP3    H170715   6.357   5.149   1.891 -1.8661 -1.7296  0.6702
16408TIP3    H270716   6.462   5.118   1.995 -1.5295  0.1384  0.9087
16409TIP3   OH270717   6.261   5.526  13.164 -0.0602  0.1459 -0.1720
16409TIP3    H170718   6.246   5.441  13.123 -2.0474  1.1322 -1.7050
16409TIP3    H270719   6.314   5.574  13.100  0.2660  0.3699  0.2631
16410TIP3   OH270720   4.897   4.874  10.808 -0.4810  0.4720 -0.1909
16410TIP3    H170721   4.939   4.937  10.749  1.5789 -0.7651 -0.1122
16410TIP3    H270722   4.937   4.889  10.893 -0.3442 -0.5947 -0.0560
16411TIP3   OH270723   0.447   3.908   3.492 -0.3074 -0.4317  0.0993
16411TIP3    H170724   0.537   3.908   3.459 -0.5192  0.0767 -0.4792
16411TIP3    H270725   0.457   3.911   3.587  0.3010 -1.7955  0.1032
16412TIP3   OH270726   3.444   0.973  10.966 -0.1070 -0.2686  0.3848
16412TIP3    H170727   3.436   0.919  11.045 -2.4410 -1.2570 -0.4316
16412TIP3    H270728   3.427   0.913  10.894  3.9674  0.1405 -1.1628
16413TIP3   OH270729   3.975   1.469   5.608  0.2678  0.1000  1.0221
16413TIP3    H170730   4.021   1.388   5.586 -0.8613 -0.9878  2.4783
16413TIP3    H270731   3.883   1.446   5.605 -0.3778  2.3877 -2.4301
16414TIP3   OH270732   2.871   0.254   0.286  0.3861  0.1278 -0.2310
16414TIP3    H170733   2.817   0.326   0.319 -0.7157  0.3384 -2.3399
16414TIP3    H270734   2.873   0.267   0.191 -0.8569 -3.2576 -0.8568
16415TIP3   OH270735   0.575   0.703  11.802  0.2247 -0.2244 -0.3430
16415TIP3    H170736   0.533   0.623  11.833 -0.8750  0.2552 -0.5239
16415TIP3    H270737   0.619   0.677  11.721  0.1510 -0.7165 -0.2299
16416TIP3   OH270738   3.505   3.852  15.605 -0.7907  0.6978  0.0471
16416TIP3    H170739   3.424   3.899  15.622 -1.1947  0.4685 -1.1517
16416TIP3    H270740   3.502   3.830  15.512  1.5019  2.3410 -0.5040
16417TIP3   OH270741   0.385   0.021  15.019 -0.2311 -0.2854 -0.1570
16417TIP3    H170742   0.437   0.086  14.972  0.4440  0.1917  1.1643
16417TIP3    H270743   0.309   0.069  15.052  0.4904 -0.0056  1.1965
16418TIP3   OH270744   3.025   2.152   6.380  0.3930 -0.0264 -0.1767
16418TIP3    H170745   2.967   2.135   6.306  0.1581  4.3090 -1.2826
16418TIP3    H270746   2.966   2.168   6.453  0.4528 -0.7307  0.0272
16419TIP3   OH270747   0.015   3.506   4.444 -0.3437 -0.1777  0.2355
16419TIP3    H170748  -0.073   3.534   4.416  0.0559  0.5537 -0.3055
16419TIP3    H270749   0.073   3.536   4.375  0.3389 -0.7021  0.5710
16420TIP3   OH270750   2.121   3.447   0.381 -0.5295 -0.8625  0.1170
16420TIP3    H170751   2.134   3.394   0.460  1.2448  0.4042  0.7160
16420TIP3    H270752   2.202   3.437   0.332 -0.7832  0.0679 -0.5154
16421TIP3   OH270753   4.358   6.603   3.002  0.2377 -0.0722 -0.1788
16421TIP3    H170754   4.407   6.550   3.064  1.2010  0.2652 -0.6299
16421TIP3    H270755   4.406   6.686   2.998 -1.5553  1.0910  0.9679
16422TIP3   OH270756   5.955   4.687  14.856  0.0741  0.4472  0.5445
16422TIP3    H170757   5.992   4.774  14.843  1.7213 -0.2678  0.2037
16422TIP3    H270758   5.869   4.703  14.896  0.2546  2.2149  0.3003
16423TIP3   OH270759   2.170   2.722  16.735 -0.5470 -0.1039 -0.6757
16423TIP3    H170760   2.249   2.712  16.788  0.0288  2.0041 -1.0314
16423TIP3    H270761   2.192   2.791  16.672 -1.9045 -1.0986 -2.3156
16424TIP3   OH270762   2.538   2.935   2.228 -0.1524 -0.0179 -0.4640
16424TIP3    H170763   2.514   2.953   2.319 -0.0356 -0.4617 -0.3435
16424TIP3    H270764   2.632   2.919   2.230 -0.1016  0.2417 -0.7062
16425TIP3   OH270765   4.605   1.763   5.157  0.4579 -0.4370 -0.0548
16425TIP3    H170766   4.614   1.669   5.169 -0.5036 -1.0631 -3.2609
16425TIP3    H270767   4.684   1.800   5.195  0.2095 -2.3406  2.5532
16426TIP3   OH270768   5.415   5.071  14.335  0.1383 -0.4868 -0.3375
16426TIP3    H170769   5.455   4.986  14.319 -1.1471 -1.3733  0.8216
16426TIP3    H270770   5.429   5.086  14.429 -0.7966 -0.0657 -0.2547
16427TIP3   OH270771   3.673   3.020  14.599  0.1616  0.3789  0.0592
16427TIP3    H170772   3.766   3.027  14.580  0.2511  2.2552  1.0127
16427TIP3    H270773   3.636   2.980  14.520  1.3037  2.6797 -1.7501
16428TIP3   OH270774   0.908   5.470  11.023  0.9373  0.2557 -0.3737
16428TIP3    H170775   0.884   5.447  10.933 -0.5483 -1.0569  0.3187
16428TIP3    H270776   0.924   5.564  11.020 -1.7673  0.7676 -1.5143
16429TIP3   OH270777   0.182   2.571  12.652  0.1980  0.4235  0.0052
16429TIP3    H170778   0.151   2.543  12.566 -0.0224  1.7479 -0.3833
16429TIP3    H270779   0.129   2.521  12.714 -0.0351 -0.1356 -0.6346
16430TIP3   OH270780   4.149   3.118   1.840 -0.0447  0.2955  0.5155
16430TIP3    H170781   4.076   3.130   1.780  0.0388  0.2900  0.4128
16430TIP3    H270782   4.226   3.145   1.790  0.1029 -0.3110  0.3996
16431TIP3   OH270783   0.318   3.732   2.549  0.2093 -0.5471  0.1440
16431TIP3    H170784   0.327   3.774   2.464 -2.1031  0.0295  0.1305
16431TIP3    H270785   0.230   3.755   2.579  0.7381 -1.2120  2.4409
16432TIP3   OH270786   4.280   6.212  10.902 -0.2343 -0.2892  0.0340
16432TIP3    H170787   4.282   6.167  10.986  0.2150  0.7640  0.6036
16432TIP3    H270788   4.315   6.148  10.840 -1.0924 -1.2728  0.5344
16433TIP3   OH270789   5.668   4.067  11.398 -0.0160 -0.0238 -0.5453
16433TIP3    H170790   5.693   3.977  11.378  1.1182 -0.0334  0.7811
16433TIP3    H270791   5.740   4.121  11.365  0.9320  0.1001  1.5097
16434TIP3   OH270792   6.168   5.126   2.151 -0.3431  0.4326  0.5533
16434TIP3    H170793   6.133   5.052   2.200 -0.8663 -0.2624 -0.7979
16434TIP3    H270794   6.106   5.198   2.167  0.1808  0.6125  1.8895
16435TIP3   OH270795   0.340   6.339  11.922 -0.2062 -0.1363 -0.0085
16435TIP3    H170796   0.345   6.374  12.011 -0.6782  1.3898 -0.5477
16435TIP3    H270797   0.246   6.325  11.907 -0.0458 -1.4590  0.1055
16436TIP3   OH270798   5.281   3.445   1.110 -0.2636 -0.5645  0.4865
16436TIP3    H170799   5.315   3.452   1.021  2.0274 -1.2047  1.2518
16436TIP3    H270800   5.186   3.441   1.099  0.0293 -2.6116 -2.0664
16437TIP3   OH270801   0.433   3.259  15.396  0.4317  0.3422 -0.1140
16437TIP3    H170802   0.404   3.321  15.329 -0.8039  0.7789  0.7693
16437TIP3    H270803   0.418   3.306  15.479  2.8751  0.2252  0.4615
16438TIP3   OH270804   2.130   4.307   2.792  0.6012 -0.0620  0.2725
16438TIP3    H170805   2.122   4.353   2.875 -2.1034 -0.3566  0.2513
16438TIP3    H270806   2.111   4.215   2.813 -1.3287  0.0434 -0.7869
16439TIP3   OH270807   2.263   2.910  13.090 -0.5111 -0.6472 -0.6453
16439TIP3    H170808   2.291   2.860  13.167 -2.7856  0.2224  0.8502
16439TIP3    H270809   2.258   3.000  13.121 -1.0677 -0.2184 -1.9331
16440TIP3   OH270810   3.779   4.138   3.378 -0.3943 -0.1850 -0.0126
16440TIP3    H170811   3.684   4.136   3.391 -0.3968  0.6073  0.1452
16440TIP3    H270812   3.791   4.189   3.297 -0.0763  0.4169  0.4004
16441TIP3   OH270813   4.197   2.127   4.187 -0.2187  0.1264 -0.3497
16441TIP3    H170814   4.269   2.168   4.234 -1.2983 -0.1905  1.6701
16441TIP3    H270815   4.201   2.034   4.211 -0.1698 -0.2733 -1.7647
16442TIP3   OH270816   0.602   6.658   4.788  0.5819 -0.4139  0.0716
16442TIP3    H170817   0.516   6.636   4.753  1.7043 -0.9811 -2.6179
16442TIP3    H270818   0.656   6.582   4.767  2.1176  0.6021  0.1982
16443TIP3   OH270819   2.663   6.391  11.327  0.1357  0.7662  0.0968
16443TIP3    H170820   2.604   6.360  11.258 -0.0320  1.5717 -0.1290
16443TIP3    H270821   2.604   6.426  11.395  0.2480 -0.8579  1.0971
16444TIP3   OH270822   2.479   2.795   2.602 -0.0598  0.4326 -0.4085
16444TIP3    H170823   2.392   2.813   2.637 -0.1078  1.7494 -1.1529
16444TIP3    H270824   2.479   2.701   2.586 -0.4682 -0.0137  1.8821
16445TIP3   OH270825   1.132   6.335   6.274  0.4702 -0.5386  0.1068
16445TIP3    H170826   1.188   6.412   6.276 -0.2072  0.0028 -0.9446
16445TIP3    H270827   1.076   6.348   6.198  0.9432 -2.4962 -0.6435
16446TIP3   OH270828   0.508   6.231   4.022 -0.7028  0.3078 -0.5269
16446TIP3    H170829   0.536   6.283   3.947 -1.5517  0.0113 -1.0647
16446TIP3    H270830   0.414   6.218   4.008 -1.7811  3.4011  2.4042
16447TIP3   OH270831   2.641   6.248   1.495  0.0077  0.6804  0.3391
16447TIP3    H170832   2.657   6.339   1.471 -1.4486  0.5710 -1.2260
16447TIP3    H270833   2.549   6.246   1.520 -0.3925 -0.5965 -1.0646
16448TIP3   OH270834   2.230   4.375   3.999 -0.3077 -0.2072 -0.0692
16448TIP3    H170835   2.175   4.412   4.067 -0.4267  2.3691 -1.4348
16448TIP3    H270836   2.272   4.299   4.040 -1.9486 -0.0088  2.1545
16449TIP3   OH270837   3.553   3.029  12.661  0.0728 -0.1860 -0.3175
16449TIP3    H170838   3.614   3.096  12.691 -0.9722  0.8366 -0.3910
16449TIP3    H270839   3.571   3.021  12.567 -0.0488  0.2757 -0.3844
16450TIP3   OH270840   4.086   2.987   3.849  0.0219  0.2795 -0.6132
16450TIP3    H170841   4.022   2.949   3.788 -0.4835 -0.1552  0.1677
16450TIP3    H270842   4.034   3.044   3.905  0.1804 -0.6622  0.5195
16451TIP3   OH270843   4.750   1.547   1.504  0.3060  0.6199 -0.3637
16451TIP3    H170844   4.825   1.489   1.514  0.6488  1.1226  0.0854
16451TIP3    H270845   4.757   1.608   1.578 -0.3447  0.8932 -0.5189
16452TIP3   OH270846   6.411   6.290   2.045 -0.7694 -0.5871 -0.4328
16452TIP3    H170847   6.321   6.318   2.028 -0.7301 -0.5694 -0.6028
16452TIP3    H270848   6.447   6.359   2.100 -0.9761 -0.7728 -0.0561
16453TIP3   OH270849   5.705   5.956   0.454  0.4109  0.1379 -0.0130
16453TIP3    H170850   5.740   6.029   0.505  1.0165 -1.3459  1.8105
16453TIP3    H270851   5.755   5.958   0.372  2.4936  0.1007  1.1690
16454TIP3   OH270852   6.338   1.061  13.775 -0.1982 -0.1713  0.1310
16454TIP3    H170853   6.341   1.150  13.741 -0.3013 -0.4653 -0.6542
16454TIP3    H270854   6.300   1.070  13.863  0.0091  0.5797  0.1481
16455TIP3   OH270855   2.246   1.716  15.872  0.4753  0.0732  0.0282
16455TIP3    H170856   2.243   1.705  15.777 -0.4467 -0.7651  0.1373
16455TIP3    H270857   2.316   1.657  15.900 -0.9743 -1.7289  0.0895
16456TIP3   OH270858   4.906   4.326   4.327  0.4264  0.5812  0.0910
16456TIP3    H170859   4.935   4.412   4.356  1.6071  1.2971 -2.8129
16456TIP3    H270860   4.982   4.270   4.341 -0.0084  0.2123  1.0572
16457TIP3   OH270861   0.486   6.237  16.593 -0.0487  0.0500  0.4090
16457TIP3    H170862   0.507   6.303  16.527 -0.2031 -1.2205 -0.9427
16457TIP3    H270863   0.494   6.153  16.548 -1.9001 -0.7829  1.5068
16458TIP3   OH270864   6.091   2.335   5.436 -0.1267  0.4408  0.3515
16458TIP3    H170865   6.154   2.384   5.382 -0.6802  1.1304  0.3212
16458TIP3    H270866   6.139   2.255   5.462  0.2242  0.1911 -0.9820
16459TIP3   OH270867   4.979   4.769   5.656  0.2644 -0.3685  0.1880
16459TIP3    H170868   4.942   4.695   5.704  0.6458 -0.4269  0.3934
16459TIP3    H270869   4.976   4.741   5.564 -3.6996  1.0851 -0.3221
16460TIP3   OH270870   2.252   5.532   4.361  0.4194 -0.0948  0.3733
16460TIP3    H170871   2.180   5.581   4.402  0.9420 -0.6970  2.0759
16460TIP3    H270872   2.290   5.595   4.299 -1.3625  0.3301 -0.3869
16461TIP3   OH270873   0.268   0.207   2.278 -0.2284  0.2353  0.3140
16461TIP3    H170874   0.285   0.284   2.332  1.3562 -0.9159  1.5404
16461TIP3    H270875   0.339   0.205   2.215 -0.0149 -0.4300  0.5609
16462TIP3   OH270876   2.221   5.722   0.402 -0.0278 -0.3802  0.1837
16462TIP3    H170877   2.221   5.647   0.463  0.1387  0.2363  0.9594
16462TIP3    H270878   2.290   5.780   0.436  0.2228 -0.1308 -0.7355
16463TIP3   OH270879   1.948   5.366   4.692  0.3430  0.0726  0.1774
16463TIP3    H170880   1.882   5.433   4.708 -0.6621 -0.9583  0.4841
16463TIP3    H270881   1.975   5.337   4.779  0.8846  0.1671  0.0498
16464TIP3   OH270882   1.245   3.929   5.414  0.2501  0.0027  0.1687
16464TIP3    H170883   1.219   3.956   5.325 -0.5173 -0.7826  0.1432
16464TIP3    H270884   1.259   4.011   5.461 -1.4535  0.4594 -0.0731
16465TIP3   OH270885   1.654   4.379  13.980  0.2131  0.3849 -0.2948
16465TIP3    H170886   1.668   4.379  13.886  0.1413  1.3132 -0.3156
16465TIP3    H270887   1.576   4.433  13.993 -0.7480 -1.0638  0.1725
16466TIP3   OH270888   6.777   4.115   0.368 -0.2858  0.5199 -0.2834
16466TIP3    H170889   6.781   4.126   0.273 -0.9035  1.2271 -0.2330
16466TIP3    H270890   6.704   4.169   0.396  1.5979  2.6438  0.9179
16467TIP3   OH270891   6.262   4.862   2.028 -0.1763  0.1463 -0.5414
16467TIP3    H170892   6.254   4.957   2.038  1.0153  0.0434  2.3935
16467TIP3    H270893   6.343   4.840   2.072 -0.8162 -2.3587 -0.4575
16468TIP3   OH270894   0.730   1.486  12.160  1.1059 -0.1148  0.5831
16468TIP3    H170895   0.675   1.493  12.238  0.9801  0.3370  0.4612
16468TIP3    H270896   0.720   1.571  12.117 -0.3420 -1.0062 -0.9321
16469TIP3   OH270897   0.405   0.005  16.481 -0.1441 -0.3457 -0.2637
16469TIP3    H170898   0.341   0.041  16.420  0.2297 -2.2292 -1.8897
16469TIP3    H270899   0.490   0.025  16.442  0.1837  0.1100  0.6602
16470TIP3   OH270900   5.323   0.019  11.847 -0.0275 -0.6665  0.4690
16470TIP3    H170901   5.337   0.054  11.935  1.5983 -0.9241  0.3389
16470TIP3    H270902   5.362  -0.068  11.849 -0.6348 -0.9695 -0.2998
16471TIP3   OH270903   0.326   0.586   2.110  0.8359  0.0627  0.1185
16471TIP3    H170904   0.294   0.498   2.128  0.4718 -0.2200 -1.7953
16471TIP3    H270905   0.408   0.592   2.159  0.7457 -1.2429  0.4594
16472TIP3   OH270906   2.660   3.574  14.942  0.2365  0.0468 -0.0574
16472TIP3    H170907   2.741   3.530  14.917  0.8984  1.2921 -0.1731
16472TIP3    H270908   2.611   3.583  14.860  0.3265 -0.0022 -0.1163
16473TIP3   OH270909   0.034   2.223   3.366  1.0716 -0.0243 -0.3563
16473TIP3    H170910   0.073   2.288   3.307  0.5216  0.4485 -0.2030
16473TIP3    H270911   0.037   2.141   3.316  1.1295  0.2562 -0.8244
16474TIP3   OH270912   4.343   2.692   0.689 -0.6024  0.0685 -0.3264
16474TIP3    H170913   4.265   2.637   0.682 -1.0114  0.7488 -1.2599
16474TIP3    H270914   4.312   2.781   0.673  0.3542  0.3513 -0.7165
16475TIP3   OH270915   1.290   1.859  16.559 -0.0457 -0.0673 -0.3094
16475TIP3    H170916   1.242   1.780  16.534  1.2955 -1.1950  0.5054
16475TIP3    H270917   1.367   1.826  16.605  0.8698  1.7105 -0.4859
16476TIP3   OH270918   3.064   3.888  16.579 -0.3294  0.6537  0.0720
16476TIP3    H170919   3.027   3.976  16.583  0.9880  1.2641 -0.6796
16476TIP3    H270920   3.151   3.896  16.617 -0.6616 -0.6262  1.1972
16477TIP3   OH270921   1.992   3.848   1.316  0.3877  0.0318 -0.7001
16477TIP3    H170922   1.942   3.767   1.320 -1.7865  1.3464  2.1244
16477TIP3    H270923   2.043   3.850   1.397 -0.9180  2.1704  0.1520
16478TIP3   OH270924   0.066   5.751   1.777  0.0902 -0.4625  0.2793
16478TIP3    H170925   0.098   5.784   1.861 -0.3819 -0.8178  0.5977
16478TIP3    H270926   0.031   5.828   1.733 -1.7227 -0.6444  1.3423
16479TIP3   OH270927   1.509   6.016  16.944 -0.6783 -0.3815 -0.0221
16479TIP3    H170928   1.520   6.049  17.033  0.8721  0.2350 -0.4117
16479TIP3    H270929   1.513   6.094  16.889  0.7122 -0.9442 -0.7827
16480TIP3   OH270930   5.389   5.280  16.823  0.7218  0.3872 -0.2817
16480TIP3    H170931   5.415   5.316  16.737  0.5141  1.3147  0.0320
16480TIP3    H270932   5.439   5.199  16.830  2.3524  1.3182 -0.3949
16481TIP3   OH270933   0.919   2.003  11.785 -0.1459 -0.4631 -0.3854
16481TIP3    H170934   0.984   2.070  11.806 -0.0438 -0.3124 -1.1532
16481TIP3    H270935   0.835   2.043  11.806 -0.0546 -0.2594 -0.4098
16482TIP3   OH270936   5.645   4.205  15.711 -0.3619 -0.5332 -0.0618
16482TIP3    H170937   5.701   4.129  15.695  1.7050  1.0492 -0.8283
16482TIP3    H270938   5.580   4.174  15.774 -0.3154 -3.2187 -1.1741
16483TIP3   OH270939   1.017   4.828   2.472  0.5070 -0.3439 -0.3826
16483TIP3    H170940   1.107   4.810   2.445  0.7362  0.1327  0.0257
16483TIP3    H270941   1.015   4.805   2.565  0.7924  1.5281  0.1416
16484TIP3   OH270942   2.099   1.337   3.214 -0.4093  0.1621  0.6860
16484TIP3    H170943   2.043   1.380   3.149  1.3327  2.3306  0.5042
16484TIP3    H270944   2.125   1.255   3.173 -1.6011  0.1808 -0.1520
16485TIP3   OH270945   6.232   0.254  12.618 -0.0089  0.2102 -0.2349
16485TIP3    H170946   6.229   0.289  12.529  2.5361  1.0099 -0.1044
16485TIP3    H270947   6.307   0.194  12.617 -0.7981 -0.8515  1.0362
16486TIP3   OH270948   3.461   3.801  11.762 -0.3407  0.1975 -0.5663
16486TIP3    H170949   3.551   3.768  11.764 -0.0649  0.6816 -2.7787
16486TIP3    H270950   3.410   3.727  11.727 -0.8225 -0.0451  0.5982
16487TIP3   OH270951   0.533   2.389   5.294 -0.1627 -0.4777  0.3562
16487TIP3    H170952   0.547   2.296   5.315 -0.4610 -0.3968  0.9179
16487TIP3    H270953   0.445   2.393   5.259 -0.3441 -0.3345  0.8133
16488TIP3   OH270954   1.604   2.332   0.210 -0.4727 -0.0700 -0.1320
16488TIP3    H170955   1.526   2.354   0.160  0.5720 -0.7139 -2.1561
16488TIP3    H270956   1.617   2.407   0.269 -2.7502 -0.1098  0.4938
16489TIP3   OH270957   3.455   1.942  14.219  0.1189 -0.0598 -0.1497
16489TIP3    H170958   3.487   2.029  14.192 -2.2431  1.6669  2.1336
16489TIP3    H270959   3.514   1.916  14.290  0.4670 -0.0679 -0.4373
16490TIP3   OH270960   1.372   5.549  15.902  0.1108 -0.3683 -0.1228
16490TIP3    H170961   1.330   5.586  15.980  0.2711 -2.2511  0.9223
16490TIP3    H270962   1.324   5.588  15.829  0.5961  2.2392  0.8140
16491TIP3   OH270963   6.387   3.176  11.949 -0.1596  0.2404  0.1409
16491TIP3    H170964   6.349   3.093  11.977 -1.6036  0.5666 -0.7335
16491TIP3    H270965   6.467   3.185  12.001 -0.9211 -0.8199  1.5651
16492TIP3   OH270966   4.853   1.408   3.422  0.3310  0.1325 -0.3723
16492TIP3    H170967   4.893   1.322   3.408 -0.4973 -0.2967 -0.1317
16492TIP3    H270968   4.800   1.398   3.501  0.0920  0.8223 -0.4342
16493TIP3   OH270969   2.170   4.719  14.212 -0.2106 -0.2283 -0.8214
16493TIP3    H170970   2.228   4.695  14.139  1.0326  1.9700 -0.6305
16493TIP3    H270971   2.228   4.759  14.277 -1.4811 -1.0219  0.8918
16494TIP3   OH270972   6.737   1.011  13.217 -0.0239 -0.5821  0.2842
16494TIP3    H170973   6.710   0.952  13.287 -1.0503  1.8912  2.1065
16494TIP3    H270974   6.705   0.969  13.137 -1.7239 -1.9264  1.5945
16495TIP3   OH270975   1.119   6.617   2.937  0.0253 -0.2541 -0.2821
16495TIP3    H170976   1.049   6.554   2.953 -1.0865  0.8078 -0.7734
16495TIP3    H270977   1.168   6.580   2.863 -0.6969 -0.4937 -0.6540
16496TIP3   OH270978   4.269   3.396   0.917  0.2726  0.0901  0.8711
16496TIP3    H170979   4.174   3.393   0.919  0.2388  1.1445  2.3113
16496TIP3    H270980   4.290   3.430   0.830 -0.5425 -2.0489 -0.2280
16497TIP3   OH270981   0.627   0.712  14.100 -0.2014 -0.1981  0.5288
16497TIP3    H170982   0.681   0.660  14.160 -0.1647 -0.0305  0.6428
16497TIP3    H270983   0.630   0.801  14.136  0.7127  0.1409 -0.3085
16498TIP3   OH270984   5.561   4.226   5.954 -1.0776 -0.0240 -0.4606
16498TIP3    H170985   5.503   4.160   5.916 -1.0390  0.0439 -0.6366
16498TIP3    H270986   5.570   4.292   5.886 -0.4231 -0.2547 -0.6016
16499TIP3   OH270987   2.510   2.456   0.637  0.8396  0.1840 -0.6465
16499TIP3    H170988   2.439   2.435   0.577  0.6797  1.1694 -0.8209
16499TIP3    H270989   2.527   2.549   0.622  1.0420  0.3584  0.5680
16500TIP3   OH270990   2.839   1.242  16.216 -0.1795  0.8593  0.1944
16500TIP3    H170991   2.812   1.239  16.308 -0.5350  2.4556  0.1657
16500TIP3    H270992   2.759   1.220  16.168  0.0549 -0.1743  0.2531
16501TIP3   OH270993   0.797   5.969  12.870  0.0471 -0.5340  0.2331
16501TIP3    H170994   0.766   6.025  12.941 -2.7847 -1.9082  0.1834
16501TIP3    H270995   0.779   5.880  12.899  0.6879 -1.2344 -1.3927
16502TIP3   OH270996   6.441   2.692  16.028 -0.2922 -0.2643  0.1115
16502TIP3    H170997   6.476   2.756  16.090 -0.3810  0.1375 -0.2423
16502TIP3    H270998   6.508   2.685  15.961  0.2347 -1.4287  0.7357
16503TIP3   OH270999   3.025   3.903   5.952  0.8264 -0.1824 -0.3696
16503TIP3    H171000   3.094   3.937   6.009  2.4827 -1.4548 -1.5246
16503TIP3    H271001   2.971   3.849   6.010  0.9440  0.6012  0.5019
16504TIP3   OH271002   3.967   2.039  12.931  0.5648 -0.1585  0.2041
16504TIP3    H171003   3.934   2.100  12.866 -0.3624 -0.8740 -0.0062
16504TIP3    H271004   3.975   1.956  12.884  2.7104 -0.0437  0.2241
16505TIP3   OH271005   4.291   6.327   3.768 -0.2184  0.4597 -0.2377
16505TIP3    H171006   4.294   6.315   3.863  0.9188 -1.0189 -0.4198
16505TIP3    H271007   4.316   6.241   3.733  1.5057  1.5579 -1.8362
16506TIP3   OH271008   2.918   1.668   4.667 -0.2105 -0.7761 -0.1112
16506TIP3    H171009   2.955   1.629   4.746 -1.0646 -2.1266 -0.3454
16506TIP3    H271010   2.955   1.616   4.595 -1.0483 -0.9193 -0.4555
16507TIP3   OH271011   4.662   1.679   5.777 -0.4567 -0.4713  0.7152
16507TIP3    H171012   4.685   1.702   5.687  0.1584  2.4177  1.5213
16507TIP3    H271013   4.669   1.583   5.780 -0.4387 -0.6404 -2.2537
16508TIP3   OH271014   2.392   2.458   4.087  0.3408 -0.3110  0.2008
16508TIP3    H171015   2.320   2.410   4.126 -0.8497 -0.3385 -1.8831
16508TIP3    H271016   2.403   2.535   4.144 -0.6399 -0.8303  1.1225
16509TIP3   OH271017   3.952   2.654  13.514  0.1355 -0.4470 -0.3737
16509TIP3    H171018   3.905   2.666  13.597  0.3842  1.0457 -0.4368
16509TIP3    H271019   3.894   2.692  13.448 -0.3806 -2.2410 -1.0209
16510TIP3   OH271020   4.685   0.733  14.610 -0.1559  0.0761  0.2612
16510TIP3    H171021   4.749   0.688  14.555 -0.4354  1.9230 -1.7252
16510TIP3    H271022   4.605   0.735  14.557 -0.2711  2.4262  0.4167
16511TIP3   OH271023   1.770   5.204   0.970 -0.1086 -0.0050 -0.2214
16511TIP3    H171024   1.696   5.157   1.009 -0.3253 -0.8402 -1.5695
16511TIP3    H271025   1.831   5.217   1.042 -0.9481 -0.5574  0.6126
16512TIP3   OH271026   5.752   2.768   1.419  0.0890  0.4075 -0.4220
16512TIP3    H171027   5.774   2.827   1.491  0.9415  0.0754 -0.3999
16512TIP3    H271028   5.829   2.771   1.361 -0.7897  1.0614 -1.5852
16513TIP3   OH271029   3.720   6.522   6.548  0.4900  0.3555 -0.6091
16513TIP3    H171030   3.742   6.580   6.621  1.3537 -1.1784  0.3972
16513TIP3    H271031   3.625   6.530   6.540  0.2325 -0.1097  1.3274
16514TIP3   OH271032   4.966   6.659   1.148  0.1253  0.7560 -0.3439
16514TIP3    H171033   4.995   6.568   1.142  1.0865  1.0173  0.1286
16514TIP3    H271034   4.960   6.689   1.057 -0.7038  0.0818 -0.5257
16515TIP3   OH271035   6.706   3.422   0.655 -0.1403 -0.0031  0.2347
16515TIP3    H171036   6.702   3.341   0.706  0.5047 -0.5392 -0.5297
16515TIP3    H271037   6.706   3.491   0.720 -0.4400 -0.6321  0.9181
16516TIP3   OH271038   3.155   5.254  15.937 -0.5122  0.0633  0.1282
16516TIP3    H171039   3.198   5.299  16.009  1.8718  0.1120 -1.2346
16516TIP3    H271040   3.088   5.200  15.979 -1.2082  2.2790  2.0893
16517TIP3   OH271041   3.561   5.691  15.213  0.4946 -0.9450  0.1159
16517TIP3    H171042   3.610   5.620  15.253 -0.8391 -2.7455 -1.2654
16517TIP3    H271043   3.473   5.656  15.202 -0.9160  1.8021  1.5797
16518TIP3   OH271044   0.162   3.300   5.156 -0.6035 -0.3947  0.3320
16518TIP3    H171045   0.067   3.309   5.151 -0.8121 -0.7765  2.4725
16518TIP3    H271046   0.183   3.222   5.104 -1.3195  0.2525 -0.9543
16519TIP3   OH271047   1.537   5.630   4.221  0.4329  0.8593  0.3657
16519TIP3    H171048   1.475   5.689   4.177 -0.7206 -0.7483 -0.2733
16519TIP3    H271049   1.525   5.546   4.177  3.1786  0.4775  0.1644
16520TIP3   OH271050   5.773   0.951   0.134 -0.2763 -0.1171 -0.0502
16520TIP3    H171051   5.748   0.902   0.056  1.3724 -0.6250 -0.3060
16520TIP3    H271052   5.869   0.950   0.134 -0.2098  1.3422  1.0648
16521TIP3   OH271053   0.835   1.096   4.543  0.1274  0.0900  0.3577
16521TIP3    H171054   0.786   1.067   4.619 -1.2594  2.2099  0.3706
16521TIP3    H271055   0.911   1.142   4.580  0.5234 -0.5807  0.3954
16522TIP3   OH271056   4.600   6.108   2.094  0.0562  0.2279 -0.2593
16522TIP3    H171057   4.558   6.162   2.027  0.6362  1.7015  0.5312
16522TIP3    H271058   4.693   6.127   2.085  0.2350 -0.3712  0.2717
16523TIP3   OH271059   4.022   4.144   5.778  0.9333  0.0295 -0.1582
16523TIP3    H171060   4.002   4.133   5.685 -2.1502 -0.4807  0.4323
16523TIP3    H271061   4.022   4.055   5.813 -1.1486  0.3219  0.7838
16524TIP3   OH271062   6.054   3.677  13.734  0.4706  0.2089  0.7996
16524TIP3    H171063   6.001   3.626  13.795 -2.3290  2.1978  0.2291
16524TIP3    H271064   6.095   3.745  13.788 -0.8165  1.0697  0.7265
16525TIP3   OH271065   1.492   5.195   1.593  0.3010 -0.5659  0.5528
16525TIP3    H171066   1.545   5.225   1.666  0.9810  0.7423 -0.4217
16525TIP3    H271067   1.405   5.181   1.630  0.8471 -0.8167  1.7702
16526TIP3   OH271068   0.811   4.010  15.269 -0.1526  0.4936 -0.0976
16526TIP3    H171069   0.788   4.098  15.300  0.5982  0.9693 -0.8268
16526TIP3    H271070   0.769   4.003  15.183 -1.5499 -0.5021  0.6254
16527TIP3   OH271071   5.227   2.406   3.579  0.3134  0.0466 -0.4701
16527TIP3    H171072   5.305   2.430   3.530  0.2149  2.2472  0.3431
16527TIP3    H271073   5.238   2.447   3.665 -2.5221  2.1295 -0.9372
16528TIP3   OH271074   4.697   1.597  15.178  0.1465  0.1634 -0.7459
16528TIP3    H171075   4.776   1.554  15.144  0.3410 -0.3426  0.3205
16528TIP3    H271076   4.630   1.579  15.112  0.7736  0.1075 -1.3829
16529TIP3   OH271077   4.520   0.209  15.423 -0.2060  0.3811  0.1496
16529TIP3    H171078   4.446   0.205  15.483 -0.4412  0.3158 -0.1417
16529TIP3    H271079   4.549   0.300  15.426 -0.8029  0.5945 -0.3340
16530TIP3   OH271080   4.012   1.257  11.078  0.3777  0.0585 -0.1546
16530TIP3    H171081   3.927   1.218  11.056  1.3653 -2.0661 -0.5409
16530TIP3    H271082   4.008   1.347  11.045 -2.6481  0.9212  2.2123
16531TIP3   OH271083   3.927   2.567   5.507 -0.4448 -0.1384  0.0133
16531TIP3    H171084   3.908   2.502   5.575 -2.3315  1.9100  1.5986
16531TIP3    H271085   3.906   2.651   5.548  2.6415  1.6268 -1.6443
16532TIP3   OH271086   5.337   2.647  13.236 -0.1924 -0.0259  0.4583
16532TIP3    H171087   5.278   2.670  13.164  2.1286  1.1785 -1.1770
16532TIP3    H271088   5.313   2.707  13.307  0.3932  1.9974 -0.9459
16533TIP3   OH271089   0.202   4.138   5.647  0.0675  0.2978  0.0581
16533TIP3    H171090   0.136   4.173   5.708 -1.4451 -2.5158  0.2267
16533TIP3    H271091   0.230   4.055   5.687  1.9499  0.2465 -1.2198
16534TIP3   OH271092   2.917   5.202  15.029 -0.1384  0.1707 -0.3147
16534TIP3    H171093   2.823   5.217  15.031 -0.0070  1.2066 -1.2795
16534TIP3    H271094   2.950   5.261  14.962  1.4646  1.3157  1.3652
16535TIP3   OH271095   1.119   0.627  13.884  0.4072  0.8202  0.2851
16535TIP3    H171096   1.148   0.619  13.975  0.3309  0.9951  0.3245
16535TIP3    H271097   1.184   0.683  13.843  0.3800  0.8328  0.2593
16536TIP3   OH271098   5.026   2.210  11.583 -0.4582 -0.3663 -0.3507
16536TIP3    H171099   5.112   2.246  11.605 -0.7889  1.3950 -1.7491
16536TIP3    H271100   5.042   2.118  11.565  1.1451 -0.0626 -0.5952
16537TIP3   OH271101   4.006   1.409   1.966  0.1255  0.4094  0.3486
16537TIP3    H171102   3.961   1.486   1.931  1.2939  0.2891 -1.5483
16537TIP3    H271103   4.041   1.438   2.050  0.1209  1.8070 -0.1042
16538TIP3   OH271104   2.281   5.814   3.926 -0.2759 -0.0454 -0.0835
16538TIP3    H171105   2.357   5.870   3.910  0.5893 -1.2692 -0.4689
16538TIP3    H271106   2.226   5.824   3.848 -0.7120  1.1160  0.3511
16539TIP3   OH271107   5.856   2.448  14.563  0.4470  0.0951 -0.6353
16539TIP3    H171108   5.813   2.517  14.614  1.7026  0.9183 -0.6301
16539TIP3    H271109   5.803   2.439  14.484 -0.3774  0.2603 -0.1044
16540TIP3   OH271110   6.174   3.089   1.969  0.6338  0.2577 -0.7097
16540TIP3    H171111   6.198   3.143   1.894  2.8189 -0.6429 -0.7220
16540TIP3    H271112   6.252   3.036   1.987 -0.4817 -0.9082  1.0194
16541TIP3   OH271113   5.292   2.821   1.482  0.7017 -0.0661  0.0281
16541TIP3    H171114   5.300   2.875   1.561 -0.7322 -0.2583  0.3277
16541TIP3    H271115   5.357   2.752   1.494  1.4694  0.6909  0.3687
16542TIP3   OH271116   5.816   1.088   1.820  0.1781  0.1396  0.5276
16542TIP3    H171117   5.800   1.173   1.779  0.3911 -0.4851 -0.9177
16542TIP3    H271118   5.732   1.063   1.858 -0.1660  0.5143  0.0260
16543TIP3   OH271119   4.618   2.098  10.460 -0.1332  0.2305  0.2651
16543TIP3    H171120   4.691   2.036  10.452 -0.5742 -0.5131  1.7029
16543TIP3    H271121   4.651   2.164  10.521 -0.0012  0.9311 -0.5494
16544TIP3   OH271122   1.245   2.943   5.957 -0.2887  0.1071 -0.0003
16544TIP3    H171123   1.184   2.869   5.962  0.4085 -0.5606 -0.9266
16544TIP3    H271124   1.273   2.958   6.047  0.6482 -1.7085  0.0397
16545TIP3   OH271125   1.290   1.230   2.858 -0.1583 -0.0805 -0.1123
16545TIP3    H171126   1.342   1.301   2.819  1.7788 -1.2192  0.2233
16545TIP3    H271127   1.239   1.272   2.927  1.8279  0.8596  0.8753
16546TIP3   OH271128   2.054   5.867  12.523  0.1122  0.2011  0.3366
16546TIP3    H171129   2.057   5.899  12.614 -0.7449 -1.5180  1.0111
16546TIP3    H271130   2.144   5.843  12.502  0.0770 -0.8055  1.2794
16547TIP3   OH271131   2.118   6.048   2.438  0.1312 -0.1764 -0.8850
16547TIP3    H171132   2.040   6.016   2.483 -0.2989  1.1219 -0.6521
16547TIP3    H271133   2.084   6.114   2.376  1.2255  2.5004  1.1653
16548TIP3   OH271134   4.518   5.108  12.607  0.1465 -0.1440  0.0151
16548TIP3    H171135   4.578   5.181  12.593  1.1055 -0.6111  1.4681
16548TIP3    H271136   4.478   5.093  12.521  1.2497  0.9352 -0.7208
16549TIP3   OH271137   6.290   0.908  12.832 -0.2753 -0.0811 -0.1440
16549TIP3    H171138   6.229   0.837  12.856  1.7192 -1.3169  1.6201
16549TIP3    H271139   6.282   0.971  12.904 -0.6980  0.5984 -0.7806
16550TIP3   OH271140   6.449   4.552   5.299  0.4888  0.0215 -0.2844
16550TIP3    H171141   6.376   4.516   5.349 -0.1591 -1.1702 -1.9990
16550TIP3    H271142   6.408   4.601   5.228  1.2916 -1.2703 -1.7012
16551TIP3   OH271143   4.328   3.135   0.985  0.1736  0.1063 -0.4589
16551TIP3    H171144   4.322   3.221   0.944  0.4940  0.8947  1.1054
16551TIP3    H271145   4.291   3.075   0.920 -3.1243  1.7922 -0.3320
16552TIP3   OH271146   0.198   0.805  14.768 -0.2016  0.0585 -0.2780
16552TIP3    H171147   0.130   0.775  14.708 -0.2333  2.4301 -1.5253
16552TIP3    H271148   0.280   0.772  14.730 -0.4740 -1.5792  0.4530
16553TIP3   OH271149   4.118   2.528   5.810  0.4784  0.0207 -0.3666
16553TIP3    H171150   4.116   2.455   5.748  2.7113 -0.2460 -0.1928
16553TIP3    H271151   4.062   2.499   5.882  0.6091 -1.1331 -0.7031
16554TIP3   OH271152   2.126   2.769  12.784  0.2834 -0.0580  0.4096
16554TIP3    H171153   2.053   2.726  12.740 -0.3554  0.6798  0.7202
16554TIP3    H271154   2.137   2.720  12.865  0.4659 -0.4898  0.1203
16555TIP3   OH271155   4.326   0.224  10.968  1.1431 -0.1376 -0.0379
16555TIP3    H171156   4.370   0.225  10.883  1.2946 -1.1745  0.0112
16555TIP3    H271157   4.323   0.315  10.995 -2.3218  0.8221 -2.8716
16556TIP3   OH271158   3.160   1.992   1.949  0.2321 -0.5932  0.2891
16556TIP3    H171159   3.196   1.980   1.861 -1.1062 -1.6660 -0.1489
16556TIP3    H271160   3.234   2.022   2.002  1.0871 -0.0453 -1.1687
16557TIP3   OH271161   3.977   6.078   6.506 -0.4462 -0.2783 -0.1925
16557TIP3    H171162   3.892   6.038   6.521 -0.5323  0.2115  0.7219
16557TIP3    H271163   3.960   6.148   6.443 -0.5605 -0.7136 -0.6529
16558TIP3   OH271164   4.472   4.889   2.700  0.0064  0.0123 -0.0475
16558TIP3    H171165   4.470   4.982   2.679  0.1735  0.5045  1.9288
16558TIP3    H271166   4.563   4.872   2.725 -0.2927 -0.3721  0.8215
16559TIP3   OH271167   6.632   1.744  14.031  0.1869 -0.4318  0.5249
16559TIP3    H171168   6.650   1.657  14.066  0.6342 -0.8801 -0.7837
16559TIP3    H271169   6.718   1.781  14.013 -0.0282 -0.0734  0.2100
16560TIP3   OH271170   6.579   3.084   2.875  0.5158 -0.2174 -0.4548
16560TIP3    H171171   6.596   3.020   2.806  0.1352  0.0559 -0.8023
16560TIP3    H271172   6.628   3.162   2.848  1.1282 -0.4078  0.0598
16561TIP3   OH271173   6.364   4.555   4.820 -0.1117 -0.0610 -0.0601
16561TIP3    H171174   6.329   4.509   4.744  1.2008 -1.2508  0.0200
16561TIP3    H271175   6.417   4.490   4.865  0.6967  1.1662  0.8131
16562TIP3   OH271176   0.416   0.937  12.842  0.7717 -0.1470 -0.3176
16562TIP3    H171177   0.412   1.031  12.857  0.3848 -0.1955 -0.0920
16562TIP3    H271178   0.498   0.923  12.795  1.7960  0.0685  1.3380
16563TIP3   OH271179   5.413   3.007  14.991  0.2141 -0.0212 -0.7373
16563TIP3    H171180   5.347   3.033  14.926 -1.1840  1.1403  1.0513
16563TIP3    H271181   5.466   3.085  15.003 -1.4981  0.8665  1.7264
16564TIP3   OH271182   6.276   3.528  13.408  0.1875 -0.8124  0.2003
16564TIP3    H171183   6.244   3.460  13.349 -2.0508 -1.4395  1.9835
16564TIP3    H271184   6.343   3.485  13.461  0.4061 -0.9572 -0.1898
16565TIP3   OH271185   5.483   1.042   0.605  0.3769  0.4781 -0.1368
16565TIP3    H171186   5.464   1.134   0.619 -1.1741 -0.0166  1.3824
16565TIP3    H271187   5.407   0.996   0.641  1.0762 -1.3893 -0.9122
16566TIP3   OH271188   2.213   3.643  12.737  0.0075 -0.1224 -0.1837
16566TIP3    H171189   2.286   3.703  12.753  0.1902 -0.4414  0.1859
16566TIP3    H271190   2.204   3.642  12.642 -1.1621  1.8720 -0.1342
16567TIP3   OH271191   1.015   2.222  10.918 -0.1107 -0.3163 -0.1951
16567TIP3    H171192   1.047   2.302  10.959  1.3460  0.1999 -2.1912
16567TIP3    H271193   1.066   2.152  10.958  0.0899 -0.0118  0.0839
16568TIP3   OH271194   4.764   6.395  14.651 -0.2434 -0.0624  0.0171
16568TIP3    H171195   4.726   6.308  14.641 -2.2143  0.8877 -1.1966
16568TIP3    H271196   4.701   6.443  14.706 -0.3647  1.2627 -1.2200
16569TIP3   OH271197   4.458   0.903  13.829 -0.0320 -0.3055  0.0952
16569TIP3    H171198   4.435   0.995  13.822  0.6725 -0.1273  0.1620
16569TIP3    H271199   4.495   0.893  13.916  1.4545 -0.3083 -0.5145
16570TIP3   OH271200   5.333   3.560  11.946  0.5277 -0.3461  0.3991
16570TIP3    H171201   5.406   3.618  11.970  1.1991 -1.1344  0.2733
16570TIP3    H271202   5.265   3.579  12.011  0.8001  0.4657  0.4539
16571TIP3   OH271203   4.892   1.153   1.434 -0.8356  1.1252 -0.3031
16571TIP3    H171204   4.892   1.189   1.345  0.6944 -0.7571 -1.1418
16571TIP3    H271205   4.973   1.102   1.439 -0.9160  1.1389  2.1735
16572TIP3   OH271206   3.388   3.984   2.608  0.2686 -0.2598 -0.0837
16572TIP3    H171207   3.424   3.895   2.606  1.0356  0.0031  0.9483
16572TIP3    H271208   3.318   3.979   2.673  0.4635 -0.0582  0.1411
16573TIP3   OH271209   5.811   5.053   4.123 -0.3407 -0.3780 -0.0973
16573TIP3    H171210   5.905   5.041   4.135 -0.0860  0.1998 -1.3397
16573TIP3    H271211   5.802   5.140   4.084 -1.2449 -1.0300 -1.4296
16574TIP3   OH271212   0.230   6.380   2.954 -0.3602 -0.6581  0.4789
16574TIP3    H171213   0.286   6.455   2.935  0.8318 -1.5000  0.5545
16574TIP3    H271214   0.173   6.410   3.025  0.1987  0.1199  0.6138
16575TIP3   OH271215   0.762   4.352   3.065  0.1417  0.8946  0.2466
16575TIP3    H171216   0.666   4.350   3.059  0.1796 -0.4379 -0.1960
16575TIP3    H271217   0.789   4.264   3.041  1.3901  0.7577  1.9866
16576TIP3   OH271218   2.584   6.408   6.000 -0.2663  0.0612  0.4648
16576TIP3    H171219   2.653   6.364   6.050  1.0839  1.3614 -0.1522
16576TIP3    H271220   2.562   6.485   6.053 -0.8772 -0.0653  0.3997
16577TIP3   OH271221   6.619   1.764  15.810 -0.7076  0.3321  0.6589
16577TIP3    H171222   6.636   1.675  15.777 -1.1827  0.4383  0.1086
16577TIP3    H271223   6.592   1.813  15.733  0.4914  1.2167  0.7814
16578TIP3   OH271224   1.880   0.384   2.131 -0.3211 -0.2746  0.1720
16578TIP3    H171225   1.967   0.348   2.147 -0.2244 -0.0036  0.2658
16578TIP3    H271226   1.823   0.337   2.193 -0.7086 -2.2760 -1.5966
16579TIP3   OH271227   5.858   0.538   4.746 -0.1886 -0.3334  0.1114
16579TIP3    H171228   5.947   0.552   4.714 -0.6047  0.4109 -0.7501
16579TIP3    H271229   5.866   0.547   4.841  0.8192 -1.2539  0.1427
16580TIP3   OH271230   1.368   6.583  15.841 -0.1495  0.2717  0.7467
16580TIP3    H171231   1.377   6.491  15.865  0.3390  0.4230  1.1748
16580TIP3    H271232   1.327   6.623  15.917 -1.1115  0.2661  0.2431
16581TIP3   OH271233   0.307   3.364  12.301  0.3241 -0.4585 -0.6091
16581TIP3    H171234   0.292   3.303  12.228  0.1187 -2.6853  1.1864
16581TIP3    H271235   0.239   3.342  12.364  1.5615  0.1822  0.9936
16582TIP3   OH271236   0.200   3.360  12.604 -0.5912  0.2623 -0.0901
16582TIP3    H171237   0.129   3.362  12.540 -0.2801  1.8044 -0.4161
16582TIP3    H271238   0.163   3.400  12.682 -0.5198 -0.2932  0.2349
16583TIP3   OH271239   3.955   4.400  12.735  0.2348 -0.2438 -0.0347
16583TIP3    H171240   3.876   4.346  12.727  0.9933 -1.3733 -0.1551
16583TIP3    H271241   3.931   4.469  12.797 -0.4758 -1.2847  0.8944
16584TIP3   OH271242   6.790   1.162   0.534  0.1162 -0.1424  0.3197
16584TIP3    H171243   6.796   1.101   0.607  1.0682 -0.5331 -0.0626
16584TIP3    H271244   6.714   1.133   0.484  0.0941 -0.5280  0.5748
16585TIP3   OH271245   5.174   1.551  14.398  0.2485  0.5864 -0.1500
16585TIP3    H171246   5.123   1.472  14.415  1.7932 -0.5470 -0.5047
16585TIP3    H271247   5.110   1.616  14.369 -1.3567  0.1518  2.1397
16586TIP3   OH271248   1.713   0.957  11.447 -0.5478 -0.3363 -0.0422
16586TIP3    H171249   1.721   1.007  11.529  1.1994  0.0696 -0.4195
16586TIP3    H271250   1.630   0.909  11.457 -0.2184 -0.5897  2.1269
16587TIP3   OH271251   0.784   6.768  11.287 -0.0515  0.5549  0.8713
16587TIP3    H171252   0.693   6.743  11.270  0.5345 -0.0362 -2.0103
16587TIP3    H271253   0.779   6.861  11.310 -1.3776  0.5732  0.5790
16588TIP3   OH271254   1.925   5.513   5.458  0.1939  0.3623  0.0690
16588TIP3    H171255   1.929   5.605   5.484  0.6819 -0.4415  3.2907
16588TIP3    H271256   1.940   5.464   5.539 -2.1442 -2.6099 -1.0680
16589TIP3   OH271257   2.897   3.122   2.236 -0.5605  0.1159  1.0181
16589TIP3    H171258   2.987   3.110   2.207 -0.8529  0.7267 -0.2392
16589TIP3    H271259   2.847   3.056   2.188 -0.5519 -1.6190  3.2539
16590TIP3   OH271260   3.601   1.976  12.068 -0.4712  0.0535  0.4345
16590TIP3    H171261   3.647   2.050  12.029  0.4582  0.8177  2.8053
16590TIP3    H271262   3.633   1.900  12.019  2.6244  0.6753  1.2399
16591TIP3   OH271263   6.682   3.547   2.120  0.2719 -0.3221  0.3669
16591TIP3    H171264   6.617   3.601   2.074  1.2714 -1.0909 -2.1485
16591TIP3    H271265   6.729   3.608   2.177 -2.2059  0.3514  1.8401
16592TIP3   OH271266   3.269   3.246   2.671  0.6644 -0.4120 -0.1065
16592TIP3    H171267   3.274   3.337   2.699 -1.0258 -0.7655  1.5376
16592TIP3    H271268   3.239   3.250   2.580 -0.7499  0.6748  0.3799
16593TIP3   OH271269   0.767   0.015  12.041 -0.1096  0.0631 -0.2571
16593TIP3    H171270   0.688  -0.037  12.051  0.7396 -0.9528  1.7158
16593TIP3    H271271   0.748   0.097  12.086 -1.4012  1.5582 -3.2567
16594TIP3   OH271272   5.500   3.743   3.421 -0.0088  0.3576 -0.1846
16594TIP3    H171273   5.506   3.769   3.329 -1.0964 -1.5852 -0.8557
16594TIP3    H271274   5.527   3.821   3.469  1.9626  1.0092 -2.1621
16595TIP3   OH271275   6.098   3.370  12.346  0.7320  0.3637 -0.7960
16595TIP3    H171276   6.057   3.354  12.261  1.9733 -0.0157 -1.3482
16595TIP3    H271277   6.032   3.417  12.396 -1.0971 -1.8980 -0.9471
16596TIP3   OH271278   2.678   4.216  12.361  0.1176 -1.2981  0.5150
16596TIP3    H171279   2.634   4.159  12.299  0.1416  0.7686 -1.5217
16596TIP3    H271280   2.771   4.196  12.349  0.1371 -0.7305 -0.3100
16597TIP3   OH271281   4.893   4.712  14.521  0.1487 -0.0816 -0.0020
16597TIP3    H171282   4.844   4.668  14.590 -1.8375  3.0458  0.8197
16597TIP3    H271283   4.937   4.784  14.566  0.2607  0.9731 -1.7150
16598TIP3   OH271284   5.445   1.026   2.654  0.1403 -0.3917 -0.3614
16598TIP3    H171285   5.523   0.978   2.626  2.2321  0.9624  2.5422
16598TIP3    H271286   5.468   1.118   2.641 -1.8957  0.0013 -1.4712
16599TIP3   OH271287   5.966   2.841  11.852 -0.4715 -0.0222 -0.1804
16599TIP3    H171288   5.893   2.863  11.795  0.5278 -1.3216 -2.0638
16599TIP3    H271289   6.016   2.922  11.860 -1.6320  0.6533  0.4318
16600TIP3   OH271290   0.623   2.224   2.410 -0.6033 -0.4361 -0.3243
16600TIP3    H171291   0.594   2.162   2.477 -0.4713 -0.5599 -0.3823
16600TIP3    H271292   0.713   2.244   2.433 -1.3322  1.5192  1.0397
16601TIP3   OH271293   2.157   4.181   1.398 -0.4312  0.2201  0.0657
16601TIP3    H171294   2.153   4.104   1.340 -0.7488  0.4767 -0.2570
16601TIP3    H271295   2.222   4.238   1.358 -1.9230  1.2149 -1.0748
16602TIP3   OH271296   6.603   5.447  15.421 -0.2468 -0.5377  0.3769
16602TIP3    H171297   6.509   5.461  15.419 -0.2789 -0.7972 -0.7072
16602TIP3    H271298   6.616   5.379  15.487 -1.0178 -1.7512 -0.6677
16603TIP3   OH271299   6.687   4.118  14.575  0.2858  1.2394 -0.6219
16603TIP3    H171300   6.639   4.162  14.504 -0.4494  0.7367 -0.4556
16603TIP3    H271301   6.722   4.189  14.628 -1.1817  1.6454 -0.1497
16604TIP3   OH271302   0.431   3.667   1.776  0.3572  0.0846  0.2122
16604TIP3    H171303   0.457   3.696   1.689 -1.6074 -0.2651 -0.5552
16604TIP3    H271304   0.397   3.746   1.819  0.1450  0.0142  0.1764
16605TIP3   OH271305   6.363   3.005   0.365  0.2824  0.6220  0.0186
16605TIP3    H171306   6.335   2.941   0.432  0.5615 -0.1611 -0.6018
16605TIP3    H271307   6.457   2.992   0.357  0.3909  1.3353  0.1084
16606TIP3   OH271308   5.564   1.167  15.854 -0.3309 -0.0465  0.1311
16606TIP3    H171309   5.557   1.092  15.794  0.3009  0.2722 -0.3520
16606TIP3    H271310   5.488   1.222  15.833 -2.0015 -1.5190  1.9089
16607TIP3   OH271311   5.327   0.361  11.197 -0.6418  0.7557 -0.1962
16607TIP3    H171312   5.400   0.399  11.246  0.8509 -0.5633 -1.2514
16607TIP3    H271313   5.350   0.377  11.105 -0.9090 -0.9573 -0.5969
16608TIP3   OH271314   2.478   2.644  11.779  0.4447  0.0939  0.2986
16608TIP3    H171315   2.472   2.561  11.827  1.2681 -0.0378  0.1869
16608TIP3    H271316   2.571   2.654  11.760  0.3855  1.1879  0.5439
16609TIP3   OH271317   3.584   2.519   3.518 -0.1891 -0.3124  0.3395
16609TIP3    H171318   3.584   2.425   3.499  1.1820 -0.4205  0.7416
16609TIP3    H271319   3.671   2.536   3.554 -0.5585  1.0434  0.6549
16610TIP3   OH271320   2.976   3.867  14.589 -0.2677  0.2923 -0.3314
16610TIP3    H171321   3.045   3.805  14.564  0.1344  0.8719 -0.6776
16610TIP3    H271322   2.913   3.864  14.517 -0.8899 -0.6166  0.2141
16611TIP3   OH271323   1.416   5.715   2.398 -0.2394 -0.0617 -0.1802
16611TIP3    H171324   1.383   5.694   2.485  0.8147 -1.7053 -0.1432
16611TIP3    H271325   1.404   5.810   2.390 -0.6906  0.0578  1.5986
16612TIP3   OH271326   0.523   6.828  15.860  0.0323 -0.0636 -0.4893
16612TIP3    H171327   0.471   6.836  15.940  0.7852  2.1987 -0.1589
16612TIP3    H271328   0.485   6.752  15.814  0.2575 -2.0926  2.4246
16613TIP3   OH271329   4.618   3.550  16.092  0.1552 -0.1498  0.2039
16613TIP3    H171330   4.681   3.532  16.162 -0.7380  1.0452  1.3608
16613TIP3    H271331   4.534   3.561  16.137 -0.0415  3.0894 -0.7190
16614TIP3   OH271332   6.442   5.498   2.543  0.2034  0.5161 -0.0685
16614TIP3    H171333   6.357   5.537   2.523 -0.3763  0.1852  1.5770
16614TIP3    H271334   6.436   5.474   2.635  1.9882  0.2053 -0.0016
16615TIP3   OH271335   0.813   4.991  15.279  0.1471 -0.4682 -0.1226
16615TIP3    H171336   0.845   5.006  15.368  0.7333 -1.1563 -0.2030
16615TIP3    H271337   0.823   4.897  15.266  1.1361 -0.2304 -1.2958
16616TIP3   OH271338   5.815   5.955   6.147 -0.5282  0.5840  0.3503
16616TIP3    H171339   5.883   5.890   6.130  1.4686  1.8896  2.6762
16616TIP3    H271340   5.863   6.033   6.175 -2.8856  2.6407 -0.8940
16617TIP3   OH271341   3.683   1.482   3.205 -0.5851  0.0072  0.2077
16617TIP3    H171342   3.609   1.434   3.167 -0.2976 -1.2511  1.1621
16617TIP3    H271343   3.756   1.462   3.147 -0.6378 -0.0637  0.1645
16618TIP3   OH271344   3.980   5.467  11.266  0.4890 -0.0057  0.2059
16618TIP3    H171345   3.974   5.391  11.208  1.3384  0.3241 -0.3380
16618TIP3    H271346   3.906   5.523  11.240  0.8218  0.1080 -0.5356
16619TIP3   OH271347   6.267   3.692  11.652  0.0998  0.1991 -0.7838
16619TIP3    H171348   6.262   3.601  11.622 -1.3650 -0.4042  1.1025
16619TIP3    H271349   6.330   3.733  11.593  0.5233 -1.9348 -1.9202
16620TIP3   OH271350   6.347   3.873  12.264 -0.1112 -0.4386 -0.2050
16620TIP3    H171351   6.375   3.818  12.338 -1.1766  1.1792  1.5019
16620TIP3    H271352   6.428   3.892  12.217  1.0506  0.4777  1.9972
16621TIP3   OH271353   0.241   2.439   4.474  0.2296 -0.3794  0.1955
16621TIP3    H171354   0.286   2.355   4.471 -0.3467 -0.6713 -1.7528
16621TIP3    H271355   0.260   2.479   4.389 -1.1087  0.5934  0.3191
16622TIP3   OH271356   2.275   4.045   0.580  0.3132  0.2344  0.0180
16622TIP3    H171357   2.299   4.072   0.669  2.6506 -0.5574 -0.3006
16622TIP3    H271358   2.273   4.127   0.530 -0.4413  0.6218  0.6674
16623TIP3   OH271359   1.376   4.475  16.428  0.3986 -0.2458  0.0814
16623TIP3    H171360   1.339   4.547  16.479 -2.1484 -0.6994 -0.9628
16623TIP3    H271361   1.456   4.512  16.388  1.2062  0.7859  2.4903
16624TIP3   OH271362   4.862   3.464  14.685 -0.5326  0.1559 -0.2468
16624TIP3    H171363   4.860   3.536  14.623 -0.9603  0.1339 -0.2611
16624TIP3    H271364   4.795   3.485  14.750  0.2425  0.4203  0.4871
16625TIP3   OH271365   4.877   2.926   5.984  0.5381  0.1296  0.2884
16625TIP3    H171366   4.843   2.993   5.924  1.6911 -0.1439 -0.7070
16625TIP3    H271367   4.972   2.929   5.971  1.2423  2.1961  4.3570
16626TIP3   OH271368   0.809   2.356  17.032  0.3866  0.3817 -0.2738
16626TIP3    H171369   0.839   2.432  16.982 -0.1036  1.6415  1.2658
16626TIP3    H271370   0.888   2.304  17.047  1.0411  1.4178  0.0007
16627TIP3   OH271371   2.454   1.932   1.818  0.4875  0.2762 -0.2253
16627TIP3    H171372   2.374   1.931   1.766  0.8482  1.1032 -0.8195
16627TIP3    H271373   2.523   1.905   1.756  0.6267 -0.8311  0.3828
16628TIP3   OH271374   0.580   0.899   2.246 -0.7852  0.5825  0.0191
16628TIP3    H171375   0.513   0.946   2.297  2.0134  3.5657  1.3775
16628TIP3    H271376   0.581   0.942   2.161 -1.4214 -0.3418 -0.4702
16629TIP3   OH271377   5.732   5.956   4.795  0.4028  0.2618  0.1242
16629TIP3    H171378   5.679   5.988   4.722 -0.6765  0.7441  1.0886
16629TIP3    H271379   5.750   5.864   4.774 -1.5127 -0.1533  0.1268
16630TIP3   OH271380   6.682   5.872   3.759  0.1257  0.0830 -0.3223
16630TIP3    H171381   6.744   5.944   3.752  0.0427  0.2893  0.8536
16630TIP3    H271382   6.596   5.913   3.748  0.1146  0.0729 -0.2760
16631TIP3   OH271383   1.830   3.002  12.149 -0.1574  0.1092  0.0779
16631TIP3    H171384   1.833   3.044  12.063 -0.3370  1.2169  0.5916
16631TIP3    H271385   1.781   2.921  12.134  0.9437 -0.3722 -1.1097
16632TIP3   OH271386   5.539   5.375  12.140 -0.1129  0.0505 -0.1889
16632TIP3    H171387   5.564   5.360  12.232  1.7514 -0.8281 -0.7950
16632TIP3    H271388   5.607   5.433  12.106  0.5078 -1.4112 -1.5800
16633TIP3   OH271389   4.298   1.621   5.197 -0.3043  0.1498 -0.4604
16633TIP3    H171390   4.325   1.533   5.172  0.7532  0.5918 -0.9458
16633TIP3    H271391   4.304   1.672   5.117 -1.0769  0.6315 -0.2189
16634TIP3   OH271392   4.471   4.844   3.584  0.2302 -0.4012 -0.1944
16634TIP3    H171393   4.431   4.757   3.580  0.6104 -0.5210 -1.9155
16634TIP3    H271394   4.561   4.830   3.554  0.4090  0.5209 -0.1011
16635TIP3   OH271395   6.076   5.932   4.368 -0.7617 -0.0158 -0.2069
16635TIP3    H171396   6.029   5.987   4.430  0.5443 -0.1305  0.9357
16635TIP3    H271397   6.160   5.915   4.410  0.2368  0.0102 -2.0642
16636TIP3   OH271398   1.350   2.347  15.014  0.3263  0.5630  0.6430
16636TIP3    H171399   1.434   2.369  15.052  0.8594  1.2600 -0.8519
16636TIP3    H271400   1.339   2.253  15.033  0.8348  0.7481  1.9237
16637TIP3   OH271401   0.471   4.925  12.519 -0.0173 -0.0729 -0.2428
16637TIP3    H171402   0.384   4.954  12.547  0.2077  1.6752 -1.2140
16637TIP3    H271403   0.519   5.006  12.501  3.1058 -0.7557  3.6584
16638TIP3   OH271404   2.229   0.946  15.350  0.1606  0.3146  0.0050
16638TIP3    H171405   2.154   0.896  15.318 -0.1263  0.7875 -0.0786
16638TIP3    H271406   2.277   0.885  15.405  0.6475 -0.5100 -1.2854
16639TIP3   OH271407   2.437   3.186   5.067 -0.8340 -0.6752  0.2789
16639TIP3    H171408   2.468   3.264   5.112 -0.5591  0.1091 -1.2225
16639TIP3    H271409   2.341   3.195   5.067 -0.7932  1.3558 -2.5911
16640TIP3   OH271410   0.308   4.325  14.362 -0.0571 -0.1759 -0.0770
16640TIP3    H171411   0.280   4.400  14.414  0.4722 -0.6005  0.8455
16640TIP3    H271412   0.233   4.264  14.367  0.3342 -0.5933  0.9603
16641TIP3   OH271413   6.127   0.919   2.713 -0.1228 -0.0728  0.1043
16641TIP3    H171414   6.128   0.828   2.681 -1.3484  0.1893 -0.7542
16641TIP3    H271415   6.048   0.924   2.767  0.6798  0.1335  1.2848
16642TIP3   OH271416   3.358   3.932  16.677  0.3678 -0.0550 -0.2096
16642TIP3    H171417   3.423   3.863  16.665  0.9888  0.7903 -2.0591
16642TIP3    H271418   3.388   4.004  16.622 -1.7972  0.5973 -0.6524
16643TIP3   OH271419   6.172   6.075   3.725  0.5851  1.0156  0.1588
16643TIP3    H171420   6.237   6.017   3.766 -1.2416 -0.8642  0.5661
16643TIP3    H271421   6.093   6.063   3.776 -0.2394  2.9254 -0.5834
16644TIP3   OH271422   2.771   4.910  12.290  0.3885  0.0563 -0.3194
16644TIP3    H171423   2.777   5.003  12.311 -2.4308 -0.0642  1.6628
16644TIP3    H271424   2.751   4.868  12.374  1.2547 -2.3156 -1.2047
16645TIP3   OH271425   2.912   3.417  15.679 -0.0822  0.2340  0.3639
16645TIP3    H171426   2.818   3.415  15.660  0.3526 -1.2224 -2.1264
16645TIP3    H271427   2.930   3.509  15.697 -1.7963  0.7483 -0.2775
16646TIP3   OH271428   0.505   4.649  16.572  0.1314 -0.4526  0.2020
16646TIP3    H171429   0.444   4.642  16.498  0.1474 -0.8792  0.2229
16646TIP3    H271430   0.484   4.573  16.627  1.4763 -1.2948 -0.3962
16647TIP3   OH271431   6.044   5.626   4.652 -0.4275 -0.4773  0.1853
16647TIP3    H171432   6.031   5.531   4.650 -0.1878 -0.5000 -1.2208
16647TIP3    H271433   6.066   5.649   4.562 -0.8558  0.9748  0.4305
16648TIP3   OH271434   6.171   5.459   0.797 -0.1490 -0.1250  0.3238
16648TIP3    H171435   6.153   5.547   0.763  0.7636 -0.3856 -0.9088
16648TIP3    H271436   6.089   5.431   0.837 -0.4992  1.2175  0.5864
16649TIP3   OH271437   4.936   3.335  12.827 -0.1352  0.1300  0.0226
16649TIP3    H171438   4.847   3.300  12.827  0.4468 -1.6674  2.4273
16649TIP3    H271439   4.931   3.415  12.776 -3.2038  0.2827  0.3766
16650TIP3   OH271440   5.261   1.049   4.452 -0.2001 -0.0885 -1.2288
16650TIP3    H171441   5.245   1.041   4.546  1.4113  1.9390 -0.7063
16650TIP3    H271442   5.217   0.973   4.414 -3.1116  0.3294  0.8729
16651TIP3   OH271443   2.547   3.120  16.163  0.1443 -0.0263 -0.0479
16651TIP3    H171444   2.525   3.184  16.095 -0.8968 -0.3492 -0.0360
16651TIP3    H271445   2.486   3.139  16.234  0.2505 -0.6253  0.2048
16652TIP3   OH271446   0.646   4.558  12.886 -0.3246 -0.1198  0.5202
16652TIP3    H171447   0.624   4.533  12.797 -0.7047  0.1045  0.5489
16652TIP3    H271448   0.662   4.652  12.881  0.2855 -0.2176  0.5672
16653TIP3   OH271449   2.852   5.041   5.537  0.2447 -0.2272  0.1596
16653TIP3    H171450   2.829   5.121   5.490  0.6586 -0.1079  0.1594
16653TIP3    H271451   2.769   4.994   5.546  0.2228 -0.4811 -1.1219
16654TIP3   OH271452   4.087   3.036  14.316  0.5223 -0.2807  0.0412
16654TIP3    H171453   4.158   3.074  14.264  0.1774  2.2364  1.2632
16654TIP3    H271454   4.007   3.076  14.280  0.0838 -0.2479  1.0322
16655TIP3   OH271455   0.188   2.507  15.237  0.2679 -0.3156  0.4659
16655TIP3    H171456   0.108   2.493  15.186  1.8351 -0.4394 -2.1644
16655TIP3    H271457   0.209   2.600  15.224  1.6931 -0.7713 -0.8037
16656TIP3   OH271458   3.651   5.374  13.689  0.0526  0.1594  0.1150
16656TIP3    H171459   3.739   5.403  13.667 -0.4099  0.1232 -1.9935
16656TIP3    H271460   3.655   5.279  13.684 -0.4245  0.1981 -1.4977
16657TIP3   OH271461   3.989   5.641  13.262  0.1034 -0.1391 -0.2976
16657TIP3    H171462   3.894   5.646  13.250  0.0115  1.1019  0.7180
16657TIP3    H271463   4.022   5.723  13.226  0.6934 -0.1875  0.1167
16658TIP3   OH271464   2.243   4.388  16.232 -0.0344 -0.6872 -0.0283
16658TIP3    H171465   2.196   4.356  16.155 -0.7379 -0.7327  0.4047
16658TIP3    H271466   2.293   4.313  16.263  0.1424 -0.7074 -0.3524
16659TIP3   OH271467   6.839   2.658   5.765 -0.1123  0.5309  0.4741
16659TIP3    H171468   6.778   2.593   5.798 -1.0031  0.4441 -1.2031
16659TIP3    H271469   6.783   2.722   5.720  0.9827  0.6786 -0.7422
16660TIP3   OH271470   4.594   0.951   3.243 -0.6163  0.1608  0.3119
16660TIP3    H171471   4.578   0.872   3.294  1.0871  0.5897  1.6064
16660TIP3    H271472   4.629   1.014   3.307  0.4689  1.1118 -1.1541
16661TIP3   OH271473   0.054   3.229   0.281 -0.0183  0.2466 -0.0302
16661TIP3    H171474   0.103   3.212   0.201 -0.9278 -1.4174 -0.2697
16661TIP3    H271475  -0.006   3.301   0.258  0.9159  0.9484 -0.3059
16662TIP3   OH271476   4.596   5.720   0.243 -0.1829  0.2491 -0.3738
16662TIP3    H171477   4.662   5.690   0.181 -1.3125 -0.2637 -1.3728
16662TIP3    H271478   4.596   5.816   0.234  1.4926  0.4046  0.7993
16663TIP3   OH271479   1.508   0.001  14.182 -0.9414 -0.4969 -0.2686
16663TIP3    H171480   1.532  -0.082  14.222 -0.4535 -0.5436 -0.6450
16663TIP3    H271481   1.492   0.060  14.256  2.5842  0.1969  0.1290
16664TIP3   OH271482   5.259   0.863  10.716 -0.3262  0.5645  0.5812
16664TIP3    H171483   5.214   0.933  10.765 -0.7781  0.0478  0.9205
16664TIP3    H271484   5.301   0.908  10.643  1.1157  1.5002  1.9179
16665TIP3   OH271485   4.088   6.696   5.295  0.5004  0.1938 -0.3209
16665TIP3    H171486   4.103   6.647   5.214  1.5385 -0.6641  0.3628
16665TIP3    H271487   3.996   6.681   5.315  0.7591 -1.4155 -0.1975
16666TIP3   OH271488   5.869   3.801   4.646  0.2238  0.7769 -0.0499
16666TIP3    H171489   5.843   3.767   4.732 -1.3642 -1.3073 -1.2628
16666TIP3    H271490   5.842   3.893   4.648 -0.1652  0.6578  1.5288
16667TIP3   OH271491   2.585   4.042  11.504  0.2637 -0.5733 -0.1261
16667TIP3    H171492   2.651   4.111  11.496 -0.0333 -0.3436 -0.6313
16667TIP3    H271493   2.593   4.013  11.595 -0.7843  1.3545  0.6603
16668TIP3   OH271494   1.443   3.982   0.089 -0.4830  0.4217  0.3361
16668TIP3    H171495   1.526   4.029   0.080  0.8350 -1.2852  2.4345
16668TIP3    H271496   1.459   3.920   0.160 -2.9249 -1.4107 -0.5869
16669TIP3   OH271497   1.618   5.712   5.030  0.3404  0.2824  0.4710
16669TIP3    H171498   1.665   5.731   5.111 -0.5852  1.2635  0.8059
16669TIP3    H271499   1.682   5.725   4.960  0.2383  3.2065  0.7866
16670TIP3   OH271500   0.943   1.987   3.540  0.2483  0.1026  0.6029
16670TIP3    H171501   0.936   1.921   3.609 -1.7013 -0.5178 -0.1123
16670TIP3    H271502   0.860   2.034   3.543  0.6411  0.9204 -0.4883
16671TIP3   OH271503   1.543   4.125   3.856  0.2649 -0.1876 -0.5531
16671TIP3    H171504   1.586   4.040   3.844 -1.0907 -0.7568 -1.6146
16671TIP3    H271505   1.569   4.176   3.779  0.2157 -0.0051 -0.4500
16672TIP3   OH271506   6.728   0.744  12.595 -0.5761 -0.5179  0.0226
16672TIP3    H171507   6.794   0.810  12.576  0.9290 -1.1004  2.6787
16672TIP3    H271508   6.671   0.785  12.661 -1.0807 -1.0279 -0.0814
16673TIP3   OH271509   1.241   5.884  17.049  0.4637 -0.1366 -0.3343
16673TIP3    H171510   1.258   5.947  16.979 -0.2687  1.2434  0.6899
16673TIP3    H271511   1.301   5.910  17.119 -0.1705 -0.3043  0.2741
16674TIP3   OH271512   0.640   1.878   2.889 -0.4877  0.1725 -0.3171
16674TIP3    H171513   0.717   1.935   2.883 -0.8972  0.6979 -0.7114
16674TIP3    H271514   0.647   1.821   2.812 -0.1300 -0.2425  0.0229
16675TIP3   OH271515   3.468   0.010  11.235 -0.1121  0.4977  0.1787
16675TIP3    H171516   3.515  -0.063  11.193  0.3139  0.8881 -0.0276
16675TIP3    H271517   3.396   0.029  11.175 -1.0928 -0.6852  0.9191
16676TIP3   OH271518   2.432   1.138  12.984 -0.1037 -0.1095 -0.3823
16676TIP3    H171519   2.524   1.114  12.971 -0.0189 -0.4316  0.7176
16676TIP3    H271520   2.390   1.057  13.013 -0.6333  0.1546 -0.4051
16677TIP3   OH271521   0.140   2.613  16.042 -0.0196 -0.3788  0.3358
16677TIP3    H171522   0.149   2.566  15.960  1.3746 -0.0639  0.2733
16677TIP3    H271523   0.220   2.667  16.047 -1.2948  1.5802  0.6450
16678TIP3   OH271524   3.371   3.775   4.873 -0.5224  0.3017  0.4644
16678TIP3    H171525   3.454   3.728   4.881 -0.0250  1.0319 -0.2433
16678TIP3    H271526   3.305   3.710   4.896  0.0410 -1.2078 -1.7869
16679TIP3   OH271527   1.469   6.380   4.167 -0.0325  0.0386  0.3273
16679TIP3    H171528   1.396   6.355   4.111 -1.7078 -1.8422  3.0684
16679TIP3    H271529   1.504   6.297   4.199  1.2121  0.9946  1.5912
16680TIP3   OH271530   2.451   6.029   5.538  0.0644  0.3054 -0.3502
16680TIP3    H171531   2.513   6.051   5.608  2.5689 -0.1962 -2.2433
16680TIP3    H271532   2.425   5.939   5.557 -0.7355  0.7776  0.8899
16681TIP3   OH271533   6.517   6.454   0.480  0.4023 -0.0769  0.3160
16681TIP3    H171534   6.580   6.382   0.473  0.2663 -0.4189  2.0797
16681TIP3    H271535   6.432   6.414   0.460  0.5102 -0.0648 -0.1625
16682TIP3   OH271536   2.599   4.247  13.192 -0.4017 -0.1525 -0.2180
16682TIP3    H171537   2.627   4.325  13.145  2.5893 -0.4624  0.8319
16682TIP3    H271538   2.507   4.235  13.167  0.3659  0.9378 -4.1307
16683TIP3   OH271539   6.780   6.517   4.722  0.0376 -0.3607  0.3913
16683TIP3    H171540   6.766   6.469   4.640 -1.3167  0.5329  0.0692
16683TIP3    H271541   6.810   6.604   4.694 -0.2581 -0.1105  0.8431
16684TIP3   OH271542   4.563   1.228   2.240  0.0340  0.0703 -0.1743
16684TIP3    H171543   4.618   1.149   2.238 -1.3295 -0.9633  1.1917
16684TIP3    H271544   4.595   1.277   2.316 -0.9079 -0.5493  0.6429
16685TIP3   OH271545   5.715   2.662   3.265  0.4617 -0.7693  0.4787
16685TIP3    H171546   5.693   2.731   3.202 -0.4936 -3.2879 -2.1974
16685TIP3    H271547   5.811   2.662   3.268  0.5217 -0.2819 -0.6963
16686TIP3   OH271548   3.468   5.829   3.016 -0.3857  0.4785 -1.1917
16686TIP3    H171549   3.561   5.819   2.998 -0.7092 -0.3293 -2.5019
16686TIP3    H271550   3.446   5.757   3.075 -0.2827  0.3482 -1.3127
16687TIP3   OH271551   5.657   2.910  16.446  0.2945  0.5285 -0.0208
16687TIP3    H171552   5.690   2.872  16.365  0.3069 -1.1951  0.7545
16687TIP3    H271553   5.736   2.925  16.499  0.2577  1.3238 -0.1838
16688TIP3   OH271554   0.470   1.029   6.415 -0.5803  0.4735 -0.5495
16688TIP3    H171555   0.435   0.990   6.495 -1.6197  0.0289 -1.1883
16688TIP3    H271556   0.561   1.000   6.411 -0.5295  0.4836  0.4514
16689TIP3   OH271557   0.676   5.108   1.763 -0.1833  0.1630  0.2875
16689TIP3    H171558   0.626   5.156   1.829  1.8198  0.8323  1.4274
16689TIP3    H271559   0.618   5.037   1.735 -1.7691  0.9502  1.4365
16690TIP3   OH271560   6.365   6.542  13.931  0.1632  0.0173  0.0381
16690TIP3    H171561   6.384   6.492  13.851 -1.2327  0.7948 -0.8128
16690TIP3    H271562   6.408   6.626  13.917 -0.2859  0.2414 -0.0175
16691TIP3   OH271563   6.445   4.013   5.832  0.0557 -0.5102  0.3603
16691TIP3    H171564   6.518   4.074   5.827  0.6363 -1.1310  1.0377
16691TIP3    H271565   6.414   4.005   5.742  0.0573  0.6606  0.2394
16692TIP3   OH271566   3.454   6.612   3.915  0.3787  0.0757 -0.2118
16692TIP3    H171567   3.427   6.531   3.871  3.9334 -0.8359 -1.0615
16692TIP3    H271568   3.415   6.606   4.002  2.2429 -3.8228  0.5950
16693TIP3   OH271569   3.217   3.606  13.561  0.2958  0.5321 -0.3139
16693TIP3    H171570   3.299   3.574  13.523  0.3237  0.0038  0.1729
16693TIP3    H271571   3.234   3.607  13.655 -1.1599 -2.3126  0.0624
16694TIP3   OH271572   3.050   0.332   3.389 -0.0768 -0.0978  0.1378
16694TIP3    H171573   2.989   0.377   3.330 -0.8109 -0.4714  0.5967
16694TIP3    H271574   3.107   0.282   3.330  0.6171  1.2394 -0.3689
16695TIP3   OH271575   0.302   6.569   3.411 -0.3880 -0.4140 -0.1355
16695TIP3    H171576   0.340   6.604   3.491 -0.4477 -0.6679  0.0081
16695TIP3    H271577   0.330   6.629   3.342 -0.1955 -0.2883  0.0508
16696TIP3   OH271578   6.686   5.153  11.257 -0.3851 -0.7151 -0.4796
16696TIP3    H171579   6.615   5.089  11.256 -1.6569  0.6209 -0.0700
16696TIP3    H271580   6.671   5.204  11.337  1.1217 -0.4674 -0.3191
16697TIP3   OH271581   2.458   5.861   4.291 -0.3059 -0.0537 -0.4347
16697TIP3    H171582   2.484   5.954   4.294 -0.9087  0.0922  0.5797
16697TIP3    H271583   2.487   5.832   4.205  1.6004  0.5757 -0.0701
16698TIP3   OH271584   1.807   4.988   3.983  0.8055 -0.4796 -0.0039
16698TIP3    H171585   1.860   5.068   3.977  1.7985 -1.0624  0.6488
16698TIP3    H271586   1.859   4.929   4.037 -0.7331 -0.9093  1.0930
16699TIP3   OH271587   6.702   3.343   2.875  0.0216 -0.5233  0.6745
16699TIP3    H171588   6.785   3.372   2.913 -0.0979  2.2667 -0.9418
16699TIP3    H271589   6.640   3.347   2.948  0.4574  1.5699  1.0042
16700TIP3   OH271590   1.656   5.722  14.515  0.4876 -0.0596  0.7738
16700TIP3    H171591   1.580   5.701  14.569 -0.4489 -1.8947 -1.1323
16700TIP3    H271592   1.728   5.731  14.578 -0.8273 -0.5146  2.4331
16701TIP3   OH271593   2.459   1.449  14.894  0.1064  0.4998 -0.6612
16701TIP3    H171594   2.397   1.523  14.891 -1.2745 -0.5907 -0.1813
16701TIP3    H271595   2.407   1.376  14.929  1.9264 -0.2371  0.6563
16702TIP3   OH271596   4.473   5.699   3.329 -0.4714  0.0273  0.3884
16702TIP3    H171597   4.409   5.629   3.335 -1.6627  1.0262 -0.1028
16702TIP3    H271598   4.453   5.742   3.246 -0.2806  1.4165  1.0322
16703TIP3   OH271599   5.963   2.558   3.305  0.0961 -0.2952  0.2153
16703TIP3    H171600   5.990   2.477   3.349 -0.1049 -0.5833 -0.1895
16703TIP3    H271601   6.043   2.590   3.263  0.3159  0.0418  0.8802
16704TIP3   OH271602   1.147   4.617   5.586 -0.2230 -0.3981  0.4360
16704TIP3    H171603   1.240   4.627   5.565 -0.5819  0.9778 -0.6364
16704TIP3    H271604   1.109   4.577   5.508 -0.7929  0.5042  0.2384
16705TIP3   OH271605   3.818   0.232  12.070 -0.4461  0.0643  0.4222
16705TIP3    H171606   3.807   0.164  12.003  1.2581 -0.0230  0.1705
16705TIP3    H271607   3.771   0.199  12.146  1.5152 -2.1452  0.7842
16706TIP3   OH271608   2.630   4.076  12.120  0.3108 -0.1194 -0.4124
16706TIP3    H171609   2.682   4.000  12.095 -3.8048 -3.4126 -0.0127
16706TIP3    H271610   2.601   4.114  12.037 -0.3488 -1.1213 -0.6516
16707TIP3   OH271611   4.914   5.571   5.584 -0.0853 -0.5424 -0.3986
16707TIP3    H171612   4.886   5.601   5.497 -1.5614  2.4773  0.9614
16707TIP3    H271613   5.007   5.593   5.588  0.4283 -2.2645 -1.7421
16708TIP3   OH271614   1.916   6.298   3.438  0.4345  0.1179  0.5325
16708TIP3    H171615   1.999   6.341   3.415  1.4162 -2.0836 -0.3990
16708TIP3    H271616   1.941   6.229   3.499 -0.7643 -0.4076  0.4539
16709TIP3   OH271617   3.149   1.440   1.991  0.3270  0.1897  0.6021
16709TIP3    H171618   3.072   1.407   2.037  0.3434 -3.0772 -1.3711
16709TIP3    H271619   3.114   1.480   1.911  0.5933 -0.1409  0.3166
16710TIP3   OH271620   6.610   3.090  13.351 -0.1173  0.2950 -0.3889
16710TIP3    H171621   6.669   3.037  13.405 -1.2778  0.9312  1.5781
16710TIP3    H271622   6.604   3.042  13.269  1.7560 -0.6795 -0.0208
16711TIP3   OH271623   0.498   3.383  10.831  0.9577  0.6274 -0.0936
16711TIP3    H171624   0.413   3.379  10.787  0.3632 -1.0105  1.1197
16711TIP3    H271625   0.558   3.343  10.768 -0.0185 -2.3878  0.7197
16712TIP3   OH271626   3.011   3.036  13.129 -0.3991  0.5317 -0.5545
16712TIP3    H171627   2.931   3.005  13.086  0.5373 -1.0088 -1.3013
16712TIP3    H271628   3.028   2.971  13.197  0.8256  0.1684 -1.1762
16713TIP3   OH271629   6.296   2.267  15.522  0.1650 -0.1181 -0.2728
16713TIP3    H171630   6.257   2.247  15.436 -1.3193 -0.3282  0.4233
16713TIP3    H271631   6.387   2.239  15.513 -0.2990 -1.4352 -1.3573
16714TIP3   OH271632   2.664   4.618  12.676 -0.6354 -0.2030  0.5968
16714TIP3    H171633   2.755   4.614  12.648 -0.2684  1.0449  1.5187
16714TIP3    H271634   2.653   4.706  12.712 -1.8652 -0.7443  1.6445
16715TIP3   OH271635   5.724   2.533   3.860  0.0605 -0.3547 -0.5767
16715TIP3    H171636   5.689   2.577   3.783  1.6567  3.2514  0.5267
16715TIP3    H271637   5.818   2.531   3.846  0.3340 -0.1246  0.9941
16716TIP3   OH271638   6.657   5.071  13.527 -0.4828 -0.7106  0.3523
16716TIP3    H171639   6.649   5.065  13.622  0.4267 -3.3923  0.3391
16716TIP3    H271640   6.700   5.155  13.512 -0.5176 -0.2956  2.2996
16717TIP3   OH271641   1.156   5.150  14.000  0.3614  0.1161  0.2489
16717TIP3    H171642   1.097   5.077  13.981  0.7180  0.3209 -1.9084
16717TIP3    H271643   1.150   5.162  14.095 -1.5415 -1.1328  0.3351
16718TIP3   OH271644   5.614   5.605   4.549 -0.9311 -0.0636  0.4127
16718TIP3    H171645   5.591   5.633   4.460 -0.1651 -1.1460 -0.1480
16718TIP3    H271646   5.554   5.654   4.605  0.4837  2.9158 -0.4458
16719TIP3   OH271647   2.186   1.605  14.048 -0.1943 -0.2765  0.7516
16719TIP3    H171648   2.091   1.608  14.051 -0.3781 -1.9751 -1.1997
16719TIP3    H271649   2.212   1.586  14.138 -1.7101 -0.2928  1.2165
16720TIP3   OH271650   4.453   4.658  13.074 -0.7716 -0.1148  0.2911
16720TIP3    H171651   4.410   4.613  13.001  0.6242 -0.3180 -0.4509
16720TIP3    H271652   4.535   4.690  13.037 -0.8726  1.4086  1.3124
16721TIP3   OH271653   2.479   4.766   4.162 -0.0929  0.0576  0.6052
16721TIP3    H171654   2.476   4.680   4.119  0.7789 -0.6584  1.9176
16721TIP3    H271655   2.468   4.829   4.090 -1.2491 -1.1359 -0.3211
16722TIP3   OH271656   3.155   6.057   3.959  0.1692 -0.0521 -0.0218
16722TIP3    H171657   3.078   6.029   4.010 -0.2541 -0.5682 -0.9063
16722TIP3    H271658   3.151   6.004   3.880  1.5191 -0.1651 -0.0370
16723TIP3   OH271659   1.789   2.960   4.177 -0.1534 -0.3646 -0.0799
16723TIP3    H171660   1.732   2.904   4.230  0.6326 -0.8549  0.2611
16723TIP3    H271661   1.778   3.048   4.215  2.1710 -1.0532  2.5333
16724TIP3   OH271662   0.930   5.018  12.635 -0.1192 -0.2021 -0.4929
16724TIP3    H171663   0.908   4.932  12.670  0.0375  0.0515  0.2364
16724TIP3    H271664   0.891   5.080  12.697 -1.2724  0.2740 -1.6275
16725TIP3   OH271665   2.487   5.757  12.866 -0.0182 -0.0739  0.2646
16725TIP3    H171666   2.543   5.834  12.871  1.6918 -1.1502 -1.0417
16725TIP3    H271667   2.547   5.686  12.842 -1.6345 -1.6917  0.8293
16726TIP3   OH271668   3.242   3.165  13.025 -0.1141 -0.5113  0.9975
16726TIP3    H171669   3.167   3.126  13.069 -0.8990 -0.4583 -0.2481
16726TIP3    H271670   3.209   3.192  12.939  1.3491 -0.5919  0.3706
16727TIP3   OH271671   6.402   6.741  14.515  0.1235 -0.3337  0.2441
16727TIP3    H171672   6.330   6.707  14.461 -0.8026  2.5293 -0.4900
16727TIP3    H271673   6.474   6.753  14.454 -0.7425  2.3569 -0.3860
16728TIP3   OH271674   2.987   3.493  14.240 -0.5919  0.2802 -0.2258
16728TIP3    H171675   2.959   3.583  14.223 -0.0788  0.8341  1.6419
16728TIP3    H271676   2.918   3.456  14.296 -0.1128 -0.0050  0.1850
16729TIP3   OH271677   0.342   5.611  14.585 -0.2824 -0.3594  0.0923
16729TIP3    H171678   0.433   5.628  14.606 -0.2195 -1.5416  0.8692
16729TIP3    H271679   0.297   5.694  14.602  0.8023  0.6063 -1.4648
16730TIP3   OH271680   4.554   1.784   0.509  0.1068 -0.1265 -0.1583
16730TIP3    H171681   4.529   1.757   0.421  0.7295 -1.0321 -0.0731
16730TIP3    H271682   4.645   1.813   0.500 -0.2072  0.9318 -0.0339
16731TIP3   OH271683   2.257   0.699  12.441 -0.3432 -0.4620 -0.0839
16731TIP3    H171684   2.285   0.730  12.355  1.8852 -0.8878  0.4410
16731TIP3    H271685   2.245   0.605  12.430 -2.7276 -0.1890 -0.5370
16732TIP3   OH271686   1.763   2.542  16.339 -0.4685  0.2885 -0.5060
16732TIP3    H171687   1.703   2.474  16.307  0.4231 -0.8720  0.2021
16732TIP3    H271688   1.708   2.620  16.348 -1.7386 -0.5769 -0.4793
16733TIP3   OH271689   4.453   4.668   5.522 -0.3579  0.3419 -0.1881
16733TIP3    H171690   4.533   4.663   5.574 -1.0689 -0.8609  0.8714
16733TIP3    H271691   4.461   4.596   5.459 -0.9571 -0.3643  0.5100
16734TIP3   OH271692   1.288   0.902   5.001 -0.9597 -0.1763  0.4054
16734TIP3    H171693   1.238   0.822   5.017 -1.9208 -0.1485 -1.9870
16734TIP3    H271694   1.243   0.944   4.928  0.8310  1.4174  0.1313
16735TIP3   OH271695   4.982   3.965   2.174 -0.0591  0.2785  0.2789
16735TIP3    H171696   5.012   4.053   2.195 -3.2915  1.0988  2.0560
16735TIP3    H271697   4.890   3.975   2.151 -0.7584 -2.7092  1.2782
16736TIP3   OH271698   4.276   1.903  14.432 -0.0079  0.1440  0.2851
16736TIP3    H171699   4.344   1.965  14.457 -0.0598  0.4977 -0.4237
16736TIP3    H271700   4.208   1.956  14.391 -0.0636 -0.3713 -0.3029
16737TIP3   OH271701   4.835   0.480  11.899  0.1011  0.1354 -0.1582
16737TIP3    H171702   4.825   0.412  11.966  1.3629  0.3658  0.2976
16737TIP3    H271703   4.872   0.434  11.823  1.5143  0.3683  0.3479
16738TIP3   OH271704   3.811   2.027   1.231 -0.1160  0.5658  0.0496
16738TIP3    H171705   3.859   2.017   1.149 -2.4997 -0.0224 -1.3736
16738TIP3    H271706   3.772   2.114   1.226 -0.2029  0.5650  0.6221
16739TIP3   OH271707   1.680   2.105  16.037 -0.3312 -0.0609 -0.0627
16739TIP3    H171708   1.733   2.028  16.056  0.5046  0.3471 -0.6290
16739TIP3    H271709   1.603   2.097  16.093  1.2117  0.2776  2.2696
16740TIP3   OH271710   6.729   5.618   2.318  0.2467  0.2775 -0.3713
16740TIP3    H171711   6.791   5.584   2.382 -0.1593 -0.7313 -0.4891
16740TIP3    H271712   6.768   5.699   2.286  1.6549 -0.5020 -0.6833
16741TIP3   OH271713   4.491   1.159  17.077 -0.1197  0.0904 -0.6063
16741TIP3    H171714   4.478   1.079  17.127  0.1344  0.1347 -0.4650
16741TIP3    H271715   4.413   1.167  17.023 -0.5739  0.2549  0.0744
16742TIP3   OH271716   6.378   2.372   0.180 -0.0898  0.1486  0.0424
16742TIP3    H171717   6.372   2.409   0.091  0.7262 -0.8784 -0.4633
16742TIP3    H271718   6.457   2.317   0.177  1.2960  1.8899  2.0802
16743TIP3   OH271719   3.591   2.892  12.969  0.0459 -0.3224 -0.1270
16743TIP3    H171720   3.657   2.958  12.950  0.6268 -0.2845  1.8269
16743TIP3    H271721   3.521   2.910  12.906  0.3260  1.9616  0.1263
16744TIP3   OH271722   5.954   1.721   5.254 -0.0370 -0.2814  0.3383
16744TIP3    H171723   6.034   1.673   5.278 -0.9754 -1.6803  0.7992
16744TIP3    H271724   5.971   1.753   5.166  0.0879 -2.8042 -0.6421
16745TIP3   OH271725   5.057   5.981  14.066 -0.3284  0.6682  0.4932
16745TIP3    H171726   5.135   6.011  14.112  0.2063  1.8487 -1.0899
16745TIP3    H271727   4.984   6.024  14.110  0.1793  1.8624  0.1969
16746TIP3   OH271728   4.843   6.071  14.234 -0.3673 -0.2761  0.4330
16746TIP3    H171729   4.759   6.030  14.256 -0.2407 -1.0890 -0.5641
16746TIP3    H271730   4.825   6.122  14.155  0.2933 -1.2331 -0.3521
16747TIP3   OH271731   3.963   4.671   3.442  0.3397 -0.4628  0.0143
16747TIP3    H171732   3.919   4.629   3.368  0.2764 -1.5971  0.6692
16747TIP3    H271733   3.944   4.614   3.516 -1.0245  1.5100  1.2853
16748TIP3   OH271734   6.732   0.336  12.710  0.4521  0.1724  0.4029
16748TIP3    H171735   6.790   0.367  12.780 -0.1949  0.5940  0.7602
16748TIP3    H271736   6.752   0.243  12.702 -0.1125 -0.0840  1.7774
16749TIP3   OH271737   3.073   4.143  13.909  0.0991  0.1306 -0.1440
16749TIP3    H171738   3.093   4.226  13.866 -0.6812 -1.0439 -3.0352
16749TIP3    H271739   3.139   4.082  13.876  0.3800 -0.5716  1.5719
16750TIP3   OH271740   0.015   4.183   0.093 -0.0522 -0.4812  0.2271
16750TIP3    H171741  -0.043   4.164   0.019  1.5464  0.6074 -1.3761
16750TIP3    H271742   0.100   4.202   0.054  1.2901 -1.4103  2.4578
16751TIP3   OH271743   4.649   2.884   3.487  0.2042  0.0512 -0.2697
16751TIP3    H171744   4.737   2.893   3.452  0.4981 -1.0928  0.1412
16751TIP3    H271745   4.659   2.896   3.581 -0.4474  2.1875 -0.4098
16752TIP3   OH271746   2.950   0.723  15.786 -0.1944  0.2667 -0.2364
16752TIP3    H171747   2.873   0.778  15.802 -1.1144 -1.4107  1.6359
16752TIP3    H271748   3.011   0.746  15.856 -0.2256 -0.4624  0.0354
16753TIP3   OH271749   1.629   1.067  12.673 -0.1136 -0.0992  0.1914
16753TIP3    H171750   1.654   1.038  12.585 -1.1460 -1.5611  0.3512
16753TIP3    H271751   1.651   1.160  12.674  0.0579 -0.0818 -1.5653
16754TIP3   OH271752   5.827   6.025  12.283 -0.0120  0.7764 -0.3534
16754TIP3    H171753   5.873   5.942  12.271  0.5478  0.9097  0.7319
16754TIP3    H271754   5.813   6.031  12.378 -0.6467  1.6020 -0.4916
16755TIP3   OH271755   5.293   4.170   0.381 -0.0614  0.0269 -0.8757
16755TIP3    H171756   5.340   4.252   0.396  1.7967 -1.0815 -0.2905
16755TIP3    H271757   5.201   4.195   0.383  0.4187  1.9632  0.1456
16756TIP3   OH271758   6.819   2.467  10.578  0.8853  0.3665  0.3315
16756TIP3    H171759   6.915   2.466  10.579  0.9562  1.0234 -1.7340
16756TIP3    H271760   6.797   2.558  10.598  0.6109 -0.0078  1.8993
16757TIP3   OH271761   0.942   6.788  12.775 -0.4371 -0.3662  0.0733
16757TIP3    H171762   0.882   6.719  12.800  0.1108 -0.8695  0.0179
16757TIP3    H271763   0.951   6.843  12.853  1.5911 -2.1517  1.1970
16758TIP3   OH271764   1.537   5.853   3.416  0.2272  0.4214 -0.4492
16758TIP3    H171765   1.515   5.763   3.393 -1.4303  1.0743 -1.6747
16758TIP3    H271766   1.633   5.854   3.419  0.2698 -1.5379  0.3934
16759TIP3   OH271767   6.477   2.971   1.588 -0.0162  0.8023 -0.1283
16759TIP3    H171768   6.501   3.040   1.650  0.1876 -0.3902  1.1600
16759TIP3    H271769   6.559   2.925   1.570 -0.4534 -0.2449  0.4764
16760TIP3   OH271770   0.798   2.104   4.625  0.2616 -0.1105  0.2162
16760TIP3    H171771   0.855   2.029   4.609 -1.0214 -1.1126  0.2141
16760TIP3    H271772   0.854   2.180   4.606  1.5582 -1.0416  0.1146
16761TIP3   OH271773   3.655   4.553   4.841  0.3712 -0.4518  0.0686
16761TIP3    H171774   3.635   4.639   4.877  0.5791 -0.0756 -0.6887
16761TIP3    H271775   3.573   4.504   4.850  0.4523 -0.4077  1.1310
16762TIP3   OH271776   4.717   5.213   2.809 -0.2257 -0.6213  0.1806
16762TIP3    H171777   4.760   5.286   2.764 -0.7616 -0.6017 -0.3178
16762TIP3    H271778   4.667   5.254   2.879 -1.4617 -0.3603 -0.8118
16763TIP3   OH271779   6.163   5.185  11.534 -0.1505  0.5455 -0.4610
16763TIP3    H171780   6.151   5.091  11.549 -4.5915  0.5866 -2.4173
16763TIP3    H271781   6.238   5.190  11.474  0.7250 -1.6129  0.3432
16764TIP3   OH271782   6.246   6.445   1.640  0.7358 -0.1018 -0.2560
16764TIP3    H171783   6.289   6.360   1.630 -1.0402 -1.1534  0.4297
16764TIP3    H271784   6.317   6.509   1.636  2.5475 -1.7793  2.1348
16765TIP3   OH271785   3.483   4.129  15.249 -0.2596 -0.1635 -0.1347
16765TIP3    H171786   3.452   4.211  15.287  0.0120  0.4231 -1.1310
16765TIP3    H271787   3.564   4.153  15.204  0.1842 -1.1202  0.1233
16766TIP3   OH271788   4.617   6.840   5.227 -0.2723 -0.3845 -0.3196
16766TIP3    H171789   4.611   6.856   5.133  2.6406 -1.1519 -0.7334
16766TIP3    H271790   4.619   6.745   5.236  1.3685 -0.3307  0.2769
16767TIP3   OH271791   3.724   6.095   1.610  0.2416  0.3653  0.1381
16767TIP3    H171792   3.636   6.108   1.647 -0.0666  0.8356 -0.7438
16767TIP3    H271793   3.760   6.184   1.604  0.1652  0.3266 -0.9834
16768TIP3   OH271794   4.470   4.562  15.996  0.2622  0.0868 -0.0504
16768TIP3    H171795   4.409   4.574  16.070  0.8874 -2.0045  0.8903
16768TIP3    H271796   4.549   4.525  16.036  1.5557  1.1805 -1.4758
16769TIP3   OH271797   3.143   1.003  11.332 -0.3355 -0.6358 -0.3994
16769TIP3    H171798   3.222   1.028  11.284  0.3024  0.6123  1.2251
16769TIP3    H271799   3.082   0.973  11.264  0.4231  1.2907 -2.0151
16770TIP3   OH271800   4.370   2.712   6.653  0.1385  0.1918 -0.1446
16770TIP3    H171801   4.286   2.725   6.608 -1.4048 -2.0753  1.8445
16770TIP3    H271802   4.433   2.763   6.601 -2.0517  0.3295 -2.9223
16771TIP3   OH271803   0.304   6.734  14.580  0.3872  0.0564 -0.7004
16771TIP3    H171804   0.281   6.666  14.643  1.5882 -0.1686 -0.4870
16771TIP3    H271805   0.248   6.808  14.602  0.0467 -0.3889 -0.0574
16772TIP3   OH271806   2.665   0.151  16.023 -0.1161  0.2732  0.0357
16772TIP3    H171807   2.716   0.232  16.028 -0.1569  0.2465  1.0253
16772TIP3    H271808   2.579   0.179  15.992 -0.0660  0.5811  0.1672
16773TIP3   OH271809   5.401   4.182  12.090 -0.4465  0.0041 -0.1943
16773TIP3    H171810   5.379   4.092  12.111 -1.2619  0.1913 -0.2077
16773TIP3    H271811   5.468   4.175  12.023 -0.4901 -0.5931 -0.1808
16774TIP3   OH271812   3.048   2.058   1.424 -0.6637 -0.5432 -0.9091
16774TIP3    H171813   3.085   2.041   1.337 -0.0697  0.8419 -0.9577
16774TIP3    H271814   2.955   2.071   1.407 -0.8432 -1.9525 -1.0881
16775TIP3   OH271815   3.891   2.369   2.867  0.6258  0.2589  0.3573
16775TIP3    H171816   3.949   2.319   2.925 -0.9626  0.5561  2.2961
16775TIP3    H271817   3.854   2.303   2.808  0.8805 -0.3430  0.8568
16776TIP3   OH271818   5.556   3.449  13.528  0.1587 -0.1801  0.0618
16776TIP3    H171819   5.620   3.428  13.597  3.1854  1.1262 -2.1037
16776TIP3    H271820   5.554   3.371  13.473  0.5956  0.0748 -0.3275
16777TIP3   OH271821   5.932   2.481   2.100 -0.0197  0.7684  0.3021
16777TIP3    H171822   5.942   2.525   2.184 -1.3460  1.7204 -0.0170
16777TIP3    H271823   5.893   2.396   2.122 -0.2848  0.9805  0.6523
16778TIP3   OH271824   5.989   3.819   0.247 -0.5932 -0.3227  0.5892
16778TIP3    H171825   5.967   3.781   0.162  2.0277 -0.9888  0.0926
16778TIP3    H271826   5.961   3.754   0.311 -1.0128 -0.6243  0.0981
16779TIP3   OH271827   4.523   3.731   2.555 -0.5567  0.2495 -0.0842
16779TIP3    H171828   4.606   3.730   2.508  0.5323 -2.0315  1.7219
16779TIP3    H271829   4.468   3.667   2.509 -1.1357  1.2812 -0.8797
16780TIP3   OH271830   2.959   3.045   6.069  0.5761  0.5066  0.3207
16780TIP3    H171831   2.986   2.954   6.081 -1.1160  0.0338  0.8112
16780TIP3    H271832   2.925   3.071   6.154 -1.2051  0.7843 -0.4335
16781TIP3   OH271833   5.384   0.539  14.066 -0.2153  0.9347 -0.9418
16781TIP3    H171834   5.436   0.619  14.056  0.9540  0.1971 -0.9044
16781TIP3    H271835   5.448   0.470  14.086 -0.9332 -0.4198 -2.9831
16782TIP3   OH271836   6.015   3.167   1.073  0.0759 -0.4247 -0.3601
16782TIP3    H171837   6.015   3.075   1.045 -1.2628 -0.1368 -1.4150
16782TIP3    H271838   5.962   3.212   1.007  1.2211  1.2310 -0.1890
16783TIP3   OH271839   5.204   1.304   0.047  0.1940  0.2331 -0.0490
16783TIP3    H171840   5.225   1.337  -0.041 -1.5455 -2.7245 -1.7284
16783TIP3    H271841   5.127   1.354   0.073  0.2611  0.6167 -0.5630
16784TIP3   OH271842   3.389   2.416  11.221  0.0112 -0.7810  0.4508
16784TIP3    H171843   3.365   2.363  11.298 -0.4851  0.6525  1.3303
16784TIP3    H271844   3.484   2.408  11.215 -0.1622 -3.2154 -0.5750
16785TIP3   OH271845   4.555   4.850  12.604  0.5840  0.0760  0.0402
16785TIP3    H171846   4.651   4.854  12.614  0.6909  0.0991 -0.8992
16785TIP3    H271847   4.528   4.942  12.606  1.0161  0.4067 -3.2892
16786TIP3   OH271848   2.185   5.937   4.621  0.2912 -0.1399  0.0362
16786TIP3    H171849   2.131   5.864   4.589  0.6779 -1.2220  1.7177
16786TIP3    H271850   2.271   5.897   4.636  1.0020  1.0869 -0.6244
16787TIP3   OH271851   2.017   1.244   4.659  0.1958  0.1435  0.0386
16787TIP3    H171852   2.020   1.217   4.751 -0.0053  0.5413  0.1635
16787TIP3    H271853   2.003   1.162   4.611 -2.8468  0.2492  0.5814
16788TIP3   OH271854   5.205   6.760   1.911  0.2227 -0.1258 -0.2373
16788TIP3    H171855   5.300   6.759   1.914  0.3359 -1.3151 -2.6359
16788TIP3    H271856   5.183   6.818   1.838 -0.9948  1.4584  1.2883
16789TIP3   OH271857   4.957   5.458  11.658  0.4536  0.0212  0.1866
16789TIP3    H171858   5.046   5.485  11.681 -0.0263  0.6548  1.4258
16789TIP3    H271859   4.914   5.539  11.632  0.1960 -0.2631 -0.2789
16790TIP3   OH271860   6.149   6.079  13.053 -0.4502  0.4548  0.2011
16790TIP3    H171861   6.181   6.132  12.980 -2.6095  0.6616 -0.6469
16790TIP3    H271862   6.105   6.141  13.110 -2.2792 -0.2444 -0.3800
16791TIP3   OH271863   4.165   0.296  16.008 -0.3457  0.2002 -0.4531
16791TIP3    H171864   4.173   0.379  16.054  2.5088  0.3810 -1.0871
16791TIP3    H271865   4.256   0.266  15.997 -1.1522 -1.7791 -2.4210
16792TIP3   OH271866   4.747   4.855   1.144 -0.4268  0.0004 -0.0515
16792TIP3    H171867   4.811   4.914   1.184 -1.3589  0.8034  0.3003
16792TIP3    H271868   4.796   4.808   1.076  1.2634 -1.5231  2.0628
16793TIP3   OH271869   3.952   3.283  11.848  0.4178  0.1951 -0.6885
16793TIP3    H171870   3.872   3.301  11.898  1.5025  0.4815  1.0322
16793TIP3    H271871   3.945   3.337  11.770 -0.7108  0.8167 -0.1743
16794TIP3   OH271872   6.763   3.801   1.382 -0.0346 -0.0685 -0.2384
16794TIP3    H171873   6.679   3.791   1.427 -1.1387  0.9642 -1.9604
16794TIP3    H271874   6.758   3.886   1.340  2.1965  0.3293  0.1857
16795TIP3   OH271875   0.068   2.514   1.485 -0.0733 -0.1890  0.2461
16795TIP3    H171876   0.158   2.486   1.468 -0.3372 -1.4801  0.9176
16795TIP3    H271877   0.017   2.476   1.413 -0.2719 -0.5493  0.5739
16796TIP3   OH271878   6.411   3.534  16.265  1.0035  0.1287 -0.2920
16796TIP3    H171879   6.449   3.451  16.236  1.9310  0.0573  1.0128
16796TIP3    H271880   6.480   3.598  16.250  0.8994  0.3634  0.1992
16797TIP3   OH271881   1.858   5.031   5.740  0.1054 -0.3483 -0.6992
16797TIP3    H171882   1.912   5.003   5.666 -0.4773  0.5230 -1.4833
16797TIP3    H271883   1.919   5.070   5.802  0.3536  1.2607 -1.8781
16798TIP3   OH271884   5.573   6.823   3.490 -0.0645 -0.5307 -0.4714
16798TIP3    H171885   5.601   6.847   3.579 -2.0257 -0.4281  0.1633
16798TIP3    H271886   5.533   6.737   3.500 -1.4218  0.0122 -0.9975
16799TIP3   OH271887   6.219   4.451   4.174  0.3791 -0.0039  0.1313
16799TIP3    H171888   6.196   4.476   4.264 -1.7489  0.4260 -0.4823
16799TIP3    H271889   6.210   4.356   4.173 -0.5511  0.0746  0.1472
16800TIP3   OH271890   4.804   6.302   3.557 -0.1311  0.3744 -0.0265
16800TIP3    H171891   4.859   6.314   3.479  0.5887  0.9150  0.5486
16800TIP3    H271892   4.725   6.353   3.539  0.8728  2.1599  0.3933
16801TIP3   OH271893   0.618   5.837   5.069 -0.0963  0.0590 -0.0949
16801TIP3    H171894   0.591   5.910   5.124  0.3022  0.7183 -0.7559
16801TIP3    H271895   0.537   5.795   5.042 -0.3836  0.8379 -0.4774
16802TIP3   OH271896   2.154   6.059  13.528  0.3433  0.5799 -0.0308
16802TIP3    H171897   2.230   6.039  13.582  1.2563  1.8072 -0.8231
16802TIP3    H271898   2.188   6.066  13.439 -0.5446  1.8839 -0.2998
16803TIP3   OH271899   0.289   3.979  11.358 -0.1106  0.4350 -0.0920
16803TIP3    H171900   0.249   4.036  11.424 -2.5399 -2.0778  0.8240
16803TIP3    H271901   0.358   3.932  11.405  0.7621  1.3670 -0.4105
16804TIP3   OH271902   5.586   5.770  16.597 -0.1446  0.3371 -0.8310
16804TIP3    H171903   5.503   5.759  16.552 -0.2564  1.8818 -1.0464
16804TIP3    H271904   5.639   5.825  16.539 -0.4044  2.6356  0.9781
16805TIP3   OH271905   1.951   6.005   2.009  0.4385 -0.2402 -0.1746
16805TIP3    H171906   1.892   5.935   1.982  0.2316 -1.0161  2.0659
16805TIP3    H271907   2.030   5.961   2.038  1.0822  0.6126 -0.5789
16806TIP3   OH271908   5.158   0.067   0.717 -0.3507 -0.1606 -0.7947
16806TIP3    H171909   5.214   0.022   0.780  1.9227  3.1744 -0.1700
16806TIP3    H271910   5.159   0.012   0.639  1.0658 -1.8459  0.3386
16807TIP3   OH271911   4.283   6.544   2.131 -0.4496 -0.2215 -0.3804
16807TIP3    H171912   4.308   6.506   2.215 -0.3323  0.7709  0.0544
16807TIP3    H271913   4.297   6.638   2.143 -1.0365 -0.0074 -1.3070
16808TIP3   OH271914   2.885   0.264  15.421 -0.3738  0.2614  0.7360
16808TIP3    H171915   2.790   0.263  15.431 -0.5515  1.5652 -0.4716
16808TIP3    H271916   2.910   0.352  15.449  0.5129 -0.1282  1.2003
16809TIP3   OH271917   6.443   3.741  10.661  0.1229  0.0160  0.0563
16809TIP3    H171918   6.389   3.682  10.608  1.6912  0.0209 -1.6081
16809TIP3    H271919   6.392   3.822  10.665 -0.6245 -0.4222 -0.2688
16810TIP3   OH271920   3.730   5.359  15.426  0.1349 -0.4006  0.6928
16810TIP3    H171921   3.698   5.273  15.401  0.4997 -0.2722 -0.2565
16810TIP3    H271922   3.824   5.346  15.443  0.4483  0.0242 -0.6156
16811TIP3   OH271923   1.837   5.459  11.244 -0.4488 -0.0627 -0.1304
16811TIP3    H171924   1.788   5.437  11.323 -1.9215 -0.6162 -1.1382
16811TIP3    H271925   1.800   5.543  11.216  2.6832  2.1470  1.7460
16812TIP3   OH271926   4.056   4.848  12.552 -0.0851  0.2347  0.0042
16812TIP3    H171927   4.140   4.884  12.580 -0.2773  0.8828 -0.2383
16812TIP3    H271928   4.079   4.772  12.499  0.4476  1.7104 -1.9842
16813TIP3   OH271929   3.929   5.267  11.072 -0.0153 -0.9648 -0.5383
16813TIP3    H171930   3.855   5.277  11.012  0.3613 -0.6877 -0.9569
16813TIP3    H271931   4.005   5.253  11.015  0.4878  0.1585 -0.1823
16814TIP3   OH271932   6.455   6.097   1.241 -0.1307 -0.1829 -0.0368
16814TIP3    H171933   6.525   6.130   1.297  0.1172 -0.8086  0.0243
16814TIP3    H271934   6.484   6.010   1.214 -0.9378 -0.5105  0.1052
16815TIP3   OH271935   2.872   4.143   3.962 -0.3839  0.2242  0.4838
16815TIP3    H171936   2.859   4.233   3.992  0.2230  0.7945 -0.8913
16815TIP3    H271937   2.891   4.152   3.869  0.6198 -1.2675  0.5280
16816TIP3   OH271938   0.310   4.279   5.445  0.1056 -0.5810 -0.3073
16816TIP3    H171939   0.274   4.215   5.384  1.8189 -1.2485 -0.6648
16816TIP3    H271940   0.285   4.246   5.532  0.4951 -1.4471 -0.5135
16817TIP3   OH271941   5.639   2.340  11.272  0.8026 -0.2805  0.5054
16817TIP3    H171942   5.728   2.368  11.295 -0.6337  2.8441  3.1148
16817TIP3    H271943   5.593   2.336  11.356 -1.5656 -1.7703 -0.7565
16818TIP3   OH271944   4.741   6.112  13.734 -0.4318  0.1490 -0.2167
16818TIP3    H171945   4.825   6.072  13.756  0.1718  0.6397 -1.4912
16818TIP3    H271946   4.754   6.206  13.749 -1.4378  0.0387  1.5563
16819TIP3   OH271947   1.080   4.727   2.731  0.0023  0.0325  0.7622
16819TIP3    H171948   1.083   4.631   2.726  0.7775  0.1012 -1.0636
16819TIP3    H271949   1.171   4.753   2.745 -0.1354  0.5189  0.7611
16820TIP3   OH271950   1.539   5.428  12.711 -0.1831  0.5097 -0.1225
16820TIP3    H171951   1.599   5.457  12.643 -1.6773  0.5743 -1.4635
16820TIP3    H271952   1.499   5.349  12.676 -0.3923  0.0848  1.0352
16821TIP3   OH271953   4.054   0.363  11.823  0.1391 -0.3692  0.2132
16821TIP3    H171954   3.973   0.414  11.825  0.4178  0.1975  3.9015
16821TIP3    H271955   4.025   0.273  11.808 -0.7153  0.2479 -2.3565
16822TIP3   OH271956   0.115   4.677  13.574  0.2434 -0.0429  0.1158
16822TIP3    H171957   0.136   4.591  13.608  0.4021  0.1443  0.4962
16822TIP3    H271958   0.176   4.736  13.619 -0.5238  0.3930  0.5986
16823TIP3   OH271959   4.989   1.482  12.818  0.5081  0.0773  0.5680
16823TIP3    H171960   4.926   1.411  12.827  0.9710 -0.3041  0.8391
16823TIP3    H271961   4.945   1.559  12.855  0.6876 -0.4774  1.9759
16824TIP3   OH271962   2.257   2.471  13.573  0.6146 -0.2217  0.1090
16824TIP3    H171963   2.291   2.508  13.654 -3.7780  0.1375  2.0689
16824TIP3    H271964   2.270   2.377  13.582  0.9971 -0.1117  0.7845
16825TIP3   OH271965   2.789   1.739  14.873 -0.8505 -0.3964  0.0470
16825TIP3    H171966   2.858   1.725  14.807  0.9465 -0.5381  1.8743
16825TIP3    H271967   2.832   1.725  14.957 -3.5108 -2.2015  1.2789
16826TIP3   OH271968   2.207   6.377  12.811 -0.1143 -0.4888 -0.2526
16826TIP3    H171969   2.204   6.348  12.720 -0.5555  0.0033 -0.4011
16826TIP3    H271970   2.120   6.359  12.845  0.1279 -0.9163  0.1580
16827TIP3   OH271971   3.886   2.220  16.878 -0.0184 -0.1064 -1.0822
16827TIP3    H171972   3.931   2.264  16.806  1.2241 -1.3332 -1.1029
16827TIP3    H271973   3.942   2.236  16.954  0.5200 -1.6676 -1.1086
16828TIP3   OH271974   6.448   4.511  13.336 -0.0636  0.3117 -0.2421
16828TIP3    H171975   6.400   4.514  13.419 -1.3259  0.9231 -0.9497
16828TIP3    H271976   6.472   4.419  13.325 -0.9493  0.0101  0.2229
16829TIP3   OH271977   2.164   1.852  14.563  0.3411 -0.4744  0.3941
16829TIP3    H171978   2.241   1.801  14.539 -0.0224 -1.4614  1.2962
16829TIP3    H271979   2.090   1.804  14.525 -0.0468 -0.9191  1.6640
16830TIP3   OH271980   2.019   1.642   4.151 -0.3819 -0.0846 -0.1119
16830TIP3    H171981   1.955   1.652   4.222 -0.7806 -0.1367 -0.4653
16830TIP3    H271982   2.036   1.731   4.122 -0.7630 -0.1196 -0.4376
16831TIP3   OH271983   5.717   6.286   3.837  0.5230  0.3141 -0.3751
16831TIP3    H171984   5.778   6.214   3.819  0.3411  0.0903 -0.1048
16831TIP3    H271985   5.699   6.280   3.931  1.1815  1.2539 -0.1819
16832TIP3   OH271986   4.521   5.009   0.361 -0.7193  0.0109  0.0697
16832TIP3    H171987   4.517   5.053   0.446  1.1324 -0.3393  0.3889
16832TIP3    H271988   4.518   5.081   0.297 -2.1220  0.2731  0.4104
16833TIP3   OH271989   4.979   1.975  12.723 -0.4405  0.2632  0.1393
16833TIP3    H171990   4.975   2.068  12.745  0.8396  0.2638  0.4359
16833TIP3    H271991   5.032   1.972  12.643 -0.3225 -0.2229  0.2349
16834TIP3   OH271992   5.040   3.741   5.741 -0.2027  0.1661 -0.1950
16834TIP3    H171993   5.006   3.687   5.811 -0.8827  1.7323  0.7385
16834TIP3    H271994   5.075   3.679   5.677  0.3975 -1.3075  1.4802
16835TIP3   OH271995   0.442   1.149  11.128  0.0320  0.2416 -0.5625
16835TIP3    H171996   0.425   1.070  11.077 -2.0645  0.6857 -0.6226
16835TIP3    H271997   0.359   1.196  11.128  1.2617  2.5416 -0.6593
16836TIP3   OH271998   4.822   3.252   0.555 -0.2082 -0.2151 -0.1247
16836TIP3    H171999   4.793   3.236   0.645  0.8406 -1.9610 -0.0562
16836TIP3    H272000   4.870   3.335   0.560 -0.8981  0.1472  0.7345
16837TIP3   OH272001   6.006   5.393  11.493  0.5150  0.5625 -0.0449
16837TIP3    H172002   6.077   5.455  11.475  0.2946  1.1677  1.0671
16837TIP3    H272003   6.050   5.314  11.523  0.7279  1.1962  1.3943
16838TIP3   OH272004   1.155   3.348   2.941  0.3082 -0.0632  0.3424
16838TIP3    H172005   1.193   3.331   2.854 -1.9699  0.9051 -0.9353
16838TIP3    H272006   1.125   3.439   2.936 -0.8008 -0.3223  1.7763
16839TIP3   OH272007   6.717   3.773  14.280  0.3981  0.2740  0.4522
16839TIP3    H172008   6.722   3.712  14.353 -0.4386  0.8534  0.9958
16839TIP3    H272009   6.673   3.724  14.210 -0.1943  0.2206  0.8597
16840TIP3   OH272010   3.351   5.588  16.456 -0.0512  0.1102 -0.3902
16840TIP3    H172011   3.352   5.494  16.437  0.9965  0.2111 -0.9191
16840TIP3    H272012   3.425   5.600  16.517  1.3686  0.9341 -2.1861
16841TIP3   OH272013   1.838   3.060  14.137  0.1407  0.1879 -0.5082
16841TIP3    H172014   1.922   3.083  14.097  1.4243 -2.6766  0.2950
16841TIP3    H272015   1.858   3.055  14.231 -0.7965 -1.0332 -0.3573
16842TIP3   OH272016   1.193   3.911  13.416  0.0870 -0.2672 -0.0732
16842TIP3    H172017   1.280   3.884  13.444  0.4996  1.8417  0.8708
16842TIP3    H272018   1.153   3.951  13.493 -0.5586  1.4690 -1.2193
16843TIP3   OH272019   2.537   2.212   5.841  0.5775  0.4090 -0.0914
16843TIP3    H172020   2.459   2.254   5.803  1.2173  0.7205 -1.0958
16843TIP3    H272021   2.530   2.230   5.935 -1.2206 -0.6618  0.0320
16844TIP3   OH272022   0.368   0.188  12.661  1.1225 -0.3525 -0.1296
16844TIP3    H172023   0.424   0.189  12.584 -0.4035 -2.5244 -1.3619
16844TIP3    H272024   0.295   0.246  12.639  0.6116 -1.0894 -0.3982
16845TIP3   OH272025   2.783   1.925   0.685  0.0788  0.1530 -0.0444
16845TIP3    H172026   2.805   1.916   0.592  1.7161 -0.2750  0.3433
16845TIP3    H272027   2.698   1.882   0.694  0.5638 -1.0870 -1.1076
16846TIP3   OH272028   6.296   1.611   1.881  0.1185  0.5375 -0.2357
16846TIP3    H172029   6.259   1.693   1.849 -4.0694 -1.0442 -0.1796
16846TIP3    H272030   6.334   1.570   1.803  3.4059  2.8344 -0.0398
16847TIP3   OH272031   3.691   4.773  16.638  0.0466  0.2317  0.1705
16847TIP3    H172032   3.667   4.865  16.633  0.2195  0.3457  1.1973
16847TIP3    H272033   3.697   4.755  16.732  2.1640 -0.2474 -0.0044
16848TIP3   OH272034   3.620   2.250   3.541  0.4832 -0.5319 -0.3238
16848TIP3    H172035   3.574   2.167   3.530  0.3704 -0.5070 -0.0258
16848TIP3    H272036   3.605   2.275   3.632 -0.5424  0.4502 -0.7378
16849TIP3   OH272037   5.959   1.964  13.989 -0.1866  0.0765 -0.5388
16849TIP3    H172038   5.972   1.873  13.960 -0.9313 -0.5572  1.0008
16849TIP3    H272039   5.867   1.969  14.013 -0.1807  1.2812 -0.6960
16850TIP3   OH272040   3.815   5.013  16.938 -0.6565 -0.0158  0.3569
16850TIP3    H172041   3.723   4.997  16.918 -1.0294  0.1515  1.7791
16850TIP3    H272042   3.827   4.977  17.026  0.7350 -0.3379  0.0608
16851TIP3   OH272043   4.236   5.586   1.772 -0.0301 -0.0621  0.1297
16851TIP3    H172044   4.298   5.514   1.781  1.3959  1.2851  1.8015
16851TIP3    H272045   4.261   5.630   1.691  1.5604  0.6993  0.9727
16852TIP3   OH272046   5.263   3.456  13.478  0.3212  0.4059 -0.2289
16852TIP3    H172047   5.345   3.409  13.491  0.7568  1.1306 -0.2548
16852TIP3    H272048   5.198   3.407  13.528  0.9631  0.3544  0.5758
16853TIP3   OH272049   4.753   6.050  10.905  0.0454 -0.0663  0.2766
16853TIP3    H172050   4.822   6.091  10.853  0.8209  0.2255  1.4870
16853TIP3    H272051   4.676   6.106  10.892  0.3424  0.2276 -0.2170
16854TIP3   OH272052   0.091   5.687   3.323  0.2060 -0.4450 -0.2586
16854TIP3    H172053   0.179   5.701   3.288  0.3517 -2.4360 -0.8493
16854TIP3    H272054   0.086   5.743   3.400  0.9246  1.8810 -1.8071
16855TIP3   OH272055   4.591   3.860  13.419  0.1388  0.6288  0.3808
16855TIP3    H172056   4.613   3.773  13.451 -0.7854 -0.5268 -1.8995
16855TIP3    H272057   4.607   3.856  13.325 -2.0155  2.2196 -0.1295
16856TIP3   OH272058   4.819   1.865  12.294 -0.4870 -0.0859 -0.1102
16856TIP3    H172059   4.840   1.948  12.250 -0.5790 -0.1852 -0.3435
16856TIP3    H272060   4.896   1.810  12.279 -1.8516 -1.3723 -3.1957
16857TIP3   OH272061   1.871   3.439  16.585 -0.1675  0.6207  0.2782
16857TIP3    H172062   1.956   3.400  16.563  0.2783  1.3086  0.7491
16857TIP3    H272063   1.832   3.376  16.647 -0.1123  0.1874 -0.1182
16858TIP3   OH272064   6.471   1.677   5.700  0.1360 -0.6751 -0.1534
16858TIP3    H172065   6.418   1.712   5.772  0.8747 -0.1829  0.1679
16858TIP3    H272066   6.422   1.698   5.621  1.1554  2.3603 -0.0932
16859TIP3   OH272067   5.817   3.193  12.412  0.0464 -0.4618  0.4303
16859TIP3    H172068   5.775   3.257  12.471  0.5759  0.4675 -0.1657
16859TIP3    H272069   5.777   3.210  12.326  0.9433 -0.2091  0.0505
16860TIP3   OH272070   2.652   3.949  15.108  0.2208 -0.0473 -0.4789
16860TIP3    H172071   2.588   3.973  15.041  1.3428  0.8806 -1.2340
16860TIP3    H272072   2.604   3.959  15.191 -1.5631 -2.3600 -1.1010
16861TIP3   OH272073   5.716   2.681   0.676  0.2268 -0.3993  0.0905
16861TIP3    H172074   5.734   2.587   0.665  3.0685  0.0770  0.0211
16861TIP3    H272075   5.621   2.686   0.681 -0.2450 -2.9487 -3.0255
16862TIP3   OH272076   3.835   6.523   5.365  0.5136  0.1573 -0.0763
16862TIP3    H172077   3.799   6.585   5.428 -0.9237 -0.5191 -0.1956
16862TIP3    H272078   3.866   6.450   5.418 -0.4282 -0.2810 -0.1068
16863TIP3   OH272079   2.266   0.144  13.975 -0.3404 -0.4186 -0.1530
16863TIP3    H172080   2.260   0.201  14.052 -2.6138 -1.8007  0.8142
16863TIP3    H272081   2.254   0.056  14.010  1.3448 -1.3913 -1.8113
16864TIP3   OH272082   0.565   3.893  15.375  0.3559 -0.4825 -0.2817
16864TIP3    H172083   0.637   3.953  15.358 -0.4336  0.8808  0.9253
16864TIP3    H272084   0.490   3.950  15.391 -0.1703 -1.7039  2.0910
16865TIP3   OH272085   6.756   0.940  12.040 -0.3662 -0.1121  0.4944
16865TIP3    H172086   6.704   0.868  12.005 -0.1059 -0.0809  0.0375
16865TIP3    H272087   6.836   0.940  11.987  0.4358 -0.6316  1.6740
16866TIP3   OH272088   3.637   6.434   3.036  0.7439  0.5835  0.1093
16866TIP3    H172089   3.599   6.357   2.995  0.4489  1.7499 -1.9305
16866TIP3    H272090   3.732   6.422   3.028  0.8521 -0.8797  2.4644
16867TIP3   OH272091   6.480   4.462   1.381  0.2288 -0.4598  0.1056
16867TIP3    H172092   6.442   4.525   1.442 -0.7186 -1.2074  0.3104
16867TIP3    H272093   6.507   4.389   1.436 -0.2939 -0.9817 -0.3248
16868TIP3   OH272094   1.917   3.362  12.964  0.2805 -0.2679 -0.1722
16868TIP3    H172095   2.003   3.329  12.939  0.4893 -0.7096  1.0564
16868TIP3    H272096   1.856   3.294  12.935  0.2563  0.3553 -1.6517
16869TIP3   OH272097   3.892   3.552   1.925  0.5647 -0.0973  0.4919
16869TIP3    H172098   3.929   3.482   1.871 -1.9150  0.7050 -2.5775
16869TIP3    H272099   3.963   3.615   1.936  2.0045 -1.7043  0.8448
16870TIP3   OH272100   1.798   4.531   1.571  0.0635  0.1736  0.2641
16870TIP3    H172101   1.766   4.545   1.660 -1.3670 -0.6781 -0.0806
16870TIP3    H272102   1.722   4.550   1.516  1.0973  1.2527 -0.8193
16871TIP3   OH272103   6.344   3.702  10.932  0.1798  0.0969  0.1131
16871TIP3    H172104   6.266   3.646  10.933  0.5218 -0.4431 -1.0002
16871TIP3    H272105   6.365   3.711  10.839  0.8118  1.1344  0.3451
16872TIP3   OH272106   6.760   0.030  12.064  0.2974  0.3459 -0.2943
16872TIP3    H172107   6.698   0.100  12.085 -1.4491 -0.3669 -2.6651
16872TIP3    H272108   6.711  -0.051  12.079  1.7850 -0.3980  0.9138
16873TIP3   OH272109   5.165   6.408   3.580 -0.3935  0.3709  0.2803
16873TIP3    H172110   5.252   6.430   3.546 -0.3477  0.5252  0.4982
16873TIP3    H272111   5.163   6.312   3.580 -0.6931  0.3514 -0.9378
16874TIP3   OH272112   3.405   0.781   1.065  0.0083  0.3790 -0.1940
16874TIP3    H172113   3.431   0.737   0.985 -1.3125  1.5473 -1.3189
16874TIP3    H272114   3.466   0.855   1.073 -0.4349  0.7995 -0.6444
16875TIP3   OH272115   1.814   2.512  16.855  0.0898 -0.2685 -0.4066
16875TIP3    H172116   1.734   2.565  16.852  0.0232 -0.3324  0.1429
16875TIP3    H272117   1.813   2.472  16.942  0.7796 -0.1761 -0.3492
16876TIP3   OH272118   3.023   2.599   3.029 -0.3397 -0.2507  0.0282
16876TIP3    H172119   3.099   2.579   3.084 -0.9806  2.4200  2.0862
16876TIP3    H272120   2.953   2.544   3.063 -0.2467  0.0055  0.6407
16877TIP3   OH272121   6.805   4.185  13.332 -0.1267 -0.2895  0.8187
16877TIP3    H172122   6.756   4.103  13.342  2.0768 -1.8538 -0.3619
16877TIP3    H272123   6.757   4.233  13.265 -0.4018 -1.4703  0.1480
16878TIP3   OH272124   4.672   0.307   5.135  0.1793  0.1238 -0.1503
16878TIP3    H172125   4.717   0.381   5.175  0.7268 -0.7837  0.9790
16878TIP3    H272126   4.700   0.309   5.043  1.1499  0.6213  0.1394
16879TIP3   OH272127   5.356   4.822  13.271 -0.5108  0.2517  0.0160
16879TIP3    H172128   5.286   4.869  13.316  0.4909  1.7670  0.0809
16879TIP3    H272129   5.433   4.833  13.328  0.4144  0.9228 -1.3055
16880TIP3   OH272130   0.534   5.805   3.858  0.2144 -0.1236 -0.2847
16880TIP3    H172131   0.607   5.864   3.879  0.3501 -0.3799 -0.0326
16880TIP3    H272132   0.551   5.726   3.909 -1.6136  0.7748  1.9403
16881TIP3   OH272133   3.705   1.547  15.126 -0.4821  0.1390  0.9736
16881TIP3    H172134   3.660   1.609  15.183 -0.8841 -0.7070  1.6007
16881TIP3    H272135   3.640   1.525  15.059 -0.1659  0.7755  0.4441
16882TIP3   OH272136   1.832   0.730  13.890  0.1989  0.2442  0.1655
16882TIP3    H172137   1.779   0.788  13.836  1.7900  1.4562 -0.1652
16882TIP3    H272138   1.779   0.652  13.901 -1.7213  1.4672  0.0125
16883TIP3   OH272139   4.923   6.764  11.499 -0.5397 -1.0755 -0.3476
16883TIP3    H172140   4.875   6.753  11.580 -0.8662  3.3759  0.3273
16883TIP3    H272141   5.011   6.731  11.517 -0.2712  0.8298  2.3142
16884TIP3   OH272142   6.840   0.520   5.176 -0.0817 -0.3470  0.2264
16884TIP3    H172143   6.890   0.519   5.094 -1.3998  0.3695 -0.6167
16884TIP3    H272144   6.785   0.598   5.170  0.5114  0.2963  2.2556
16885TIP3   OH272145   2.974   5.063  12.088  0.1407  0.2308  0.0496
16885TIP3    H172146   3.056   5.019  12.112  0.2853 -0.1287 -1.0417
16885TIP3    H272147   2.909   5.025  12.146  0.0255 -2.3818 -1.6172
16886TIP3   OH272148   2.660   3.639   1.645 -0.2062  0.2651  0.3625
16886TIP3    H172149   2.732   3.595   1.690 -0.0647  0.8708  0.7370
16886TIP3    H272150   2.626   3.701   1.710  1.2478  2.5705 -0.9354
16887TIP3   OH272151   1.775   3.868  15.150 -0.2060  0.2694  0.2511
16887TIP3    H172152   1.818   3.784  15.132  0.4278  0.4743  0.7432
16887TIP3    H272153   1.738   3.857  15.237 -0.0612  0.5238  0.3447
16888TIP3   OH272154   5.288   5.512   2.811 -0.3216 -0.1217  0.5552
16888TIP3    H172155   5.316   5.578   2.874 -0.9913  1.4582 -0.7318
16888TIP3    H272156   5.317   5.429   2.849  1.5399  0.9796  1.6895
16889TIP3   OH272157   2.742   2.496  12.625 -0.5269 -0.2320  0.1086
16889TIP3    H172158   2.736   2.565  12.691 -0.0067 -2.0998  2.1903
16889TIP3    H272159   2.666   2.512  12.568 -2.2386  0.2059  2.3777
16890TIP3   OH272160   5.778   2.455  15.067  0.4030  0.5065 -0.0819
16890TIP3    H172161   5.790   2.488  15.157  1.5101 -0.6044  0.2049
16890TIP3    H272162   5.847   2.499  15.017  0.4763  0.3055 -0.1564
16891TIP3   OH272163   3.280   4.907   4.155 -0.8177 -0.1598  0.4235
16891TIP3    H172164   3.268   4.970   4.226 -2.7959  1.2615 -1.0720
16891TIP3    H272165   3.374   4.903   4.141 -0.5703  1.4672  1.4259
16892TIP3   OH272166   4.449   2.061  13.818 -0.5927 -0.3244  0.2579
16892TIP3    H172167   4.459   2.139  13.763  0.0515  0.3345  1.2851
16892TIP3    H272168   4.402   1.999  13.762 -1.0348  0.7589 -0.6149
16893TIP3   OH272169   4.984   4.397   3.251  0.1953  0.0151  0.4128
16893TIP3    H172170   5.053   4.455   3.283 -0.4290  1.5173 -0.8396
16893TIP3    H272171   4.904   4.431   3.289  0.0025 -1.1023  1.0423
16894TIP3   OH272172   1.799   3.488   6.122  0.6627 -0.1749 -0.1964
16894TIP3    H172173   1.794   3.449   6.035  1.5011 -0.1784 -0.2507
16894TIP3    H272174   1.874   3.547   6.118  0.9304 -0.4459  0.6284
16895TIP3   OH272175   2.732   4.752   5.477  0.0087 -0.0821 -0.1373
16895TIP3    H172176   2.710   4.768   5.386 -1.1789  3.9831  0.6422
16895TIP3    H272177   2.651   4.720   5.516 -0.1850  0.4719 -0.0794
16896TIP3   OH272178   2.807   4.370  16.121 -0.3941 -0.3884 -0.5178
16896TIP3    H172179   2.721   4.329  16.109 -1.0811  1.0026 -0.5599
16896TIP3    H272180   2.869   4.304  16.092 -1.3892 -1.8048  0.4733
16897TIP3   OH272181   3.153   6.683  13.787 -0.4703 -0.5130 -0.4040
16897TIP3    H172182   3.096   6.643  13.721 -1.3236 -0.1954  0.1193
16897TIP3    H272183   3.212   6.739  13.737 -0.2385 -1.2664 -1.0096
16898TIP3   OH272184   5.210   4.901  14.604  0.2765 -0.6680 -0.2030
16898TIP3    H172185   5.289   4.955  14.598  0.4374 -1.0380 -2.0500
16898TIP3    H272186   5.161   4.921  14.525 -0.7964 -1.5111  0.2219
16899TIP3   OH272187   3.875   0.809  13.490 -0.6922  1.0433  0.1955
16899TIP3    H172188   3.860   0.878  13.424  0.8147  2.0314  0.8220
16899TIP3    H272189   3.965   0.824  13.519 -1.2221  0.4367  2.2752
16900TIP3   OH272190   1.577   0.902  15.402  0.0952 -0.4196  0.2396
16900TIP3    H172191   1.538   0.985  15.428  0.7516 -0.5359  1.6833
16900TIP3    H272192   1.631   0.876  15.477 -0.0126 -2.0957 -0.2221
16901TIP3   OH272193   1.201   3.290   3.207 -0.1803  1.0266 -0.0812
16901TIP3    H172194   1.186   3.318   3.117  1.8697  1.3066 -0.3816
16901TIP3    H272195   1.162   3.359   3.261 -2.6719  0.1786 -0.6659
16902TIP3   OH272196   0.442   4.833  11.208 -0.0909  0.0816  0.0109
16902TIP3    H172197   0.495   4.775  11.153 -0.2480  0.1123 -0.1743
16902TIP3    H272198   0.431   4.913  11.155  0.5299  0.4759  0.4569
16903TIP3   OH272199   3.046   2.274  13.233 -0.1697 -0.0561 -0.0676
16903TIP3    H172200   3.051   2.291  13.138  0.0630 -0.0483 -0.0559
16903TIP3    H272201   3.050   2.361  13.273 -0.9558 -0.0103 -0.0697
16904TIP3   OH272202   1.257   0.754   1.544  0.0460  0.2512  0.5790
16904TIP3    H172203   1.171   0.735   1.509 -0.7144 -0.3715  2.6138
16904TIP3    H272204   1.305   0.671   1.538  0.2371  0.3890  0.1741
16905TIP3   OH272205   6.488   6.672  11.599  0.3819 -0.0480  1.1577
16905TIP3    H172206   6.473   6.583  11.633  0.8422 -0.3357  0.6254
16905TIP3    H272207   6.533   6.658  11.516  2.3447  0.7344  2.0301
16906TIP3   OH272208   0.572   6.566   4.017  0.3505 -0.5165 -0.4389
16906TIP3    H172209   0.654   6.528   4.050  0.2919 -0.6597 -0.4571
16906TIP3    H272210   0.601   6.638   3.961  0.4679 -0.6025 -0.4910
16907TIP3   OH272211   5.850   3.602  15.047 -0.0782  0.4230  0.4232
16907TIP3    H172212   5.761   3.637  15.056 -0.5775 -1.1291  2.0317
16907TIP3    H272213   5.846   3.546  14.970 -0.5136  0.2920  0.5386
16908TIP3   OH272214   0.175   6.351   5.690 -0.1202 -0.3222 -0.7244
16908TIP3    H172215   0.252   6.362   5.635  0.0810 -2.5100 -0.9865
16908TIP3    H272216   0.210   6.340   5.779 -0.1577 -0.7183 -0.7558
16909TIP3   OH272217   4.644   1.967   0.257  0.5979  0.1879  0.1142
16909TIP3    H172218   4.687   1.951   0.173  1.3809 -0.3707  0.6107
16909TIP3    H272219   4.595   2.048   0.243 -0.4835 -0.6493 -1.3287
16910TIP3   OH272220   1.697   3.776  14.873  0.1018  0.4743 -0.2795
16910TIP3    H172221   1.748   3.797  14.951 -2.3935  2.3159  0.9938
16910TIP3    H272222   1.714   3.849  14.813  0.2457  0.2376 -0.5265
16911TIP3   OH272223   1.580   5.622  14.766 -0.1539 -0.1346  0.2704
16911TIP3    H172224   1.654   5.572  14.802 -0.0013 -1.1549 -1.3814
16911TIP3    H272225   1.579   5.703  14.817  1.3410 -0.6312  1.1474
16912TIP3   OH272226   6.145   2.258   0.319  0.4426 -0.8630  0.5124
16912TIP3    H172227   6.143   2.207   0.238 -0.2773 -0.4073  0.2293
16912TIP3    H272228   6.211   2.325   0.303 -0.6064  0.0499 -0.2405
16913TIP3   OH272229   6.114   0.890  11.111  0.6866 -0.9289  0.0400
16913TIP3    H172230   6.209   0.878  11.116  0.9041  0.7520  0.6816
16913TIP3    H272231   6.077   0.815  11.158  1.8151 -0.3461  1.9779
16914TIP3   OH272232   1.862   2.388  12.416 -0.3274  0.2757  0.1610
16914TIP3    H172233   1.782   2.337  12.430 -0.8712  0.8801 -0.6813
16914TIP3    H272234   1.847   2.435  12.334  0.4523  1.2227  0.5357
16915TIP3   OH272235   4.780   3.073   1.844 -0.5203  0.1712 -0.4095
16915TIP3    H172236   4.697   3.056   1.798 -0.5905  0.4675 -0.3973
16915TIP3    H272237   4.767   3.035   1.931 -0.6411  0.2067 -0.4111
16916TIP3   OH272238   2.092   1.475   5.193  0.1780  0.6179  0.6078
16916TIP3    H172239   1.997   1.477   5.194  0.0985 -1.2299 -0.1702
16916TIP3    H272240   2.116   1.383   5.203  1.9293  1.1610  1.9611
16917TIP3   OH272241   0.150   2.557  13.495 -0.4198  0.5209  0.0463
16917TIP3    H172242   0.245   2.564  13.485  0.0274 -1.5348  2.2253
16917TIP3    H272243   0.123   2.497  13.426  0.5154 -2.0111  1.7491
16918TIP3   OH272244   5.777   0.107   0.771  0.1209  0.0981 -0.5784
16918TIP3    H172245   5.796   0.185   0.717  1.8723  0.5890  0.6478
16918TIP3    H272246   5.748   0.143   0.855 -1.5057 -0.6407 -0.8058
16919TIP3   OH272247   5.089   3.995  16.751  0.3890  0.4511  0.3149
16919TIP3    H172248   5.163   4.050  16.777  0.1638  0.9065  0.0005
16919TIP3    H272249   5.116   3.957  16.667  0.6797 -0.1874  0.6842
16920TIP3   OH272250   6.755   4.708   0.525 -0.4253 -0.2046 -0.3890
16920TIP3    H172251   6.762   4.684   0.617  0.1668  1.0464 -0.0758
16920TIP3    H272252   6.666   4.684   0.501 -1.1279  0.8460  0.9692
16921TIP3   OH272253   1.291   5.113  15.370 -0.0644  0.0888  0.7241
16921TIP3    H172254   1.260   5.024  15.354  0.2787 -0.1643  1.3868
16921TIP3    H272255   1.249   5.138  15.453 -1.1656  1.0350 -0.0986
16922TIP3   OH272256   5.947   6.774  14.044  0.8553  0.0947 -0.1124
16922TIP3    H172257   6.023   6.817  14.004  0.0245  1.2924 -0.4439
16922TIP3    H272258   5.876   6.787  13.982 -0.0964  0.6687  1.0516
16923TIP3   OH272259   2.741   0.712  11.354  0.4749  0.1298 -0.1619
16923TIP3    H172260   2.796   0.723  11.431 -0.4740 -1.2692  0.7596
16923TIP3    H272261   2.670   0.655  11.383 -0.6493  0.6681 -1.7120
16924TIP3   OH272262   4.820   3.048   4.826  0.4768  0.4106  0.4268
16924TIP3    H172263   4.802   2.968   4.775  1.4628 -0.3381  1.2131
16924TIP3    H272264   4.872   3.102   4.767  0.4487  0.1454  0.1545
16925TIP3   OH272265   2.758   3.764   4.948 -0.1001 -0.2263  0.2799
16925TIP3    H172266   2.849   3.792   4.937  0.1256 -0.4476  1.4362
16925TIP3    H272267   2.710   3.810   4.879  0.5552  1.5521  0.9535
16926TIP3   OH272268   5.488   5.788   0.821 -0.4836 -0.0884 -0.4139
16926TIP3    H172269   5.483   5.781   0.726 -0.7647 -0.5023 -0.3700
16926TIP3    H272270   5.466   5.879   0.840 -0.6594 -0.0659 -0.7282
16927TIP3   OH272271   4.071   5.158  13.941 -0.4015 -0.1732  0.0853
16927TIP3    H172272   4.077   5.197  14.028 -1.0745 -0.4551  0.2619
16927TIP3    H272273   4.074   5.064  13.956  1.6791 -0.2321 -0.3791
16928TIP3   OH272274   4.476   2.987   4.200 -0.6627 -0.2106 -0.1044
16928TIP3    H172275   4.561   2.963   4.236  0.0001  1.3543 -0.5374
16928TIP3    H272276   4.418   2.915   4.225  0.8652 -1.5248 -0.1687
16929TIP3   OH272277   0.917   6.637  13.027  0.3252 -0.4107  0.2392
16929TIP3    H172278   1.007   6.651  13.056  0.2822 -0.5754  0.4532
16929TIP3    H272279   0.924   6.569  12.960  0.5259  0.5676 -0.7542
16930TIP3   OH272280   1.655   0.502   1.654 -0.2939  0.6626  1.0021
16930TIP3    H172281   1.667   0.409   1.637 -1.2546  0.4932  1.1672
16930TIP3    H272282   1.711   0.521   1.729  0.8573  0.5076  0.1981
16931TIP3   OH272283   2.386   6.589  13.151 -0.2098  0.3739  0.0655
16931TIP3    H172284   2.430   6.606  13.068 -0.2058  1.3788  0.2605
16931TIP3    H272285   2.442   6.525  13.195 -1.0656 -1.4512 -1.3845
16932TIP3   OH272286   5.978   2.843   1.274  0.0034  0.4715 -0.0389
16932TIP3    H172287   5.971   2.883   1.187  0.8296 -0.4324 -0.5545
16932TIP3    H272288   6.029   2.906   1.325  0.0017  0.7545 -0.3817
16933TIP3   OH272289   4.336   3.853  10.970 -0.0066 -0.3931 -0.2727
16933TIP3    H172290   4.429   3.839  10.955  0.2041 -0.9199  1.3374
16933TIP3    H272291   4.329   3.874  11.063 -1.3880  0.7261 -0.5845
16934TIP3   OH272292   2.592   3.401  11.155 -0.3060  0.3018 -0.3082
16934TIP3    H172293   2.535   3.451  11.097 -1.2909 -0.4533 -0.0153
16934TIP3    H272294   2.559   3.418  11.243  0.8542  1.0249 -0.0003
16935TIP3   OH272295   2.172   4.868   0.085 -0.7835 -0.1040 -0.4337
16935TIP3    H172296   2.227   4.922   0.029 -2.2953  0.9111 -1.0252
16935TIP3    H272297   2.134   4.930   0.148 -1.0345 -0.8079  0.1195
16936TIP3   OH272298   3.863   5.897   0.791 -0.1155  0.7748 -0.2352
16936TIP3    H172299   3.804   5.954   0.742 -2.2493  0.0532  1.3632
16936TIP3    H272300   3.918   5.958   0.841  0.5852  1.4516 -1.7409
16937TIP3   OH272301   2.789   3.205  12.833 -0.3630  0.2790 -0.0233
16937TIP3    H172302   2.808   3.287  12.786 -1.7176  2.5820  3.0433
16937TIP3    H272303   2.695   3.209  12.851 -0.8680 -2.9776 -1.3250
16938TIP3   OH272304   6.127   3.889  12.498  0.1158 -0.4275  0.2426
16938TIP3    H172305   6.212   3.898  12.542 -0.0157 -0.5560  0.5213
16938TIP3    H272306   6.071   3.847  12.562  0.8243 -3.7456 -1.0663
16939TIP3   OH272307   1.633   3.447   1.615 -0.1474 -0.1958 -0.1199
16939TIP3    H172308   1.652   3.407   1.530 -0.9094 -1.9103  0.4658
16939TIP3    H272309   1.573   3.519   1.595  0.5884  0.1598 -1.1293
16940TIP3   OH272310   0.099   2.105  16.106  0.4078 -0.3879 -0.1797
16940TIP3    H172311   0.047   2.075  16.032 -0.5583  0.3972  0.1516
16940TIP3    H272312   0.095   2.033  16.169 -0.7777 -0.1417  0.0677
16941TIP3   OH272313   3.640   5.526   3.073 -0.5269 -0.1449  0.0359
16941TIP3    H172314   3.569   5.463   3.084 -1.3173  0.7689  0.2933
16941TIP3    H272315   3.676   5.539   3.161 -0.5684 -0.0142  0.0348
16942TIP3   OH272316   3.610   4.549   1.865 -0.4226 -0.0185  0.1762
16942TIP3    H172317   3.519   4.527   1.846 -0.4086 -0.9839  1.1770
16942TIP3    H272318   3.620   4.536   1.959  1.7873 -4.0910 -0.3972
16943TIP3   OH272319   0.210   1.589   4.379 -0.0547 -0.9802 -0.2270
16943TIP3    H172320   0.125   1.579   4.422  0.3692 -1.5897  0.4929
16943TIP3    H272321   0.274   1.564   4.446  0.6320 -1.6719 -1.1177
16944TIP3   OH272322   0.024   1.651   0.149 -0.1579 -0.0974 -0.6897
16944TIP3    H172323  -0.062   1.648   0.108 -1.9720 -1.3798  2.7737
16944TIP3    H272324   0.075   1.585   0.103 -2.3238 -2.0944 -0.4119
16945TIP3   OH272325   0.110   2.484   4.770 -0.7269 -0.1558  0.6309
16945TIP3    H172326   0.121   2.577   4.793 -1.0116  1.0579 -3.3860
16945TIP3    H272327   0.194   2.444   4.791 -0.7142  0.8676  2.7785
16946TIP3   OH272328   3.762   5.975   3.195 -0.7299 -0.0435  0.1733
16946TIP3    H172329   3.796   5.944   3.279 -0.8269  0.6546  0.4707
16946TIP3    H272330   3.822   5.937   3.130 -0.8116 -0.7993  0.5354
16947TIP3   OH272331   5.173   3.910  16.054 -0.1636  0.1388 -0.2623
16947TIP3    H172332   5.162   3.879  15.964 -0.1047 -2.2530  0.4874
16947TIP3    H272333   5.266   3.931  16.061 -0.1986  0.4959 -0.7845
16948TIP3   OH272334   4.021   3.199  13.575  0.3732  0.2230 -0.2385
16948TIP3    H172335   4.024   3.114  13.530  0.4531  1.2576 -2.2804
16948TIP3    H272336   4.056   3.180  13.662 -1.1100 -2.1557 -0.0624
16949TIP3   OH272337   3.562   0.891   1.638  0.4123 -0.4306  0.0731
16949TIP3    H172338   3.475   0.877   1.675  0.2696 -1.5907 -0.6172
16949TIP3    H272339   3.565   0.831   1.563  0.5541  2.0229 -2.0343
16950TIP3   OH272340   6.607   0.251  12.461  0.1368 -1.0007 -0.5356
16950TIP3    H172341   6.596   0.333  12.508 -0.0441 -1.7024  0.7029
16950TIP3    H272342   6.544   0.191  12.502  0.7735 -1.9583 -0.9091
16951TIP3   OH272343   4.363   0.364   2.332  0.0676  0.1131 -0.2109
16951TIP3    H172344   4.293   0.356   2.396 -1.5669 -0.8086 -1.9978
16951TIP3    H272345   4.426   0.296   2.356  0.2032  0.7051  1.1961
16952TIP3   OH272346   5.723   4.116  13.873  0.2210  0.0360  0.2564
16952TIP3    H172347   5.818   4.126  13.883  0.1947  1.1284 -0.3964
16952TIP3    H272348   5.713   4.062  13.794  0.2942 -0.5157  0.6167
16953TIP3   OH272349   0.580   2.418   4.209 -0.4431  0.3564 -0.4421
16953TIP3    H172350   0.633   2.494   4.231  1.2396 -0.6769 -0.7299
16953TIP3    H272351   0.496   2.434   4.252  1.0071  0.7642  2.4920
16954TIP3   OH272352   4.721   4.853   3.455  0.1503 -0.4043 -0.2769
16954TIP3    H172353   4.775   4.783   3.491 -0.9484 -2.0217 -1.5978
16954TIP3    H272354   4.783   4.925   3.438  1.4529 -1.3187  0.4334
16955TIP3   OH272355   2.870   2.152  16.475  0.1507  0.0839 -0.0247
16955TIP3    H172356   2.900   2.083  16.534 -0.3921 -0.5070 -0.4230
16955TIP3    H272357   2.778   2.132  16.459 -0.0309  0.9439 -0.0985
16956TIP3   OH272358   6.774   4.511   1.242  0.0148  0.2059  0.2743
16956TIP3    H172359   6.759   4.541   1.153 -0.0257  1.2365  0.6205
16956TIP3    H272360   6.692   4.469   1.268 -0.0792  0.1814 -0.0583
16957TIP3   OH272361   4.957   2.313  12.806 -0.5282 -0.0685  0.2477
16957TIP3    H172362   4.862   2.306  12.819 -0.5211  0.3433  0.5584
16957TIP3    H272363   4.974   2.407  12.810  0.1685 -0.2361  2.2197
16958TIP3   OH272364   1.970   0.901   0.079 -0.4113 -0.3935  0.0112
16958TIP3    H172365   1.941   0.869   0.165 -0.5583  2.4030  1.1045
16958TIP3    H272366   2.064   0.917   0.089  0.3544 -3.3035 -1.5180
16959TIP3   OH272367   2.974   0.864   1.356 -0.8067  0.5690 -0.6174
16959TIP3    H172368   3.031   0.876   1.279 -2.5471 -1.0273 -2.2654
16959TIP3    H272369   2.911   0.797   1.328 -1.9884  0.5032  1.9763
16960TIP3   OH272370   5.596   2.352  11.543 -0.0354  0.3592  0.0356
16960TIP3    H172371   5.660   2.336  11.613  0.3982 -0.6961 -0.5721
16960TIP3    H272372   5.512   2.326  11.580  0.1904 -0.1849  0.1725
16961TIP3   OH272373   4.011   4.804   0.911 -0.0037  0.2596 -0.7298
16961TIP3    H172374   3.985   4.894   0.890 -1.6331 -0.2626 -1.0845
16961TIP3    H272375   3.993   4.795   1.005  1.4367  0.6956 -0.3919
16962TIP3   OH272376   1.468   2.901   4.405 -1.0002  0.0862  0.4692
16962TIP3    H172377   1.446   2.913   4.312  1.7877  0.5726 -0.2326
16962TIP3    H272378   1.461   2.989   4.443  1.1891  0.6157 -0.1866
16963TIP3   OH272379   5.984   2.041  11.243  0.6804 -0.4223 -0.2363
16963TIP3    H172380   5.897   2.009  11.266  0.8584 -0.3374  0.5792
16963TIP3    H272381   6.019   2.078  11.324  0.6060  1.5803 -1.0705
16964TIP3   OH272382   5.946   1.447   4.290  0.2926  0.0105 -0.5553
16964TIP3    H172383   6.004   1.509   4.335 -0.2119 -0.2283  0.4559
16964TIP3    H272384   5.882   1.503   4.245 -0.0294  0.2400  0.1703
16965TIP3   OH272385   1.031   0.151  16.760  0.0952 -0.0822  0.0925
16965TIP3    H172386   1.060   0.221  16.703 -0.6678 -0.3575 -0.6580
16965TIP3    H272387   1.111   0.119  16.802  0.9255 -0.8167 -1.8910
16966TIP3   OH272388   3.732   1.411   0.245  0.5659 -0.3227 -0.3421
16966TIP3    H172389   3.742   1.325   0.203  1.1986 -0.6242  0.4057
16966TIP3    H272390   3.718   1.391   0.338 -0.5071  0.3474 -0.3459
16967TIP3   OH272391   2.659   4.190   1.510 -0.4583 -0.3433 -0.2379
16967TIP3    H172392   2.668   4.285   1.514  0.7228 -0.4676  0.7321
16967TIP3    H272393   2.731   4.161   1.453  1.1821 -0.8457  1.9533
16968TIP3   OH272394   6.363   2.673  15.490  0.7471  0.1978  0.4879
16968TIP3    H172395   6.353   2.751  15.436 -1.0964 -1.3906 -1.6646
16968TIP3    H272396   6.275   2.656  15.524  0.9197 -1.3951  0.2025
16969TIP3   OH272397   5.261   0.250  13.021  0.3815 -0.4528 -0.1086
16969TIP3    H172398   5.192   0.308  12.987  0.7238 -0.9319 -1.7307
16969TIP3    H272399   5.215   0.190  13.079 -0.9031 -1.6858 -2.2712
16970TIP3   OH272400   0.443   0.544  16.734  0.3095  0.7026  0.5484
16970TIP3    H172401   0.483   0.489  16.666  0.3027  1.5552 -0.1485
16970TIP3    H272402   0.420   0.482  16.804  0.0474 -0.2223 -0.3395
16971TIP3   OH272403   1.318   2.183  15.484 -0.4000 -0.1914 -0.5130
16971TIP3    H172404   1.241   2.214  15.437 -0.6824 -1.3904 -0.8847
16971TIP3    H272405   1.391   2.206  15.426 -0.5123  0.5345 -0.3761
16972TIP3   OH272406   4.143   1.724   3.589 -0.0673  0.3159 -0.2480
16972TIP3    H172407   4.150   1.646   3.534 -0.4643  1.2057 -1.6420
16972TIP3    H272408   4.061   1.713   3.636 -0.1740 -0.0563 -0.5168
16973TIP3   OH272409   2.541   2.878   3.793  0.5557  0.2179 -0.6465
16973TIP3    H172410   2.631   2.872   3.824  0.5978  1.2913 -0.5391
16973TIP3    H272411   2.546   2.929   3.712  0.0132  0.5485 -0.4802
16974TIP3   OH272412   3.971   4.356  11.401 -0.4634  0.4051 -0.2901
16974TIP3    H172413   4.025   4.434  11.385  0.7838 -0.3267  0.1350
16974TIP3    H272414   3.883   4.380  11.372 -0.0386  1.8652 -0.4282
16975TIP3   OH272415   4.353   5.284  11.218  0.9735 -0.5541  0.4259
16975TIP3    H172416   4.333   5.376  11.233  1.0907 -0.4782  0.1370
16975TIP3    H272417   4.367   5.278  11.123 -1.5372 -1.3481  0.0226
16976TIP3   OH272418   4.834   1.178   4.558  0.7512  0.0341 -0.6683
16976TIP3    H172419   4.905   1.183   4.622  0.6827  0.5567 -0.6262
16976TIP3    H272420   4.826   1.268   4.525 -0.6127  0.2347  0.1367
16977TIP3   OH272421   6.159   3.213  12.565 -0.4982  0.3391  0.0315
16977TIP3    H172422   6.244   3.254  12.553 -0.7252  0.6170 -0.6617
16977TIP3    H272423   6.106   3.246  12.493 -0.8441 -0.7686 -0.2330
16978TIP3   OH272424   3.044   0.175  11.272  0.6132  0.2099 -0.0404
16978TIP3    H172425   2.978   0.116  11.309 -1.5830  1.1628 -2.1949
16978TIP3    H272426   3.062   0.139  11.185  1.7796  0.8564 -0.0767
16979TIP3   OH272427   5.412   0.226  14.021  0.2399  0.4099 -0.0868
16979TIP3    H172428   5.442   0.241  13.932  0.3999  1.2885  0.1084
16979TIP3    H272429   5.473   0.161  14.057  0.5345  0.5040 -0.4201
16980TIP3   OH272430   3.092   4.260   2.812  0.2712  0.1320 -0.0563
16980TIP3    H172431   3.065   4.349   2.789  1.0570  0.9320  1.9112
16980TIP3    H272432   3.063   4.248   2.902  0.2916 -1.5910 -0.2391
16981TIP3   OH272433   5.377   3.491   5.161 -0.2483 -0.5238 -0.7506
16981TIP3    H172434   5.418   3.577   5.161 -1.1336 -0.0842  0.1237
16981TIP3    H272435   5.446   3.432   5.191 -0.4528  0.3582  1.7384
16982TIP3   OH272436   4.731   4.168  12.588  0.0965 -0.1489 -0.0408
16982TIP3    H172437   4.790   4.096  12.566 -0.3198 -0.3252 -0.5996
16982TIP3    H272438   4.776   4.246  12.555 -0.7590 -0.4515 -2.1452
16983TIP3   OH272439   4.791   2.863  11.358 -0.1363  0.2354 -0.7008
16983TIP3    H172440   4.748   2.921  11.295 -0.4590 -0.5250 -1.1955
16983TIP3    H272441   4.725   2.797  11.378  0.8410 -1.0449 -1.5875
16984TIP3   OH272442   2.750   1.379  16.471  0.0569 -0.7851 -0.2340
16984TIP3    H172443   2.832   1.418  16.503  0.1251  1.4497 -2.8411
16984TIP3    H272444   2.683   1.410  16.532  0.6752  0.3017 -0.0775
16985TIP3   OH272445   3.966   3.113   3.585  0.1425  0.1921  0.1847
16985TIP3    H172446   3.918   3.171   3.526  1.9975 -0.1324 -1.7801
16985TIP3    H272447   4.035   3.169   3.622  0.0708 -0.0279  0.6470
16986TIP3   OH272448   3.538   5.095   4.241 -0.1396  0.4700  0.0293
16986TIP3    H172449   3.549   5.076   4.148  0.5910  0.2601  0.1566
16986TIP3    H272450   3.623   5.078   4.280 -0.1420  1.5764  0.5688
16987TIP3   OH272451   3.425   2.335  16.559  0.1827 -1.1320 -0.6252
16987TIP3    H172452   3.371   2.394  16.610 -0.7188 -1.9141 -0.6491
16987TIP3    H272453   3.499   2.388  16.531 -1.5596  0.5738 -2.3215
16988TIP3   OH272454   0.637   0.681  12.228 -0.1721 -0.4102 -0.2289
16988TIP3    H172455   0.581   0.611  12.196  1.1609 -1.7703  0.2633
16988TIP3    H272456   0.703   0.692  12.159  1.2293 -1.6045  0.8416
16989TIP3   OH272457   0.993   4.019  17.048 -0.2233 -0.2133  0.7001
16989TIP3    H172458   1.028   4.106  17.069  1.3031 -1.3405  3.2079
16989TIP3    H272459   0.902   4.023  17.077 -0.2350  0.5866  0.5919
16990TIP3   OH272460   5.508   2.557   2.986 -0.1520 -0.1560  0.1896
16990TIP3    H172461   5.544   2.641   3.014  0.1221 -0.3061  0.2780
16990TIP3    H272462   5.432   2.544   3.042  0.7210 -0.7342  1.2591
16991TIP3   OH272463   0.934   0.488  15.354 -0.3697  0.1567 -0.8292
16991TIP3    H172464   0.977   0.458  15.434 -2.4944  1.8238  1.0712
16991TIP3    H272465   0.928   0.583  15.363 -3.1268  0.1471 -1.5894
16992TIP3   OH272466   3.156   1.917   1.644 -0.2843 -0.0961  0.1079
16992TIP3    H172467   3.244   1.950   1.625 -0.0288 -0.0356  1.3152
16992TIP3    H272468   3.099   1.964   1.584  0.3191  1.0798  0.4229
16993TIP3   OH272469   0.820   5.299  12.367 -0.2590  0.3237 -0.0947
16993TIP3    H172470   0.860   5.383  12.347  1.1144 -0.2057  0.3092
16993TIP3    H272471   0.853   5.240  12.299 -1.4697  0.1731 -0.5717
16994TIP3   OH272472   3.320   2.035  15.827 -0.1686  0.1502  0.3726
16994TIP3    H172473   3.245   2.083  15.860 -0.6677 -1.0817  1.0954
16994TIP3    H272474   3.325   1.957  15.882  1.1827 -0.1704 -0.1522
16995TIP3   OH272475   6.475   0.133  15.267 -0.2310 -0.1138  0.1068
16995TIP3    H172476   6.483   0.181  15.184  1.0336 -0.2243  0.1430
16995TIP3    H272477   6.465   0.201  15.333  1.3466  0.1132  0.1350
16996TIP3   OH272478   4.725   3.989  11.856  0.1647 -0.0070  0.4265
16996TIP3    H172479   4.669   4.024  11.925 -0.1556  0.4937 -0.0779
16996TIP3    H272480   4.780   3.924  11.900  1.6924  2.0186  1.6924
16997TIP3   OH272481   5.356   1.548   4.549  0.2866  0.0975 -0.2683
16997TIP3    H172482   5.388   1.638   4.558 -0.2513  0.3665 -1.0120
16997TIP3    H272483   5.434   1.494   4.563  0.2415  0.5810  2.2536
16998TIP3   OH272484   3.884   2.936  13.681 -0.1752  0.4380 -0.5163
16998TIP3    H172485   3.945   2.983  13.737  0.7521  0.1587 -1.2598
16998TIP3    H272486   3.904   2.844  13.694 -0.9760  0.2985 -0.1876
16999TIP3   OH272487   0.473   5.603  13.735  0.2413  0.1481  0.6818
16999TIP3    H172488   0.525   5.569  13.808 -0.4932 -0.2619  1.0294
16999TIP3    H272489   0.525   5.676  13.701  0.3191  0.7439  2.0079
17000TIP3   OH272490   4.578   5.873  16.782 -0.1557  0.2758  1.0017
17000TIP3    H172491   4.616   5.861  16.869  2.0792  0.0130  0.0538
17000TIP3    H272492   4.562   5.967  16.776 -1.6518  0.1255  2.1813
17001TIP3   OH272493   3.909   2.520  15.082 -0.1897 -0.4594  0.2331
17001TIP3    H172494   3.838   2.464  15.050  0.1558 -0.5087 -0.4771
17001TIP3    H272495   3.983   2.460  15.093 -0.6053 -0.6689  2.2913
17002TIP3   OH272496   0.329   2.259  16.125 -0.3562 -0.1948 -0.0644
17002TIP3    H172497   0.350   2.253  16.032  1.8757  1.0748  0.2797
17002TIP3    H272498   0.250   2.207  16.136 -0.5784 -0.4927 -2.6337
17003TIP3   OH272499   4.429   0.971  10.915 -0.3594 -0.1074 -0.6655
17003TIP3    H172500   4.494   0.902  10.928  0.8859  0.8888 -1.3601
17003TIP3    H272501   4.351   0.939  10.960  0.0127 -2.1931 -1.3951
17004TIP3   OH272502   1.602   4.856  11.016  0.0648 -0.3656 -0.1477
17004TIP3    H172503   1.535   4.922  10.996 -0.0443 -0.0988  1.0444
17004TIP3    H272504   1.603   4.799  10.939 -1.6204 -0.4452 -0.1367
17005TIP3   OH272505   2.814   4.442   3.988 -0.2634  0.0792  0.1528
17005TIP3    H172506   2.835   4.504   3.918  2.9047 -0.7694  0.1922
17005TIP3    H272507   2.853   4.481   4.066 -0.1462 -0.9176  0.6028
17006TIP3   OH272508   3.606   0.857   4.848 -0.3883  0.0537 -0.1346
17006TIP3    H172509   3.607   0.867   4.943 -0.8963 -0.2844 -0.0884
17006TIP3    H272510   3.514   0.840   4.826  0.0135 -1.9879 -0.4407
17007TIP3   OH272511   6.609   2.337   1.063  0.2533  0.8693 -0.2380
17007TIP3    H172512   6.579   2.266   1.006  0.0787  1.0746 -0.4044
17007TIP3    H272513   6.544   2.407   1.050  0.7946  1.3142 -0.5858
17008TIP3   OH272514   5.377   5.621  12.824 -0.8441  0.6825 -0.0906
17008TIP3    H172515   5.282   5.614  12.838 -0.8828  1.5858  0.1186
17008TIP3    H272516   5.411   5.657  12.906 -0.0984 -1.0895  0.4452
17009TIP3   OH272517   4.521   3.750   5.193 -0.3987  0.0159  0.3359
17009TIP3    H172518   4.436   3.784   5.164 -1.2918 -2.2127  0.1328
17009TIP3    H272519   4.535   3.791   5.278 -1.1873  1.1891 -0.0689
17010TIP3   OH272520   4.102   4.074  13.690 -0.6177  0.3116  0.6541
17010TIP3    H172521   4.106   4.101  13.598 -0.5493  0.6931  0.7656
17010TIP3    H272522   4.124   3.981  13.689  1.1334  0.7054  0.4796
17011TIP3   OH272523   3.975   0.688  15.502  0.2594  0.2348  0.3598
17011TIP3    H172524   3.894   0.702  15.551  0.5527 -0.2781  1.0041
17011TIP3    H272525   3.964   0.601  15.463  0.2013  0.4665 -0.1428
17012TIP3   OH272526   3.622   6.693  11.089 -0.1965 -0.1599  0.0488
17012TIP3    H172527   3.595   6.611  11.047  0.4211  0.3791 -1.4926
17012TIP3    H272528   3.634   6.754  11.016  1.1326  0.7861  1.0131
17013TIP3   OH272529   1.546   0.687   0.678 -0.5537 -0.3774 -0.2416
17013TIP3    H172530   1.527   0.682   0.585 -1.9451  0.1704 -0.0066
17013TIP3    H272531   1.603   0.764   0.686  0.4284 -1.0236 -0.7378
17014TIP3   OH272532   0.303   1.480  16.858 -0.8205  0.4560  0.7082
17014TIP3    H172533   0.296   1.385  16.852 -0.8450  0.5272 -0.5306
17014TIP3    H272534   0.389   1.501  16.822 -0.4131  0.8493  1.8380
17015TIP3   OH272535   4.068   3.601   5.750 -0.5737  0.3314 -0.1360
17015TIP3    H172536   4.074   3.570   5.840 -2.2376  1.6673  0.4807
17015TIP3    H272537   4.032   3.527   5.701  2.9800 -1.4397 -0.3864
17016TIP3   OH272538   2.571   4.848  11.112  0.1608  0.2484  0.3751
17016TIP3    H172539   2.588   4.856  11.019  1.4251 -1.4765  0.4212
17016TIP3    H272540   2.651   4.811  11.149  0.0250  1.7010  2.3025
17017TIP3   OH272541   1.106   6.271  12.973  0.2585  0.0176  0.6191
17017TIP3    H172542   1.050   6.252  12.898  1.3712 -0.3622 -0.1335
17017TIP3    H272543   1.068   6.220  13.045 -0.4692 -0.0808  0.1745
17018TIP3   OH272544   5.437   6.276  11.240 -0.5498  0.2494 -0.4846
17018TIP3    H172545   5.424   6.370  11.224 -0.3178  0.6202  1.2619
17018TIP3    H272546   5.528   6.270  11.271 -0.4761 -0.5961 -0.8451
17019TIP3   OH272547   6.810   0.640  15.575 -0.2460  0.2631 -0.1541
17019TIP3    H172548   6.746   0.674  15.513 -1.9964 -0.1164  1.3774
17019TIP3    H272549   6.809   0.703  15.647 -0.5290 -0.8738  0.8664
17020TIP3   OH272550   0.940   2.956  13.258 -0.1206  0.3088 -0.2326
17020TIP3    H172551   1.021   2.918  13.291  0.1525  1.1011  0.0185
17020TIP3    H272552   0.877   2.884  13.262  0.0265  0.2272  1.5376
17021TIP3   OH272553   4.954   5.776   2.003  0.3241  0.9613  0.2589
17021TIP3    H172554   5.024   5.833   1.971  0.9573  1.2580  2.0924
17021TIP3    H272555   4.923   5.818   2.084  1.9292 -2.0442  2.6147
17022TIP3   OH272556   2.180   5.882   0.677  0.5909 -0.4382  0.4916
17022TIP3    H172557   2.182   5.792   0.643  3.1129  0.3110 -1.6901
17022TIP3    H272558   2.205   5.873   0.769 -1.4504 -2.0963  0.9708
17023TIP3   OH272559   3.560   4.882  17.062  0.2942 -0.0314  0.3012
17023TIP3    H172560   3.536   4.909  17.151  0.3880  0.3695  0.2047
17023TIP3    H272561   3.493   4.921  17.006  1.4058  1.4794 -0.0205
17024TIP3   OH272562   0.286   0.347   0.503  0.3812 -0.7714  0.1013
17024TIP3    H172563   0.227   0.411   0.465  1.1870 -0.5542 -0.8411
17024TIP3    H272564   0.230   0.287   0.552 -0.3570  0.8252  1.2644
17025TIP3   OH272565   0.985   5.319  15.492 -0.7333  0.5046  0.4493
17025TIP3    H172566   0.926   5.385  15.454 -1.5560  1.7712  3.5841
17025TIP3    H272567   1.057   5.371  15.529  0.1061 -0.6581  0.4849
17026TIP3   OH272568   3.708   5.979   6.533  0.0915 -0.9534 -0.0760
17026TIP3    H172569   3.640   6.011   6.593  1.1380  0.7412  0.2731
17026TIP3    H272570   3.708   6.042   6.461  0.2298 -1.8503 -0.8857
17027TIP3   OH272571   5.204   6.253  17.035 -0.2994 -0.5996  0.5521
17027TIP3    H172572   5.179   6.341  17.064 -1.1043  0.1349 -2.0696
17027TIP3    H272573   5.289   6.238  17.076  1.8218  3.1164 -1.8625
17028TIP3   OH272574   2.507   6.413   0.885 -0.1502  0.2020 -0.0891
17028TIP3    H172575   2.585   6.369   0.851  1.0884  1.5268  0.9212
17028TIP3    H272576   2.467   6.454   0.808 -0.7404 -1.7154 -0.8664
17029TIP3   OH272577   2.315   2.510   4.556  0.1724  0.2028  0.2695
17029TIP3    H172578   2.402   2.547   4.568 -0.2086  0.6892  1.8255
17029TIP3    H272579   2.328   2.437   4.495  1.4523  0.9741 -0.4160
17030TIP3   OH272580   0.248   3.844   6.423 -0.1543  0.7285 -0.0583
17030TIP3    H172581   0.286   3.756   6.422 -0.4170  0.6026  0.7022
17030TIP3    H272582   0.155   3.829   6.443 -0.2452  1.1665 -0.1464
17031TIP3   OH272583   3.967   3.386   1.700  0.0837  0.8367  0.9174
17031TIP3    H172584   3.937   3.385   1.609 -3.7803  0.6903  2.0002
17031TIP3    H272585   3.939   3.301   1.735  2.8753  0.2418  1.9400
17032TIP3   OH272586   3.873   6.314   0.602 -0.0806  0.5432  0.5599
17032TIP3    H172587   3.935   6.366   0.552 -0.0576 -0.5491 -0.5907
17032TIP3    H272588   3.795   6.311   0.547 -0.2588 -0.2159  0.8468
17033TIP3   OH272589   5.055   1.182   5.018 -0.0211 -0.4048 -0.2980
17033TIP3    H172590   5.057   1.257   5.076 -1.2529  0.0341 -0.7853
17033TIP3    H272591   5.147   1.160   5.002  0.3395 -0.4889  1.7251
17034TIP3   OH272592   3.797   3.708   1.588  0.3376  0.0583 -0.7811
17034TIP3    H172593   3.800   3.613   1.576 -1.3641 -0.2921  1.0160
17034TIP3    H272594   3.712   3.734   1.553  0.0199  0.6142  0.3500
17035TIP3   OH272595   1.560   3.532  16.803  0.0393  0.1181 -0.3968
17035TIP3    H172596   1.648   3.528  16.840 -0.4630  1.5814  1.0363
17035TIP3    H272597   1.543   3.625  16.790 -1.2302 -0.1574 -0.8786
17036TIP3   OH272598   1.258   6.836  11.788 -0.5478 -0.3629 -0.3955
17036TIP3    H172599   1.346   6.804  11.768 -0.2867  1.0707 -1.7453
17036TIP3    H272600   1.271   6.907  11.850 -0.4723  1.4596 -2.4003
17037TIP3   OH272601   1.480   4.115   5.034  0.1085 -0.4617  0.5720
17037TIP3    H172602   1.460   4.048   4.969  1.5476 -1.5642  1.1982
17037TIP3    H272603   1.552   4.078   5.085  0.8108  1.4940  1.0854
17038TIP3   OH272604   5.684   2.106   4.495 -1.0668 -0.4938  0.2098
17038TIP3    H172605   5.646   2.193   4.510 -1.0494 -0.3358 -0.6326
17038TIP3    H272606   5.769   2.110   4.537 -1.1856 -0.1959  0.4260
17039TIP3   OH272607   3.483   0.020  11.509  0.5600  0.2955 -0.0080
17039TIP3    H172608   3.479  -0.003  11.416  0.1925  2.9106 -0.7064
17039TIP3    H272609   3.392   0.017  11.539  0.6431 -0.2333  0.2072
17040TIP3   OH272610   2.514   5.223   1.601  0.4671 -0.2852 -0.1557
17040TIP3    H172611   2.610   5.227   1.596  0.4389  0.7788 -0.0217
17040TIP3    H272612   2.485   5.237   1.511  0.4121  1.2155  0.0634
17041TIP3   OH272613   2.132   2.422  14.360 -0.0305 -0.2464  0.8304
17041TIP3    H172614   2.177   2.394  14.440  0.3555 -0.5403  0.5172
17041TIP3    H272615   2.040   2.399  14.375  0.1143 -0.7317  1.0050
17042TIP3   OH272616   6.107   0.137   5.103  0.4551  0.0080  0.4978
17042TIP3    H172617   6.136   0.082   5.176  0.7303 -0.9071 -0.2843
17042TIP3    H272618   6.159   0.217   5.111  0.9048 -0.3268  0.9560
17043TIP3   OH272619   2.519   6.477   5.679 -0.7087  0.1673 -0.0377
17043TIP3    H172620   2.485   6.456   5.766 -0.0679 -2.3342 -0.2960
17043TIP3    H272621   2.442   6.506   5.630 -1.3557  0.1888  0.9492
17044TIP3   OH272622   5.845   3.784   0.844  0.1947 -0.4680 -0.1797
17044TIP3    H172623   5.869   3.732   0.921 -0.4740 -1.3649 -0.5574
17044TIP3    H272624   5.924   3.788   0.791  0.7596  0.4437  0.6993
17045TIP3   OH272625   6.836   1.042   2.924  0.3345 -0.2036  0.1450
17045TIP3    H172626   6.802   1.024   2.836  0.6519 -0.1997  0.0220
17045TIP3    H272627   6.875   0.959   2.952  1.4789  0.1726 -0.2779
17046TIP3   OH272628   0.235   2.321  14.822  0.1014  0.4048  0.5067
17046TIP3    H172629   0.150   2.282  14.802  0.5093 -0.7021  0.8471
17046TIP3    H272630   0.246   2.306  14.916  1.2519 -0.6592  0.2163
17047TIP3   OH272631   3.803   1.303   0.479  0.2091 -0.3168  0.0394
17047TIP3    H172632   3.815   1.245   0.554  0.7135 -1.9224 -1.2284
17047TIP3    H272633   3.884   1.293   0.428 -1.4841 -2.1345 -2.5752
17048TIP3   OH272634   1.586   0.272  12.679  0.1268  0.2611  0.0609
17048TIP3    H172635   1.558   0.348  12.628  0.9628 -0.3938 -1.4741
17048TIP3    H272636   1.576   0.198  12.618  0.1926 -0.7156  1.2054
17049TIP3   OH272637   6.718   4.616  14.017 -0.1463 -0.1687 -0.0114
17049TIP3    H172638   6.656   4.547  13.993 -1.6444  0.6970  1.2228
17049TIP3    H272639   6.804   4.573  14.015 -0.6186 -1.1677 -2.6590
17050TIP3   OH272640   5.522   5.647   3.212  0.1469  0.2273  0.2318
17050TIP3    H172641   5.572   5.570   3.236 -0.6150 -1.4013 -3.0044
17050TIP3    H272642   5.457   5.656   3.282  2.6664  0.4079  2.7144
17051TIP3   OH272643   3.871   6.419  16.328  0.1676 -0.1587  0.3247
17051TIP3    H172644   3.789   6.460  16.354  0.9835  1.6612  0.2213
17051TIP3    H272645   3.887   6.451  16.239 -0.9361 -3.6784 -1.3259
17052TIP3   OH272646   4.197   4.359  12.150 -0.2743  0.0845 -0.4708
17052TIP3    H172647   4.165   4.440  12.110  0.2798  1.4057  1.6257
17052TIP3    H272648   4.278   4.340  12.104  0.6991  1.9332  0.3703
17053TIP3   OH272649   0.895   6.335  16.784  0.1215 -0.6638 -0.0612
17053TIP3    H172650   0.876   6.422  16.748 -0.9824 -1.2758 -1.0595
17053TIP3    H272651   0.862   6.275  16.717 -0.8171 -1.8659  1.4175
17054TIP3   OH272652   3.291   1.010   0.529  0.7372 -0.1903 -0.2073
17054TIP3    H172653   3.335   1.081   0.576  2.1901 -0.8208 -0.5581
17054TIP3    H272654   3.201   1.041   0.518 -0.2159 -0.6199  4.3622
17055TIP3   OH272655   2.689   2.269  15.768  0.3380  0.1240 -0.2077
17055TIP3    H172656   2.699   2.364  15.775  2.4589 -0.0237 -0.6091
17055TIP3    H272657   2.731   2.235  15.847 -0.2114 -0.5112 -0.1793
17056TIP3   OH272658   5.705   4.779   3.628  0.3166 -0.1109 -0.2697
17056TIP3    H172659   5.688   4.686   3.613 -0.6416 -0.4407  2.3075
17056TIP3    H272660   5.800   4.785   3.637  0.3082 -1.0942  0.7214
17057TIP3   OH272661   5.355   1.509  13.172 -0.3740  0.2648 -0.9137
17057TIP3    H172662   5.318   1.421  13.164 -1.4339  0.7937 -2.2078
17057TIP3    H272663   5.416   1.516  13.099 -1.1518  0.9866 -1.5081
17058TIP3   OH272664   5.190   2.240  12.723  0.0936  0.3222  0.3000
17058TIP3    H172665   5.111   2.264  12.771 -0.4168 -1.4911  0.4090
17058TIP3    H272666   5.168   2.260  12.631 -0.0251  0.9822  0.4662
17059TIP3   OH272667   5.354   6.164  14.882 -0.2866  0.1844  0.1252
17059TIP3    H172668   5.277   6.215  14.861 -0.9501 -1.2285 -1.0414
17059TIP3    H272669   5.380   6.123  14.799  2.0790  1.0673  0.3458
17060TIP3   OH272670   2.364   0.643  16.213  0.5388 -0.2900 -0.5646
17060TIP3    H172671   2.426   0.604  16.276 -0.1752 -0.6209 -0.0543
17060TIP3    H272672   2.278   0.631  16.253  0.1150 -0.0481 -1.3771
17061TIP3   OH272673   3.892   4.904  15.682 -0.2769 -0.0269 -0.5326
17061TIP3    H172674   3.929   4.827  15.639  1.0725  0.9014 -1.1077
17061TIP3    H272675   3.880   4.968  15.611  1.7796  1.4604  0.3762
17062TIP3   OH272676   3.116   3.544  10.624  0.6237 -0.0821 -0.1494
17062TIP3    H172677   3.159   3.611  10.572  0.2838  0.1051 -0.1952
17062TIP3    H272678   3.178   3.471  10.627  0.9048  0.1526 -0.2789
17063TIP3   OH272679   0.517   6.200  15.471 -0.3519  0.2458 -0.0621
17063TIP3    H172680   0.559   6.279  15.438  0.0447  0.1581  0.2321
17063TIP3    H272681   0.586   6.134  15.470 -0.6092 -0.0267 -0.0393
17064TIP3   OH272682   3.427   4.057   1.242  0.1128  0.2039  0.2284
17064TIP3    H172683   3.497   3.999   1.211  0.3034  0.1008  0.8333
17064TIP3    H272684   3.424   4.042   1.337 -0.7531  0.1833  0.2096
17065TIP3   OH272685   6.538   4.411  12.539  0.0147 -0.2569 -0.2178
17065TIP3    H172686   6.595   4.488  12.529 -1.1437  0.8101  1.0500
17065TIP3    H272687   6.597   4.342  12.569  0.6617  0.8544  1.1915
17066TIP3   OH272688   5.854   3.829  10.605  0.0915 -0.1280 -0.3407
17066TIP3    H172689   5.839   3.798  10.515  0.8456  0.0703 -0.5395
17066TIP3    H272690   5.945   3.859  10.605 -0.0272  0.2440  0.3864
17067TIP3   OH272691   2.034   3.587   3.415 -0.3967 -0.0839  0.6559
17067TIP3    H172692   2.102   3.571   3.481 -0.5700 -0.3214  0.7794
17067TIP3    H272693   2.064   3.540   3.337 -0.7890 -0.8328  0.9455
17068TIP3   OH272694   4.882   6.504  15.850  0.4686 -0.7737  0.0335
17068TIP3    H172695   4.868   6.418  15.889  0.4426 -0.5610  0.4983
17068TIP3    H272696   4.810   6.558  15.881  0.1506 -0.7361 -0.7364
17069TIP3   OH272697   1.024   6.142   3.532 -0.6130  0.2838  0.1919
17069TIP3    H172698   1.012   6.222   3.482 -1.6523  0.2915  0.4309
17069TIP3    H272699   0.938   6.100   3.532  0.1750 -1.4343 -0.9186
17070TIP3   OH272700   5.441   1.868  13.534 -0.2388  0.6459  0.8198
17070TIP3    H172701   5.453   1.810  13.458  3.2445  0.7233  1.1386
17070TIP3    H272702   5.449   1.810  13.610 -0.9208  0.9753  1.1509
17071TIP3   OH272703   0.491   4.591  16.071 -0.0185  0.0896 -0.2368
17071TIP3    H172704   0.489   4.550  16.158 -0.2286 -0.2764 -0.4156
17071TIP3    H272705   0.574   4.639  16.070 -0.9326  1.7995  0.9349
17072TIP3   OH272706   5.523   1.809   1.278 -0.4010  0.1109 -0.1479
17072TIP3    H172707   5.604   1.818   1.329  0.1940  1.7112 -1.3106
17072TIP3    H272708   5.548   1.755   1.203  0.4256  2.9137 -2.0317
17073TIP3   OH272709   1.529   4.654  11.219  0.3289  0.6039  0.1727
17073TIP3    H172710   1.474   4.719  11.263  1.1220  1.0840  0.4885
17073TIP3    H272711   1.529   4.680  11.127 -1.0680 -0.2046 -0.0749
17074TIP3   OH272712   4.701   3.100   2.602 -0.6974 -0.2575  0.1531
17074TIP3    H172713   4.752   3.063   2.674 -1.8652 -0.1715  1.0339
17074TIP3    H272714   4.651   3.026   2.568 -0.0046 -0.3440 -0.7212
17075TIP3   OH272715   3.500   2.063   2.361 -0.2423  0.3447  0.4468
17075TIP3    H172716   3.521   2.155   2.349  2.0458 -0.1589  0.0427
17075TIP3    H272717   3.541   2.039   2.444 -2.4934  0.0978  1.5566
17076TIP3   OH272718   3.610   3.082  10.341  0.0535  0.1553  0.2034
17076TIP3    H172719   3.623   3.166  10.386 -0.0601  0.4098 -0.2402
17076TIP3    H272720   3.526   3.050  10.375 -0.5340  0.8298 -0.5686
17077TIP3   OH272721   3.362   5.564   0.352  0.2956  0.1301  0.3638
17077TIP3    H172722   3.376   5.504   0.279  1.5055  0.4755  0.2773
17077TIP3    H272723   3.273   5.597   0.340 -0.0637 -0.9768 -0.0720
17078TIP3   OH272724   6.184   6.692  15.831  0.2379 -0.3223 -0.4519
17078TIP3    H172725   6.235   6.686  15.750  2.6323 -0.1281  0.9612
17078TIP3    H272726   6.102   6.646  15.811  1.7508 -2.4553 -2.1990
17079TIP3   OH272727   5.778   0.503  12.162  0.0751 -0.1926 -0.2846
17079TIP3    H172728   5.811   0.534  12.077  0.1723  2.4561  0.6150
17079TIP3    H272729   5.857   0.496  12.217 -0.0252 -1.5457 -0.2994
17080TIP3   OH272730   5.905   4.951   1.413 -0.0715  0.2474 -0.1712
17080TIP3    H172731   5.990   4.972   1.450 -1.0075  1.4869  1.3884
17080TIP3    H272732   5.879   4.869   1.454 -0.6240  1.0615  1.1595
17081TIP3   OH272733   2.764   4.753  15.790 -0.0763  0.2724  0.3138
17081TIP3    H172734   2.745   4.845  15.772 -1.4216  0.1312  0.8934
17081TIP3    H272735   2.840   4.756  15.849  1.9421  0.8518 -2.1304
17082TIP3   OH272736   6.181   2.349   2.966  0.1145  0.1223 -0.0097
17082TIP3    H172737   6.239   2.353   3.042 -0.0321  0.3455  0.0891
17082TIP3    H272738   6.152   2.439   2.953  1.0465  0.2958 -1.0301
17083TIP3   OH272739   2.005   4.721  16.396 -0.2592 -0.8927  0.2405
17083TIP3    H172740   1.984   4.808  16.432 -2.0378 -1.7782  1.5079
17083TIP3    H272741   2.097   4.728  16.369  0.2353  0.8233  2.0962
17084TIP3   OH272742   0.551   4.175   3.351 -0.2406  0.4205  0.0705
17084TIP3    H172743   0.643   4.150   3.355 -0.8903 -2.2041  2.0760
17084TIP3    H272744   0.532   4.185   3.257  1.9241  0.4596 -0.3993
17085TIP3   OH272745   2.674   0.054  10.932 -0.2688 -0.4379  0.2402
17085TIP3    H172746   2.698   0.012  11.015 -0.8348 -1.2719 -0.0040
17085TIP3    H272747   2.622  -0.012  10.886 -1.6027  0.7205  0.0406
17086TIP3   OH272748   4.450   6.802  11.036 -0.0236 -0.7219  0.4040
17086TIP3    H172749   4.525   6.856  11.012  0.1643 -0.8358  0.7270
17086TIP3    H272750   4.465   6.780  11.128  0.0762 -1.6144  0.1798
17087TIP3   OH272751   5.467   3.143   0.510 -0.2338 -0.4644 -0.1493
17087TIP3    H172752   5.420   3.138   0.426  1.0767  1.7972 -1.0933
17087TIP3    H272753   5.542   3.199   0.492  1.7697 -2.3322  1.8240
17088TIP3   OH272754   3.874   3.231  13.901 -0.1500 -0.0101 -0.4157
17088TIP3    H172755   3.801   3.244  13.840 -0.0960 -0.2643 -0.5362
17088TIP3    H272756   3.918   3.316  13.905 -0.4205  0.1291 -0.3849
17089TIP3   OH272757   4.003   0.253  15.566  0.7162  0.3408  0.2104
17089TIP3    H172758   3.987   0.265  15.659 -1.5060 -0.7196  0.0231
17089TIP3    H272759   4.085   0.203  15.562  0.1716 -0.7332  1.6624
17090TIP3   OH272760   4.056   6.740  14.442  0.2846 -0.5274 -0.7387
17090TIP3    H172761   4.137   6.784  14.418  1.0733 -1.8989 -0.7088
17090TIP3    H272762   4.029   6.782  14.524  1.4436 -0.6195 -0.2902
17091TIP3   OH272763   5.711   0.009   3.775  0.0771  0.6380  0.2062
17091TIP3    H172764   5.738   0.082   3.832 -0.4231 -0.0624  1.3883
17091TIP3    H272765   5.693  -0.063   3.836 -0.9655  0.0010 -0.8190
17092TIP3   OH272766   4.707   5.330   5.256 -0.0055  0.3388  0.2444
17092TIP3    H172767   4.700   5.413   5.209 -0.8056  0.1356 -0.0005
17092TIP3    H272768   4.675   5.349   5.344 -1.4897 -0.0132 -0.1911
17093TIP3   OH272769   3.260   4.706   0.700  0.4252 -0.7448  0.0551
17093TIP3    H172770   3.353   4.720   0.715 -0.0338  1.2369  1.5859
17093TIP3    H272771   3.244   4.617   0.730  1.7220 -0.9058  0.3407
17094TIP3   OH272772   6.442   3.114   0.827 -0.5328 -0.0364  1.0510
17094TIP3    H172773   6.380   3.075   0.765  0.0972 -0.5980  0.7603
17094TIP3    H272774   6.387   3.148   0.898 -1.2139  0.0272  0.5045
17095TIP3   OH272775   5.400   0.983  13.392 -0.1879 -0.3684  0.0649
17095TIP3    H172776   5.401   0.955  13.483 -1.7718 -2.9232 -0.5977
17095TIP3    H272777   5.472   0.934  13.351 -0.0583  0.0609 -0.2298
17096TIP3   OH272778   6.823   5.724   1.356  0.2573  0.2487 -0.1245
17096TIP3    H172779   6.888   5.661   1.389  1.0227 -0.1730 -2.2946
17096TIP3    H272780   6.874   5.783   1.300 -1.0377  0.7285 -0.8195
17097TIP3   OH272781   5.594   6.106   5.947 -0.0628  0.3705 -0.3967
17097TIP3    H172782   5.563   6.174   6.006 -1.8876  0.6985 -1.6389
17097TIP3    H272783   5.677   6.076   5.985 -0.3351  1.7218  1.3631
17098TIP3   OH272784   5.991   3.860  13.970  0.2663 -0.3066 -0.3681
17098TIP3    H172785   5.991   3.951  14.000 -0.3460  0.2272 -1.8992
17098TIP3    H272786   5.898   3.834  13.971  0.4130 -0.8387 -0.1551
17099TIP3   OH272787   5.321   1.144   4.926 -0.0277 -0.1757  0.0072
17099TIP3    H172788   5.343   1.074   4.988 -1.3794  1.4322  2.4837
17099TIP3    H272789   5.406   1.180   4.900  0.8483 -3.6055 -2.6700
17100TIP3   OH272790   2.764   4.524   2.974 -0.3110  0.2227  0.3376
17100TIP3    H172791   2.747   4.608   3.017 -0.2468 -0.1127  1.0315
17100TIP3    H272792   2.755   4.459   3.044 -1.5708 -0.4731 -0.4458
17101TIP3   OH272793   5.857   5.229   3.356  0.4397  0.0383  0.0614
17101TIP3    H172794   5.800   5.299   3.389 -0.1205  0.2825 -1.3360
17101TIP3    H272795   5.840   5.155   3.414 -0.3966  0.4853  0.4074
17102TIP3   OH272796   2.594   1.876   3.777 -0.3243 -0.9656  0.4110
17102TIP3    H172797   2.667   1.864   3.718 -0.5821 -0.1704 -0.0888
17102TIP3    H272798   2.540   1.944   3.736 -1.4497 -1.6771  0.6609
17103TIP3   OH272799   0.450   5.181   3.015 -0.2612 -0.3610  0.3837
17103TIP3    H172800   0.496   5.111   2.969 -1.0110  0.5350 -1.9132
17103TIP3    H272801   0.362   5.180   2.977 -0.9033  0.5167  1.7838
17104TIP3   OH272802   6.138   4.321  13.414  0.4330 -0.2415 -0.3854
17104TIP3    H172803   6.139   4.407  13.456  0.1512 -1.1815  1.7093
17104TIP3    H272804   6.180   4.263  13.478 -0.4703 -1.8711 -1.1942
17105TIP3   OH272805   2.207   6.374  17.097  0.3023 -0.5271  0.6800
17105TIP3    H172806   2.295   6.404  17.073  0.1105 -1.9886 -2.2761
17105TIP3    H272807   2.148   6.431  17.048 -0.2833 -1.1887  0.6029
17106TIP3   OH272808   1.370   6.208  14.435  0.1089 -0.6979  0.7406
17106TIP3    H172809   1.455   6.249  14.424  0.2613 -1.3100 -0.6997
17106TIP3    H272810   1.367   6.182  14.527  1.0859  0.1429  1.0281
17107TIP3   OH272811   2.459   2.640   1.171  0.5039 -0.0660  0.4735
17107TIP3    H172812   2.373   2.616   1.205  0.6500 -1.7516 -0.2546
17107TIP3    H272813   2.443   2.666   1.081  0.8044 -0.9727  0.1425
17108TIP3   OH272814   0.174   5.667  12.157 -0.2328 -0.0685 -0.1957
17108TIP3    H172815   0.203   5.600  12.218 -0.6985 -1.9521 -1.9529
17108TIP3    H272816   0.079   5.655  12.152 -0.6743  2.1907  1.0537
17109TIP3   OH272817   0.670   3.797  17.146  0.1884 -0.5211 -0.6925
17109TIP3    H172818   0.584   3.806  17.104  0.2579 -0.9960 -0.9466
17109TIP3    H272819   0.727   3.765  17.076  1.0256  1.5941 -1.0388
17110TIP3   OH272820   5.720   5.707   1.459 -0.2219 -0.2529 -0.3685
17110TIP3    H172821   5.804   5.714   1.503 -0.7990  1.0630  0.5818
17110TIP3    H272822   5.677   5.632   1.500  0.2950 -0.6732 -0.5734
17111TIP3   OH272823   2.539   1.645  11.237  0.3881 -0.5620  0.2127
17111TIP3    H172824   2.462   1.682  11.195 -0.2003 -1.4154  0.5069
17111TIP3    H272825   2.517   1.645  11.330  1.1673  0.1431  0.4079
17112TIP3   OH272826   3.999   5.981   5.070  0.2352  0.3823  0.7887
17112TIP3    H172827   3.944   6.028   5.008  0.9426  0.1313 -0.0451
17112TIP3    H272828   3.937   5.942   5.132 -0.4562  0.9632  0.4725
17113TIP3   OH272829   3.578   1.242   3.891 -0.3357  0.0659  0.4560
17113TIP3    H172830   3.638   1.185   3.940 -0.6724 -0.8167 -0.1461
17113TIP3    H272831   3.505   1.257   3.951 -0.0421  0.2350  0.7800
17114TIP3   OH272832   0.477   0.321  16.238 -0.0361  0.5286  0.6249
17114TIP3    H172833   0.491   0.352  16.327  0.7266  1.2803  0.2609
17114TIP3    H272834   0.389   0.350  16.216  0.5755  2.3193  0.3717
17115TIP3   OH272835   4.953   2.345  15.990 -0.3654 -0.2146  0.5558
17115TIP3    H172836   4.858   2.353  15.984 -0.7011 -1.7502  2.8478
17115TIP3    H272837   4.975   2.385  16.074  0.8844 -0.8431  0.5392
17116TIP3   OH272838   3.278   4.578   4.076 -0.2243  0.6005  0.0390
17116TIP3    H172839   3.200   4.634   4.067 -1.2656 -0.9258 -0.9821
17116TIP3    H272840   3.312   4.571   3.986  0.7054  0.7012  0.3748
17117TIP3   OH272841   5.696   5.605  16.396 -0.3069 -0.6379  0.3125
17117TIP3    H172842   5.790   5.623  16.399 -0.4024 -0.2081  1.0026
17117TIP3    H272843   5.668   5.610  16.488 -0.8110 -1.8199  0.2395
17118TIP3   OH272844   3.956   6.303   0.877 -0.1137 -0.4125 -0.1622
17118TIP3    H172845   3.921   6.388   0.901  0.8305 -0.2176  0.5758
17118TIP3    H272846   3.930   6.291   0.785  0.2151  0.9078 -0.4392
17119TIP3   OH272847   3.164   5.703  16.761  0.1197 -0.0962  0.6241
17119TIP3    H172848   3.126   5.636  16.818  2.6160 -2.1988  0.0169
17119TIP3    H272849   3.126   5.686  16.675  0.8646 -0.9037  0.4366
17120TIP3   OH272850   1.987   4.963  12.199 -0.0219 -0.3794 -0.0161
17120TIP3    H172851   1.989   4.924  12.112 -1.7534 -0.3191 -0.1000
17120TIP3    H272852   1.895   4.984  12.215  0.6438  2.3696  0.6266
17121TIP3   OH272853   4.148   5.070   1.225 -0.1019 -0.2344 -0.4520
17121TIP3    H172854   4.139   5.104   1.314  1.5649 -1.4843  0.2426
17121TIP3    H272855   4.197   4.989   1.235  0.6532 -0.1042 -2.5853
17122TIP3   OH272856   1.955   0.617  15.977 -0.0786  0.3925 -0.7853
17122TIP3    H172857   1.991   0.700  16.008 -1.0092  0.3033  0.6138
17122TIP3    H272858   1.953   0.561  16.054 -2.3096  0.0797 -0.9887
17123TIP3   OH272859   3.518   6.106   6.686 -0.2072  0.1664  0.0697
17123TIP3    H172860   3.470   6.138   6.762 -0.0373  1.1383 -0.2066
17123TIP3    H272861   3.497   6.169   6.617 -0.5072 -0.7984 -0.7440
17124TIP3   OH272862   3.836   6.480   1.074 -0.3746 -0.2267  0.1478
17124TIP3    H172863   3.877   6.552   1.122  0.2280 -1.3084  1.3452
17124TIP3    H272864   3.861   6.402   1.124 -0.6770 -1.3029 -1.3183
17125TIP3   OH272865   1.171   2.699  13.838 -0.5956 -0.5077 -0.3178
17125TIP3    H172866   1.260   2.706  13.804 -0.1049  0.0215  1.0065
17125TIP3    H272867   1.182   2.661  13.925 -1.7573 -1.3210 -0.5077
17126TIP3   OH272868   4.429   3.684   1.672  0.9423 -0.0747  0.3240
17126TIP3    H172869   4.508   3.721   1.633 -0.5669  4.3615  0.8874
17126TIP3    H272870   4.446   3.683   1.766  1.4363 -2.3819  0.2660
17127TIP3   OH272871   4.593   4.232   6.573  0.1572 -0.3636 -0.5307
17127TIP3    H172872   4.643   4.252   6.652  0.8777  0.3591 -1.1433
17127TIP3    H272873   4.503   4.258   6.594  0.7513  2.1424 -0.7125
17128TIP3   OH272874   3.820   0.406  14.285  0.3745 -0.2879  0.3926
17128TIP3    H172875   3.763   0.380  14.358 -1.0578 -0.8331 -0.8666
17128TIP3    H272876   3.791   0.494  14.262  0.1451 -0.4970 -0.1365
17129TIP3   OH272877   2.238   1.262  12.398 -0.1500  0.3650  0.1912
17129TIP3    H172878   2.320   1.250  12.446  0.3777 -0.0335 -0.7973
17129TIP3    H272879   2.252   1.341  12.346 -0.1547 -0.0493 -0.4493
17130TIP3   OH272880   2.876   3.021  13.642 -0.0728  0.5613  0.4080
17130TIP3    H172881   2.913   3.057  13.562 -1.3030  1.5571  0.2454
17130TIP3    H272882   2.790   3.064  13.650 -0.7066 -0.8035  1.3445
17131TIP3   OH272883   3.391   6.591   2.023 -0.5779 -0.3473 -0.1154
17131TIP3    H172884   3.419   6.614   2.111 -0.9048 -1.5805  0.3263
17131TIP3    H272885   3.296   6.607   2.023 -0.4675  0.3648 -0.4889
17132TIP3   OH272886   1.741   0.693   1.133 -0.1883 -0.2605 -0.1165
17132TIP3    H172887   1.676   0.733   1.076 -0.3714  0.4495  0.5707
17132TIP3    H272888   1.691   0.662   1.208  0.4064  1.6315  1.1275
17133TIP3   OH272889   6.807   0.377  13.217 -0.4226 -0.2789 -0.0926
17133TIP3    H172890   6.766   0.460  13.243 -1.0995 -0.9244  0.9458
17133TIP3    H272891   6.889   0.374  13.266  1.5950  1.5381 -2.9859
17134TIP3   OH272892   3.884   3.304  11.134 -0.7015 -0.7064  0.5504
17134TIP3    H172893   3.892   3.215  11.169  1.4296  0.0289  2.1792
17134TIP3    H272894   3.917   3.298  11.045  0.7901 -1.3593  1.0977
17135TIP3   OH272895   4.804   3.064  12.131 -0.2263  0.8371  0.4150
17135TIP3    H172896   4.886   3.018  12.150 -1.1624 -0.3830  1.7299
17135TIP3    H272897   4.771   3.022  12.051 -0.7544 -0.3890  1.2512
17136TIP3   OH272898   1.788   4.071   3.172  0.0391  0.5114 -0.0628
17136TIP3    H172899   1.732   4.033   3.240 -0.1325  1.5680  0.4118
17136TIP3    H272900   1.843   3.998   3.143  0.4897  0.1500  1.5876
17137TIP3   OH272901   5.841   5.565   1.808 -0.3305 -0.1990 -0.1067
17137TIP3    H172902   5.901   5.629   1.771  0.5125 -0.5504  0.6061
17137TIP3    H272903   5.754   5.602   1.794  0.0890  0.6592 -0.5190
17138TIP3   OH272904   1.378   3.472  14.830  0.4316 -0.0909  0.4086
17138TIP3    H172905   1.296   3.431  14.802 -0.1756  0.9583  0.6282
17138TIP3    H272906   1.362   3.498  14.920  1.3407 -0.7096  0.7690
17139TIP3   OH272907   2.171   2.029  14.091  0.1192  0.0241 -0.3076
17139TIP3    H172908   2.202   2.049  14.179 -0.2627 -2.3696  0.4540
17139TIP3    H272909   2.250   2.030  14.037  0.9324 -1.8079  0.7610
17140TIP3   OH272910   3.270   0.520   0.199 -0.1760  0.2564 -0.2845
17140TIP3    H172911   3.236   0.607   0.218  0.5803  0.7502 -1.1500
17140TIP3    H272912   3.310   0.491   0.280  1.9734  1.8433 -0.7051
17141TIP3   OH272913   5.421   4.997  15.679  0.2060 -0.3052  0.0740
17141TIP3    H172914   5.430   4.957  15.766  0.1723 -2.6150 -0.9192
17141TIP3    H272915   5.460   5.084  15.689 -0.2089 -0.3167  2.5039
17142TIP3   OH272916   3.678   5.185   0.135 -0.0984 -0.3594  0.1940
17142TIP3    H172917   3.630   5.117   0.181  1.2311 -1.3461  0.1830
17142TIP3    H272918   3.656   5.171   0.042  0.8032 -1.3315  0.1067
17143TIP3   OH272919   2.992   3.625  15.975 -0.1972  0.4281 -0.3609
17143TIP3    H172920   3.047   3.672  16.038 -1.6575  1.8217 -0.0622
17143TIP3    H272921   2.945   3.694  15.928 -0.1097 -0.6388 -2.1098
17144TIP3   OH272922   3.469   1.309   5.677  0.3762 -0.1013 -0.0033
17144TIP3    H172923   3.455   1.378   5.741 -2.1353 -0.5859  0.0616
17144TIP3    H272924   3.447   1.228   5.722  1.7773 -0.8267 -0.5423
17145TIP3   OH272925   5.601   3.055  12.582  0.5796 -0.6455  0.4285
17145TIP3    H172926   5.684   3.102  12.575  0.1870  0.6066  3.0815
17145TIP3    H272927   5.537   3.121  12.608 -1.2059 -1.6770 -1.0263
17146TIP3   OH272928   3.160   2.176  11.965  0.0021  0.4410  0.0107
17146TIP3    H172929   3.065   2.164  11.969 -0.2944  1.3590 -2.4477
17146TIP3    H272930   3.173   2.270  11.981  0.5783  0.2309  0.8638
17147TIP3   OH272931   0.497   0.380  13.772 -0.2668 -0.7272 -0.3692
17147TIP3    H172932   0.541   0.465  13.771  1.4741 -1.5772  0.2425
17147TIP3    H272933   0.527   0.335  13.693  0.6089 -1.6020  0.4296
17148TIP3   OH272934   2.877   6.343   0.977  0.4417 -0.5202 -0.2299
17148TIP3    H172935   2.914   6.430   0.989 -1.6358  0.5415 -1.1095
17148TIP3    H272936   2.874   6.305   1.065  1.3609  0.2780  0.1604
17149TIP3   OH272937   6.834   5.809   5.859 -0.4271 -0.6611 -0.3164
17149TIP3    H172938   6.895   5.819   5.932 -1.0083 -1.5402  0.3245
17149TIP3    H272939   6.794   5.723   5.873 -2.5631  0.2779 -0.1030
17150TIP3   OH272940   3.786   5.926   3.782 -0.3691  0.4482  0.1281
17150TIP3    H172941   3.792   5.918   3.687 -0.3205 -1.1335  0.2406
17150TIP3    H272942   3.857   5.872   3.815 -1.5982 -0.6245  1.0861
17151TIP3   OH272943   0.354   4.783   0.259  0.0561 -0.4015  0.4117
17151TIP3    H172944   0.389   4.824   0.180  1.3072  0.0313  1.1608
17151TIP3    H272945   0.422   4.796   0.325 -0.0749 -2.5133  1.0474
17152TIP3   OH272946   5.048   5.863  16.078 -0.0055  0.0585 -0.7834
17152TIP3    H172947   5.094   5.822  16.004 -0.3476  0.0252 -0.9785
17152TIP3    H272948   5.061   5.803  16.151  1.9481  0.9782 -0.3007
17153TIP3   OH272949   6.638   2.216   1.299  0.1431  0.2834  0.1433
17153TIP3    H172950   6.626   2.256   1.212 -1.6333  0.0742  0.2557
17153TIP3    H272951   6.578   2.265   1.356 -0.9103 -1.4880  0.6193
17154TIP3   OH272952   3.562   0.400   3.581 -0.9334 -0.0866  0.7970
17154TIP3    H172953   3.598   0.317   3.609 -1.0820 -0.2116  0.6199
17154TIP3    H272954   3.501   0.425   3.650 -1.3713 -0.4401  0.5411
17155TIP3   OH272955   3.679   1.945   5.330  0.4019 -0.4906  0.5780
17155TIP3    H172956   3.754   2.003   5.319  0.5721 -1.2060 -3.0532
17155TIP3    H272957   3.641   1.971   5.414  2.2701  2.6957  0.5904
17156TIP3   OH272958   5.294   3.511  16.152 -0.5345 -0.1270  0.3378
17156TIP3    H172959   5.247   3.490  16.071 -0.2093  0.9302 -0.1381
17156TIP3    H272960   5.278   3.435  16.209  0.1667 -1.4403 -1.1117
17157TIP3   OH272961   4.866   6.702  14.935  0.3817 -0.0398 -0.0919
17157TIP3    H172962   4.861   6.608  14.948  2.9532 -0.0814  1.2034
17157TIP3    H272963   4.872   6.713  14.840  0.0081 -1.1533 -0.2598
17158TIP3   OH272964   6.836   6.423  12.374  0.1035 -0.3429 -0.2552
17158TIP3    H172965   6.897   6.486  12.412 -0.6139 -0.0308  0.4042
17158TIP3    H272966   6.768   6.477  12.334 -0.0744 -0.6985 -0.4313
17159TIP3   OH272967   1.058   3.812   3.464  0.1106  0.5768 -0.2164
17159TIP3    H172968   0.980   3.782   3.511 -0.7622  0.2740 -1.7674
17159TIP3    H272969   1.025   3.876   3.401  0.7878 -0.8411 -2.1197
17160TIP3   OH272970   1.629   4.291  11.465  0.0234  0.4202  0.2331
17160TIP3    H172971   1.691   4.339  11.520  0.5525  0.2296 -0.1788
17160TIP3    H272972   1.557   4.352  11.450  0.7088  1.1122 -0.3282
17161TIP3   OH272973   3.363   3.993   4.712 -0.4418 -0.5163 -0.3656
17161TIP3    H172974   3.363   3.963   4.621  0.5333 -1.0861 -0.1860
17161TIP3    H272975   3.391   3.917   4.763 -1.2007 -0.2714  0.4474
17162TIP3   OH272976   6.395   4.346   2.901  0.1444  0.7236  0.5491
17162TIP3    H172977   6.360   4.285   2.837 -1.0651  0.4965  1.3883
17162TIP3    H272978   6.480   4.310   2.926 -0.9873 -1.2389  1.8150
17163TIP3   OH272979   3.437   5.780  12.445 -0.3137 -0.4866 -0.6196
17163TIP3    H172980   3.446   5.867  12.405 -1.5519 -0.6523 -1.3076
17163TIP3    H272981   3.464   5.720  12.376 -1.1043 -0.7167 -0.7308
17164TIP3   OH272982   3.907   1.590  15.698 -0.2026  0.1676  0.2466
17164TIP3    H172983   3.864   1.645  15.633 -2.4892 -1.1199  0.5418
17164TIP3    H272984   3.845   1.519  15.714  1.3097 -0.8443  2.0892
17165TIP3   OH272985   3.685   3.914   1.213  0.8499 -0.2040  0.1126
17165TIP3    H172986   3.723   3.919   1.301  1.6089 -2.0412 -0.0509
17165TIP3    H272987   3.683   3.820   1.195  3.5438  0.1748 -3.0342
17166TIP3   OH272988   5.056   0.296   3.742  0.5662  0.2058  0.2200
17166TIP3    H172989   4.997   0.256   3.806  0.3454  0.1469 -0.0142
17166TIP3    H272990   5.084   0.223   3.687  0.8725  0.2320  0.3412
17167TIP3   OH272991   5.059   6.504   3.106 -0.1704 -0.2280 -0.4647
17167TIP3    H172992   5.007   6.521   3.184  2.7894  0.1318  1.6298
17167TIP3    H272993   5.095   6.590   3.082  0.3602 -0.6148 -1.1065
17168TIP3   OH272994   2.336   4.930  13.907 -0.6649  0.3016 -0.0958
17168TIP3    H172995   2.245   4.909  13.884 -0.2885 -0.3952 -0.9713
17168TIP3    H272996   2.360   4.863  13.972 -0.4686 -0.1113 -0.5883
17169TIP3   OH272997   1.044   5.185   6.725 -0.1125  0.1817 -0.4855
17169TIP3    H172998   1.124   5.205   6.677  0.4522 -0.4604  0.1593
17169TIP3    H272999   0.986   5.259   6.707 -0.2770 -0.4492 -2.8671
17170TIP3   OH273000   0.765   5.676   2.529 -0.5404 -0.1106  0.0259
17170TIP3    H173001   0.693   5.723   2.571  0.6128  2.8023 -0.9354
17170TIP3    H273002   0.799   5.618   2.597 -3.0809 -0.8171  0.8008
17171TIP3   OH273003   1.489   5.852  14.932  0.4022 -0.4568 -0.5614
17171TIP3    H173004   1.557   5.875  14.995 -0.1335  0.2868 -0.2377
17171TIP3    H273005   1.418   5.815  14.985  1.6388 -4.0725 -1.1428
17172TIP3   OH273006   4.399   1.039   1.209  0.2640  0.2749  0.0448
17172TIP3    H173007   4.366   0.960   1.252  0.1417  0.7543  0.8546
17172TIP3    H273008   4.487   1.051   1.245  0.4164  0.3137 -0.3384
17173TIP3   OH273009   4.542   5.825   5.863  0.0002  0.2886 -0.1649
17173TIP3    H173010   4.463   5.772   5.849 -1.0952  2.4514 -3.2938
17173TIP3    H273011   4.607   5.787   5.805  0.6585 -0.2745  0.9189
17174TIP3   OH273012   0.785   1.099  13.024 -0.3552  0.3865 -0.0034
17174TIP3    H173013   0.750   1.150  12.951 -0.1857  1.4769  0.6627
17174TIP3    H273014   0.805   1.163  13.092 -0.4880 -0.6016  1.0086
17175TIP3   OH273015   4.894   2.809   2.554  0.1809  0.5128  0.1966
17175TIP3    H173016   4.882   2.833   2.646 -1.0724 -0.5306  0.3332
17175TIP3    H273017   4.977   2.761   2.553  0.3058  0.7000  0.7400
17176TIP3   OH273018   6.044   0.803   1.267 -0.3675  0.4874 -0.2372
17176TIP3    H173019   6.113   0.837   1.324  0.7752 -3.4584  1.0046
17176TIP3    H273020   5.991   0.748   1.324  0.9075 -3.7962 -2.7772
17177TIP3   OH273021   0.535   2.348   0.401 -0.0605 -0.5468 -0.2092
17177TIP3    H173022   0.473   2.276   0.391 -1.1824  0.3374  0.1560
17177TIP3    H273023   0.550   2.353   0.496  0.5897 -0.7621 -0.2961
17178TIP3   OH273024   1.760   5.471   3.051 -0.3154 -0.5868 -0.0926
17178TIP3    H173025   1.836   5.529   3.045  0.3805 -1.3827  0.8525
17178TIP3    H273026   1.794   5.389   3.083 -1.6530 -0.8205  0.8060
17179TIP3   OH273027   0.670   6.291   4.964 -0.1913 -0.1401  0.0363
17179TIP3    H173028   0.713   6.318   4.883 -0.9628 -0.4628 -0.4955
17179TIP3    H273029   0.577   6.297   4.944 -0.3819 -0.9216  0.6641
17180TIP3   OH273030   2.449   1.708  14.460 -0.2069  0.1454 -0.1684
17180TIP3    H173031   2.485   1.628  14.498 -0.1460 -1.0007 -2.4241
17180TIP3    H273032   2.497   1.779  14.504  0.1789 -1.0607  1.4483
17181TIP3   OH273033   6.778   2.272   2.193  0.0658 -0.2215 -0.2063
17181TIP3    H173034   6.873   2.271   2.206 -0.0095  0.3532  0.4489
17181TIP3    H273035   6.743   2.229   2.272 -0.2124 -0.6940 -0.5768
17182TIP3   OH273036   0.723   5.810   3.182 -0.3920 -0.2001 -0.1462
17182TIP3    H173037   0.782   5.884   3.195 -0.6866 -0.2461  1.7384
17182TIP3    H273038   0.760   5.741   3.237 -1.9568 -0.3632  0.7403
17183TIP3   OH273039   2.306   4.615  13.199  0.2244  0.0101 -0.1949
17183TIP3    H173040   2.374   4.670  13.238  1.8206 -2.3774  0.6326
17183TIP3    H273041   2.329   4.611  13.106 -0.2140  1.1010 -0.3669
17184TIP3   OH273042   6.131   1.598  11.023  0.0771  0.0100 -1.1731
17184TIP3    H173043   6.173   1.674  11.064 -0.2203  0.2081 -1.2344
17184TIP3    H273044   6.137   1.528  11.088  3.0190 -0.8227 -2.1586
17185TIP3   OH273045   0.260   3.353   4.254  0.4459 -0.1832  0.6632
17185TIP3    H173046   0.217   3.364   4.169  0.1886 -0.5643  0.7430
17185TIP3    H273047   0.245   3.261   4.276 -0.2209  0.1238  1.5209
17186TIP3   OH273048   0.933   1.609   3.901  1.0173  0.3090 -0.4305
17186TIP3    H173049   0.876   1.554   3.848  3.0039 -3.0189  0.6304
17186TIP3    H273050   0.900   1.600   3.990  1.6862  0.4296 -0.1640
17187TIP3   OH273051   6.376   0.987   3.842  1.1872 -0.0551  0.5480
17187TIP3    H173052   6.460   1.033   3.841  0.0330  2.2246 -0.6042
17187TIP3    H273053   6.365   0.956   3.752 -0.1464  1.6791  0.0493
17188TIP3   OH273054   6.507   3.126  13.805  0.1704 -0.0765  0.3880
17188TIP3    H173055   6.537   3.097  13.891  1.0590  1.1097  0.4942
17188TIP3    H273056   6.471   3.047  13.765 -0.6271 -0.5771  1.9918
17189TIP3   OH273057   0.332   6.779   5.561 -0.8006  0.4873  0.2338
17189TIP3    H173058   0.375   6.852   5.516  0.0464  1.3872  2.3699
17189TIP3    H273059   0.404   6.727   5.596 -1.4053 -1.2634 -0.9608
17190TIP3   OH273060   6.017   3.344  17.015 -0.5166 -0.3830  0.3562
17190TIP3    H173061   5.934   3.304  16.989 -0.3673 -1.1554  1.0225
17190TIP3    H273062   6.050   3.287  17.085 -0.8012  1.4439  2.0820
17191TIP3   OH273063   6.469   0.027   0.791  0.1148 -0.4202  0.3251
17191TIP3    H173064   6.485  -0.035   0.862  1.1786  1.9292  2.2824
17191TIP3    H273065   6.542   0.013   0.731  0.1370 -1.2860  0.5350
17192TIP3   OH273066   3.562   3.731  16.635 -0.7458 -0.6173 -0.1895
17192TIP3    H173067   3.568   3.636  16.643  0.9930 -0.5983 -0.9123
17192TIP3    H273068   3.582   3.750  16.544  0.3041  0.5160  0.2394
17193TIP3   OH273069   4.805   4.959  16.079 -0.3476  0.3745 -0.3171
17193TIP3    H173070   4.883   4.967  16.135 -1.1316  0.2242  0.8363
17193TIP3    H273071   4.817   4.875  16.034 -0.4940 -0.3401  0.9274
17194TIP3   OH273072   3.570   4.700   5.771 -0.3837  0.0018 -0.6029
17194TIP3    H173073   3.518   4.754   5.711  0.3481  0.2862 -0.9903
17194TIP3    H273074   3.590   4.621   5.720  0.3855  0.3186 -0.8023
17195TIP3   OH273075   3.311   4.070   0.648  0.0000  1.0530 -0.2322
17195TIP3    H173076   3.269   4.077   0.734  0.9577  0.5341  0.2941
17195TIP3    H273077   3.352   4.155   0.635 -1.2637  1.5934 -0.7897
17196TIP3   OH273078   6.828   1.222  16.524 -0.2866 -0.2911 -0.9028
17196TIP3    H173079   6.735   1.223  16.502 -0.5308  0.9762  0.0710
17196TIP3    H273080   6.833   1.261  16.611  1.1600 -0.4082 -0.8995
17197TIP3   OH273081   5.789   1.971   3.222  0.1406  0.3548 -0.1372
17197TIP3    H173082   5.885   1.972   3.214  0.1860 -1.2130 -0.1588
17197TIP3    H273083   5.764   2.063   3.224  1.7620  0.8148  1.1852
17198TIP3   OH273084   5.323   2.373  16.666  0.2488 -0.1821 -0.9578
17198TIP3    H173085   5.314   2.283  16.634 -1.5404 -0.2454 -0.3472
17198TIP3    H273086   5.239   2.414  16.646 -0.4340  0.2099  2.2554
17199TIP3   OH273087   4.520   4.186   0.192 -0.3144  0.1512  0.4071
17199TIP3    H173088   4.583   4.128   0.149  0.9239  0.0964  2.1591
17199TIP3    H273089   4.566   4.269   0.201 -1.3607  0.8304 -0.3354
17200TIP3   OH273090   4.071   2.605  16.921  0.1266  0.4765 -0.1644
17200TIP3    H173091   4.071   2.517  16.958  0.0233  0.9270  0.9218
17200TIP3    H273092   3.990   2.609  16.871 -0.8703  0.6141  1.4112
17201TIP3   OH273093   2.941   0.557  16.237  0.4228  0.4817  0.2584
17201TIP3    H173094   3.033   0.543  16.212  0.3447  0.4095  0.0012
17201TIP3    H273095   2.891   0.517  16.166  0.1900  2.0416 -0.5178
17202TIP3   OH273096   5.635   5.312  13.572 -0.4086 -0.0592 -0.5244
17202TIP3    H173097   5.630   5.247  13.502 -0.8858 -0.2382 -0.3325
17202TIP3    H273098   5.544   5.333  13.591 -0.2577  1.1102 -0.9842
17203TIP3   OH273099   2.367   6.705  12.545  0.0865 -0.3902  0.3200
17203TIP3    H173100   2.334   6.774  12.602 -0.5514 -0.0042 -0.5102
17203TIP3    H273101   2.294   6.684  12.487  1.1243  0.1812 -1.2703
17204TIP3   OH273102   4.057   4.776  14.679  0.2685  0.0103 -0.5181
17204TIP3    H173103   4.081   4.844  14.742 -1.3216 -0.8126  1.0994
17204TIP3    H273104   4.134   4.765  14.624  1.1266  1.9762  0.1956
17205TIP3   OH273105   6.432   2.227  16.709  0.0187 -0.3161  0.2493
17205TIP3    H173106   6.340   2.221  16.734  0.0970 -1.2971  0.3335
17205TIP3    H273107   6.431   2.268  16.623 -0.5856 -1.4503 -0.3043
17206TIP3   OH273108   1.611   6.325  14.571  0.2153  0.6201 -0.0686
17206TIP3    H173109   1.550   6.367  14.632  1.3580  0.0273  1.5368
17206TIP3    H273110   1.688   6.381  14.571 -0.3734  1.5305 -2.3254
17207TIP3   OH273111   2.881   0.794  13.374 -0.5895  0.2022 -0.3729
17207TIP3    H173112   2.902   0.775  13.465  1.6399  1.6997 -0.4851
17207TIP3    H273113   2.958   0.765  13.325 -1.8620 -0.8364 -1.8525
17208TIP3   OH273114   6.080   5.615  11.052  0.7395  0.1281 -0.1232
17208TIP3    H173115   6.074   5.707  11.028  1.2336  0.0452 -0.5839
17208TIP3    H273116   6.173   5.593  11.041  0.3963 -0.7994 -1.4894
17209TIP3   OH273117   0.228   4.605  16.010  0.0949 -0.2817  0.1029
17209TIP3    H173118   0.322   4.598  15.990  0.3581  0.9046  0.7827
17209TIP3    H273119   0.196   4.515  16.007  1.9476 -1.1972  3.1431
17210TIP3   OH273120   1.840   5.188   0.303  0.5266 -0.0672 -0.4502
17210TIP3    H173121   1.882   5.274   0.296 -0.8305  0.5499 -1.6724
17210TIP3    H273122   1.830   5.160   0.212 -0.7740 -0.6426 -0.1444
17211TIP3   OH273123   2.753   4.437   1.474  0.5784 -0.2697 -0.7947
17211TIP3    H173124   2.696   4.439   1.397 -1.0245  0.6529  0.3404
17211TIP3    H273125   2.841   4.425   1.439  0.1232  1.7823 -2.9287
17212TIP3   OH273126   2.311   5.195   4.002 -0.1443 -0.2861 -0.8616
17212TIP3    H173127   2.234   5.150   3.968 -1.6961  0.8339  0.9557
17212TIP3    H273128   2.362   5.218   3.925 -0.2127 -3.4085 -1.9659
17213TIP3   OH273129   6.511   1.139  15.583 -0.4200  1.0800  0.3599
17213TIP3    H173130   6.475   1.054  15.557  0.4212  0.4613  1.1090
17213TIP3    H273131   6.446   1.176  15.643 -1.3773  1.5559 -0.9431
17214TIP3   OH273132   4.940   4.328  16.979 -0.1473  0.4995  0.1110
17214TIP3    H173133   4.952   4.421  16.962 -1.7826  0.6945 -0.1997
17214TIP3    H273134   4.845   4.318  16.990  0.1047 -0.9025  1.5019
17215TIP3   OH273135   2.139   5.151   2.227  0.4641 -0.4324 -0.1723
17215TIP3    H173136   2.193   5.229   2.211  1.8226 -1.4186 -0.5885
17215TIP3    H273137   2.090   5.139   2.145 -2.2306  1.7628  0.9541
17216TIP3   OH273138   4.976   3.328  10.800 -0.2813  0.0448 -0.1630
17216TIP3    H173139   5.015   3.241  10.789 -1.6695 -0.6363  0.0435
17216TIP3    H273140   4.987   3.346  10.894  1.5889  0.9242 -0.4895
17217TIP3   OH273141   1.664   4.426   2.804 -0.0099  0.2654 -0.0383
17217TIP3    H173142   1.611   4.402   2.880 -0.2423  0.8023 -0.0269
17217TIP3    H273143   1.705   4.509   2.829  1.0247 -0.2539  0.0427
17218TIP3   OH273144   2.217   1.618   2.243  0.3648 -0.2554  0.3586
17218TIP3    H173145   2.309   1.599   2.258  0.4321 -0.6051 -0.4480
17218TIP3    H273146   2.216   1.675   2.166 -0.1118 -0.4706  0.2029
17219TIP3   OH273147   3.561   3.372  16.956  0.2426 -0.2177 -0.0365
17219TIP3    H173148   3.517   3.338  17.034 -0.7959  0.8551 -0.1293
17219TIP3    H273149   3.521   3.458  16.941 -0.0246 -0.6361 -2.0917
17220TIP3   OH273150   0.519   3.811   2.717 -0.7374 -0.4493 -0.2638
17220TIP3    H173151   0.471   3.803   2.635  2.0503  0.9188 -2.1848
17220TIP3    H273152   0.547   3.721   2.737 -0.9317 -0.7107 -1.1424
17221TIP3   OH273153   5.313   1.032  14.056  0.0211  0.1116  0.2527
17221TIP3    H173154   5.233   0.979  14.054  0.1406 -0.0625 -0.4436
17221TIP3    H273155   5.297   1.101  13.992  1.1293 -1.0035 -1.3119
17222TIP3   OH273156   2.073   3.398   5.407  0.0952  0.1649 -0.0705
17222TIP3    H173157   2.163   3.394   5.440 -0.3317 -1.2467  0.9768
17222TIP3    H273158   2.018   3.391   5.485 -0.9240 -0.5455 -0.8323
17223TIP3   OH273159   4.229   4.025   4.803 -0.5433 -0.1147  0.2386
17223TIP3    H173160   4.200   4.081   4.730 -0.7253 -1.9919 -1.2283
17223TIP3    H273161   4.324   4.024   4.796 -0.6026 -1.2692 -0.8195
17224TIP3   OH273162   2.191   4.184   1.113 -0.3715  0.3626  0.0005
17224TIP3    H173163   2.156   4.190   1.024  0.1966  0.6092 -0.2124
17224TIP3    H273164   2.196   4.091   1.131  2.1647  0.1441 -1.3220
17225TIP3   OH273165   6.331   5.247  11.332  0.0681  0.2397  0.0225
17225TIP3    H173166   6.360   5.331  11.296  1.2216 -0.7138 -1.3621
17225TIP3    H273167   6.397   5.184  11.303 -0.8475 -1.1841  0.9103
17226TIP3   OH273168   3.666   0.973   2.139 -0.2606  0.6127  0.6580
17226TIP3    H173169   3.703   0.918   2.208 -2.1665 -0.2767  1.0285
17226TIP3    H273170   3.691   0.930   2.058 -2.5562 -1.4896  0.9519
17227TIP3   OH273171   5.431   0.579  14.474 -1.1406 -0.1755  0.6031
17227TIP3    H173172   5.497   0.607  14.538 -0.6181 -1.4696  0.6463
17227TIP3    H273173   5.450   0.632  14.396  0.4491 -1.0199  0.3630
17228TIP3   OH273174   5.328   0.392   6.047 -0.6105  0.7082 -0.3989
17228TIP3    H173175   5.419   0.421   6.050 -0.1091 -0.6695 -1.1636
17228TIP3    H273176   5.280   0.459   6.094  0.7817  1.5380 -0.0918
17229TIP3   OH273177   5.774   1.548  13.019  0.4840 -0.4157  0.0743
17229TIP3    H173178   5.793   1.474  13.077  2.8424 -1.6968 -2.1587
17229TIP3    H273179   5.830   1.534  12.943 -1.3701  1.9855 -1.8867
17230TIP3   OH273180   3.498   3.999   3.007  0.6990  0.1241  0.8277
17230TIP3    H173181   3.432   3.934   3.032 -0.1560  0.0448 -1.4040
17230TIP3    H273182   3.448   4.079   2.990  0.9734 -0.1737 -1.7480
17231TIP3   OH273183   1.836   5.588  16.051  0.0717  0.0783 -0.5772
17231TIP3    H173184   1.784   5.610  16.128 -1.7839 -0.0162 -1.7433
17231TIP3    H273185   1.776   5.543  15.993  1.6463 -0.6096 -1.7590
17232TIP3   OH273186   2.311   3.426  13.140 -0.1684  0.6300 -0.1358
17232TIP3    H173187   2.242   3.484  13.174 -0.8081  0.0481 -0.4251
17232TIP3    H273188   2.392   3.475  13.156 -0.8013  2.4495 -2.0453
17233TIP3   OH273189   3.189   0.581   0.932  0.3161  0.4325 -0.4328
17233TIP3    H173190   3.166   0.647   0.997 -0.5751  0.3711 -0.6767
17233TIP3    H273191   3.115   0.581   0.871 -0.0830 -1.3679  0.0119
17234TIP3   OH273192   3.244   1.479  15.686  0.3371 -0.6240  0.0141
17234TIP3    H173193   3.197   1.473  15.603  0.5106 -0.0766 -0.1295
17234TIP3    H273194   3.178   1.505  15.750  0.2299 -0.9162  0.0235
17235TIP3   OH273195   2.245   3.851   3.679  0.7829 -0.1511  0.3653
17235TIP3    H173196   2.156   3.839   3.713  1.6371 -1.6039  2.2490
17235TIP3    H273197   2.280   3.924   3.729  0.7076  0.3892 -0.3430
17236TIP3   OH273198   0.311   1.634  13.516 -0.0043 -0.1756  0.3338
17236TIP3    H173199   0.284   1.696  13.584  0.6363  0.0183  0.4266
17236TIP3    H273200   0.295   1.548  13.555 -1.6872 -0.1006 -0.1175
17237TIP3   OH273201   0.806   0.325   3.669 -0.1541  0.7210  0.3298
17237TIP3    H173202   0.753   0.357   3.597 -0.9949  0.5491  0.8472
17237TIP3    H273203   0.748   0.332   3.746  0.5962  0.5828  0.9189
17238TIP3   OH273204   2.995   0.974  11.623 -0.0207  0.3886 -0.4541
17238TIP3    H173205   3.059   1.007  11.560 -0.2107 -0.6136 -1.1969
17238TIP3    H273206   2.957   1.052  11.662  2.2474  1.0334  0.6540
17239TIP3   OH273207   4.062   5.240   5.916  0.6049  0.3299 -0.1422
17239TIP3    H173208   4.093   5.168   5.861  1.7683  0.7959 -0.1325
17239TIP3    H273209   4.009   5.293   5.857 -1.1244 -1.0322  0.0947
17240TIP3   OH273210   4.401   2.821   4.681  0.3580  0.2021 -0.3767
17240TIP3    H173211   4.332   2.866   4.632  0.4254  0.4222 -0.2707
17240TIP3    H273212   4.370   2.823   4.772 -0.3316 -1.2422 -0.5622
17241TIP3   OH273213   5.312   0.432  13.583 -0.5130 -0.5993 -0.5032
17241TIP3    H173214   5.329   0.407  13.492 -0.6488 -0.8380 -0.4614
17241TIP3    H273215   5.217   0.439  13.590 -0.4906 -0.3111 -0.4499
17242TIP3   OH273216   0.450   5.692  13.414 -0.1543  0.2317  0.5795
17242TIP3    H173217   0.482   5.613  13.458 -2.0055  0.3635  2.3508
17242TIP3    H273218   0.411   5.660  13.333  0.7195 -0.4205  0.4023
17243TIP3   OH273219   5.483   2.870  11.584 -0.1432 -0.3056  0.7932
17243TIP3    H173220   5.417   2.906  11.643  0.0928 -0.0921  0.9283
17243TIP3    H273221   5.464   2.776  11.581  0.1385 -0.3966  1.5876
17244TIP3   OH273222   5.755   5.452   6.436 -0.2314  0.3749 -0.6411
17244TIP3    H173223   5.795   5.505   6.366 -0.6004  0.7702 -0.5547
17244TIP3    H273224   5.688   5.509   6.473 -0.5341 -0.1079 -0.4494
17245TIP3   OH273225   2.326   6.089  16.203 -0.0559 -0.4285 -0.4202
17245TIP3    H173226   2.261   6.020  16.192  0.1728 -0.3684 -2.8529
17245TIP3    H273227   2.411   6.045  16.192  0.7081 -0.9790  5.0891
17246TIP3   OH273228   5.214   6.491  14.528 -0.1135 -0.0122 -0.5819
17246TIP3    H173229   5.268   6.495  14.607  1.0395 -0.2177 -1.3346
17246TIP3    H273230   5.241   6.567  14.476  0.0799 -0.6005 -1.3587
17247TIP3   OH273231   4.505   2.920   5.824 -0.0034 -0.0688  0.4905
17247TIP3    H173232   4.491   3.015   5.813  1.0152  0.1892  1.2835
17247TIP3    H273233   4.557   2.894   5.748 -0.2461  0.0069  0.2946
17248TIP3   OH273234   4.645   3.406   4.780 -0.6802 -0.2088  0.6674
17248TIP3    H173235   4.550   3.404   4.770 -0.7918  0.3525  1.5858
17248TIP3    H273236   4.663   3.345   4.851 -0.3535 -0.2462  0.5551
17249TIP3   OH273237   2.791   5.452   2.166  0.4149 -0.2687 -0.2359
17249TIP3    H173238   2.823   5.483   2.082  2.5795  1.5549  1.1763
17249TIP3    H273239   2.699   5.478   2.168  0.9301  1.7812 -1.1105
17250TIP3   OH273240   2.650   3.394   4.002 -0.5270  0.1215  0.0906
17250TIP3    H173241   2.557   3.417   4.009 -1.4386 -2.8067 -0.5900
17250TIP3    H273242   2.675   3.365   4.090 -1.8893 -3.8581 -0.5925
17251TIP3   OH273243   2.907   5.886  12.861 -0.3674  0.3501  0.2455
17251TIP3    H173244   2.835   5.869  12.923  1.7368 -0.6118  2.6150
17251TIP3    H273245   2.961   5.951  12.906  1.4601 -0.6898 -0.3826
17252TIP3   OH273246   2.107   6.114   0.315  0.3740  0.5822 -0.4958
17252TIP3    H173247   2.037   6.054   0.292  1.3846 -0.0346 -2.1546
17252TIP3    H273248   2.081   6.198   0.277  0.1853  0.5421 -0.4524
17253TIP3   OH273249   0.375   4.480  13.026 -0.4670  0.0759  0.4720
17253TIP3    H173250   0.411   4.404  13.073 -0.2354  0.0046  0.1810
17253TIP3    H273251   0.452   4.522  12.988 -0.4147  1.2810  1.8338
17254TIP3   OH273252   5.110   2.774   6.552 -0.3388 -0.6234 -0.1181
17254TIP3    H173253   5.147   2.713   6.617  0.4160  0.6391  0.6871
17254TIP3    H273254   5.169   2.766   6.477 -1.8507 -2.9182 -1.1626
17255TIP3   OH273255   6.542   0.760  13.862  0.3263 -0.2365  0.3106
17255TIP3    H173256   6.454   0.726  13.877  0.0634  0.4972  0.4809
17255TIP3    H273257   6.542   0.789  13.771 -0.1711  1.3157  0.7588
17256TIP3   OH273258   0.126   4.072   5.339  0.1057 -0.5444 -0.0743
17256TIP3    H173259   0.074   4.097   5.415 -0.9750  0.7069 -1.1735
17256TIP3    H273260   0.065   4.023   5.284  0.7211 -0.9679 -0.3886
17257TIP3   OH273261   1.194   5.293   4.178 -0.3135 -0.4894 -0.8219
17257TIP3    H173262   1.276   5.263   4.218 -0.6458  1.0442  1.1692
17257TIP3    H273263   1.157   5.214   4.138  2.0106 -1.2539 -1.6104
17258TIP3   OH273264   0.723   6.518  14.903 -0.2321  0.4243 -0.5349
17258TIP3    H173265   0.816   6.525  14.921 -0.1564  1.3983 -1.1698
17258TIP3    H273266   0.691   6.609  14.907 -1.4294 -0.0195  1.0162
17259TIP3   OH273267   4.444   4.029  10.194 -0.3410 -0.3419 -0.2760
17259TIP3    H173268   4.402   4.040  10.279  1.8535 -1.6270  1.0833
17259TIP3    H273269   4.416   3.942  10.165  0.5777 -0.8132  0.1992
17260TIP3   OH273270   4.398   2.354  13.847 -0.2238  0.2451  0.4299
17260TIP3    H173271   4.310   2.320  13.862  0.2062 -0.8160  0.7033
17260TIP3    H273272   4.411   2.349  13.753 -1.1145  2.1955  0.1459
17261TIP3   OH273273   6.692   6.084   4.890 -0.5549 -0.2541 -0.0153
17261TIP3    H173274   6.705   6.073   4.796 -1.2550  1.0107 -0.2803
17261TIP3    H273275   6.614   6.033   4.911 -0.7195 -0.0862 -0.2231
17262TIP3   OH273276   0.422   6.063  16.140  0.2350  0.4976 -0.6105
17262TIP3    H173277   0.415   5.989  16.080  1.2359  1.9260 -2.6155
17262TIP3    H273278   0.332   6.090  16.155 -0.1091 -0.7375 -0.3019
17263TIP3   OH273279   2.650   4.021  14.091 -0.2626 -0.4023  0.2918
17263TIP3    H173280   2.615   3.936  14.116 -1.8895  0.2892  0.4430
17263TIP3    H273281   2.684   4.057  14.173  0.6127 -0.9612  0.1922
17264TIP3   OH273282   2.036   2.922   4.340  0.0385  0.5795 -0.3315
17264TIP3    H173283   1.998   2.915   4.252  1.2538  0.9398 -0.9104
17264TIP3    H273284   1.977   2.872   4.396 -1.0299  0.7548 -1.2631
17265TIP3   OH273285   2.048   2.546   4.156  0.4016 -0.1195  0.5063
17265TIP3    H173286   2.111   2.475   4.171 -0.1987 -0.9494 -0.6549
17265TIP3    H273287   1.991   2.544   4.232  0.0659 -1.2709  0.2517
17266TIP3   OH273288   4.886   1.430  11.710 -0.3654  0.8184 -0.1350
17266TIP3    H173289   4.855   1.443  11.800  0.3859  0.6632  0.1553
17266TIP3    H273290   4.808   1.404  11.661 -0.8515  1.2549  0.3952
17267TIP3   OH273291   2.361   5.498   4.722  0.1575  0.2170 -0.4399
17267TIP3    H173292   2.368   5.450   4.640 -0.2498 -0.4655 -0.0797
17267TIP3    H273293   2.281   5.550   4.713 -0.2009 -0.2980 -0.2500
17268TIP3   OH273294   2.192   1.179  15.480 -0.1827  0.0047 -0.0404
17268TIP3    H173295   2.286   1.196  15.483  0.2206 -2.0017  0.3762
17268TIP3    H273296   2.184   1.097  15.431 -1.8879  1.0306 -1.5904
17269TIP3   OH273297   6.461   1.570  11.160  0.0451 -0.4872 -0.4805
17269TIP3    H173298   6.553   1.546  11.147 -0.2799 -1.7570 -0.5747
17269TIP3    H273299   6.458   1.604  11.249  0.5055 -1.0528 -0.2358
17270TIP3   OH273300   4.325   6.798   1.849  0.4184 -0.2360 -0.2713
17270TIP3    H173301   4.292   6.820   1.762 -1.3091 -2.1779 -0.1946
17270TIP3    H273302   4.378   6.719   1.836 -1.4139 -1.6998  0.5935
17271TIP3   OH273303   4.496   1.959  16.896 -0.0994 -0.6362  0.0553
17271TIP3    H173304   4.504   1.897  16.969 -1.2862 -0.4341  0.3778
17271TIP3    H273305   4.417   1.930  16.849 -0.7985  0.7334  0.3397
17272TIP3   OH273306   6.630   1.550   3.561  0.2594 -0.3089  0.2860
17272TIP3    H173307   6.651   1.469   3.514 -0.1424 -0.8772  1.0580
17272TIP3    H273308   6.592   1.521   3.644  0.9313  0.6782  0.9597
17273TIP3   OH273309   6.111   4.939  16.611  0.6317  0.3148  0.1584
17273TIP3    H173310   6.108   5.003  16.682  0.2463  1.5619 -0.9417
17273TIP3    H273311   6.020   4.911  16.601  0.6338  0.3787 -0.0437
17274TIP3   OH273312   2.407   3.634   3.750  0.4296 -0.1590  0.0792
17274TIP3    H173313   2.370   3.705   3.697 -0.4113  0.2238  1.1665
17274TIP3    H273314   2.376   3.554   3.708  0.2501  0.1256 -0.3390
17275TIP3   OH273315   5.909   1.570   2.518  0.3129 -0.0394 -0.1541
17275TIP3    H173316   5.917   1.646   2.576  1.3363 -0.5100  0.3604
17275TIP3    H273317   5.838   1.518   2.555 -0.5835  0.7994 -0.6768
17276TIP3   OH273318   5.723   6.484   1.455 -0.0239  0.3374  0.4902
17276TIP3    H173319   5.785   6.539   1.407  0.5968 -0.2808  0.5676
17276TIP3    H273320   5.639   6.500   1.413  0.5865 -0.5835 -1.1726
17277TIP3   OH273321   5.796   5.321   5.138  0.6735 -0.0666 -0.1953
17277TIP3    H173322   5.760   5.395   5.090  1.9027  0.6302 -0.0992
17277TIP3    H273323   5.846   5.272   5.073 -0.7794 -1.2861 -0.4340
17278TIP3   OH273324   6.031   1.066  14.580 -0.5501 -0.4645  0.1018
17278TIP3    H173325   6.097   1.010  14.619 -0.1875 -0.8940 -1.0796
17278TIP3    H273326   6.080   1.141  14.546 -0.9138  0.1193  0.8389
17279TIP3   OH273327   5.899   3.024   4.184  0.3046 -0.0215  0.4057
17279TIP3    H173328   5.872   3.098   4.238  0.8379  0.0857  0.5291
17279TIP3    H273329   5.905   2.951   4.245 -0.5221 -0.2497  0.2318
17280TIP3   OH273330   0.994   6.307  15.779 -0.2161  0.0041 -0.1836
17280TIP3    H173331   0.914   6.274  15.821  0.0675 -1.3525 -0.6467
17280TIP3    H273332   0.966   6.386  15.733 -1.2081 -0.2227  0.0082
17281TIP3   OH273333   5.213   2.805   4.478  0.2008 -0.0066 -0.0889
17281TIP3    H173334   5.298   2.799   4.436 -0.2004 -1.0054 -0.8047
17281TIP3    H273335   5.196   2.899   4.486  0.6446  0.2008 -1.4323
17282TIP3   OH273336   5.734   6.732   3.086 -0.1812  0.1069  0.1028
17282TIP3    H173337   5.817   6.718   3.039  0.0261  0.0440  0.4881
17282TIP3    H273338   5.668   6.692   3.029 -0.0504  0.8410 -0.5826
17283TIP3   OH273339   4.796   5.987  13.432  0.3056  0.1928  0.2995
17283TIP3    H173340   4.722   6.042  13.406 -0.7876 -1.8614 -1.2093
17283TIP3    H273341   4.757   5.919  13.488  1.3004 -0.1352  0.6133
17284TIP3   OH273342   3.929   3.185   2.855  0.6644  0.3758  0.5915
17284TIP3    H173343   3.957   3.137   2.777 -0.6331  0.8805 -0.2203
17284TIP3    H273344   4.008   3.230   2.886  1.4655 -0.7605  0.2769
17285TIP3   OH273345   1.811   2.978   1.478  0.8952  0.6297  0.0472
17285TIP3    H173346   1.857   2.954   1.397  2.2807  2.0572  0.3758
17285TIP3    H273347   1.756   3.052   1.453  2.3122  1.9429  0.6346
17286TIP3   OH273348   3.174   5.171  13.444 -0.8179  0.3180 -0.1833
17286TIP3    H173349   3.110   5.116  13.489 -0.6949  0.4272  0.1302
17286TIP3    H273350   3.196   5.123  13.365  0.4455 -0.8496  0.8217
17287TIP3   OH273351   5.161   0.236  12.260  0.1300 -0.0745  0.6235
17287TIP3    H173352   5.191   0.309  12.315  1.3521 -0.9721  1.1989
17287TIP3    H273353   5.242   0.196  12.228 -0.5357 -0.7897 -0.2186
17288TIP3   OH273354   5.080   3.680  13.448  0.4207  0.2576 -0.0280
17288TIP3    H173355   5.095   3.587  13.435 -0.0406  0.2768 -0.7178
17288TIP3    H273356   5.122   3.699  13.532  0.4114 -0.5905  0.1773
17289TIP3   OH273357   0.005   0.128   2.329  0.1450  0.2063  0.5631
17289TIP3    H173358   0.022   0.034   2.326  0.0503  0.2143 -0.5402
17289TIP3    H273359   0.090   0.168   2.309  0.0963  0.3429  0.6312
17290TIP3   OH273360   6.299   4.390   3.363 -0.6780 -0.3203  0.5324
17290TIP3    H173361   6.296   4.443   3.283  2.1053  0.4464  0.8582
17290TIP3    H273362   6.338   4.307   3.336  0.5018  0.0308  1.1028
17291TIP3   OH273363   1.841   2.044   2.087  0.1123 -0.0918 -0.1441
17291TIP3    H173364   1.934   2.031   2.066  0.4210  0.9911  0.5088
17291TIP3    H273365   1.824   2.136   2.067 -0.1553  0.4004  2.1611
17292TIP3   OH273366   4.174   0.594  14.453  0.1098 -0.3036  0.1483
17292TIP3    H173367   4.210   0.678  14.481 -0.2846 -0.0012 -0.2473
17292TIP3    H273368   4.111   0.571  14.521  0.3233 -0.3504  0.3303
17293TIP3   OH273369   0.344   2.784  11.551  0.0765 -0.1332  0.9379
17293TIP3    H173370   0.379   2.762  11.637 -0.7303 -3.2315  0.5921
17293TIP3    H273371   0.249   2.775  11.561 -0.2259  1.8368  0.2666
17294TIP3   OH273372   1.944   2.234   1.712 -0.2192  0.6776 -0.0139
17294TIP3    H173373   1.893   2.307   1.678 -0.1466  0.1250 -1.3453
17294TIP3    H273374   1.929   2.236   1.807  0.0945  2.6484  0.0329
17295TIP3   OH273375   5.095   3.834   3.777 -0.1792 -0.2564 -0.6101
17295TIP3    H173376   5.042   3.860   3.853 -0.3798 -1.2558 -0.3922
17295TIP3    H273377   5.142   3.756   3.807  1.5491  0.6934 -0.7620
17296TIP3   OH273378   2.421   4.662  11.234 -0.7495 -0.2007 -0.1325
17296TIP3    H173379   2.368   4.647  11.156 -1.1745  0.4303  0.0278
17296TIP3    H273380   2.478   4.735  11.210  0.9364 -1.6304 -0.7329
17297TIP3   OH273381   3.175   0.767   4.663  0.2595  0.1492  0.2584
17297TIP3    H173382   3.159   0.779   4.570 -0.8850 -3.8136 -0.2694
17297TIP3    H273383   3.267   0.740   4.668  1.4479  3.7472  0.8794
17298TIP3   OH273384   0.528   1.306   0.763  0.7937 -0.0316  0.2659
17298TIP3    H173385   0.623   1.293   0.761  0.5524 -1.8363 -1.0093
17298TIP3    H273386   0.515   1.374   0.830  3.0696  1.2517 -0.5027
17299TIP3   OH273387   4.175   4.256   5.408 -0.3672 -0.4650  0.0650
17299TIP3    H173388   4.094   4.240   5.456  0.5727  0.0584  1.9458
17299TIP3    H273389   4.171   4.197   5.333 -2.5257 -0.3596  0.0250
17300TIP3   OH273390   3.242   1.386   0.947 -0.2472 -0.2003  0.3556
17300TIP3    H173391   3.227   1.479   0.933  2.3008  0.2118 -0.0817
17300TIP3    H273392   3.326   1.382   0.993  0.4118 -2.3294 -0.9023
17301TIP3   OH273393   3.872   1.096  13.451  0.9561  0.3541  1.1120
17301TIP3    H173394   3.951   1.150  13.446  0.4339  1.1387  1.1449
17301TIP3    H273395   3.813   1.133  13.386  1.4884 -1.7442 -0.6725
17302TIP3   OH273396   2.391   6.503  13.968  0.8687 -0.3822  0.3630
17302TIP3    H173397   2.406   6.595  13.991 -0.4118 -0.4813  1.8215
17302TIP3    H273398   2.326   6.506  13.898  0.1847 -0.1589  0.9859
17303TIP3   OH273399   1.276   2.338   2.898 -0.3388  0.1505 -0.2473
17303TIP3    H173400   1.318   2.414   2.857  1.7651  0.6270  2.4815
17303TIP3    H273401   1.303   2.343   2.990 -1.8406 -2.7837  0.4625
17304TIP3   OH273402   3.827   1.293  15.364 -0.2391  0.2127  0.0385
17304TIP3    H173403   3.733   1.277  15.373 -0.2329 -0.1549 -0.5191
17304TIP3    H273404   3.869   1.221  15.412 -0.2368  0.0428 -0.2180
17305TIP3   OH273405   4.372   4.596  12.331 -0.3927  0.2647 -0.1175
17305TIP3    H173406   4.434   4.538  12.286 -0.8167 -0.9680  0.8242
17305TIP3    H273407   4.311   4.536  12.374 -0.2163  1.3819  1.7981
17306TIP3   OH273408   4.059   1.782  11.258  0.4809 -0.0759  0.2972
17306TIP3    H173409   4.036   1.855  11.315  2.9854 -0.2797  1.7021
17306TIP3    H273410   4.116   1.820  11.192  0.5454 -0.5106  0.0982
17307TIP3   OH273411   5.488   6.204   1.510 -0.0471 -0.9316  0.6143
17307TIP3    H173412   5.449   6.259   1.578 -1.4587 -0.6755 -0.3625
17307TIP3    H273413   5.430   6.214   1.434  1.7230 -0.8102 -0.8161
17308TIP3   OH273414   5.236   2.714   2.828  0.8348 -0.1387 -0.1828
17308TIP3    H173415   5.321   2.756   2.813  1.5904 -1.5617 -0.0757
17308TIP3    H273416   5.218   2.668   2.746 -1.1681  2.2667 -1.2231
17309TIP3   OH273417   0.500   6.480  16.415  0.1363 -0.5071 -0.3462
17309TIP3    H173418   0.578   6.473  16.360 -0.3738 -0.1615 -1.1345
17309TIP3    H273419   0.479   6.574  16.416  1.0946 -0.2596  1.8341
17310TIP3   OH273420   4.467   2.413   2.781 -0.3215  0.0500  0.8288
17310TIP3    H173421   4.445   2.330   2.738 -0.3999  0.7665 -0.5592
17310TIP3    H273422   4.543   2.446   2.733 -0.9507  1.2916  0.6423
17311TIP3   OH273423   2.559   0.065   4.999 -0.1757  0.0485  0.2169
17311TIP3    H173424   2.610  -0.014   4.982  1.2192  0.9954 -0.1905
17311TIP3    H273425   2.556   0.072   5.094  0.3157 -0.1018  0.2440
17312TIP3   OH273426   0.476   1.461  12.722 -0.6366 -0.6189 -0.1414
17312TIP3    H173427   0.535   1.514  12.668 -1.1648  0.9749  0.7589
17312TIP3    H273428   0.425   1.526  12.771 -2.6178 -1.9599 -0.3466
17313TIP3   OH273429   2.570   5.581   2.561 -0.0377  1.0131  0.0425
17313TIP3    H173430   2.648   5.539   2.595  0.9630  1.4384 -1.6150
17313TIP3    H273431   2.602   5.643   2.495 -1.6903  1.9676  0.0623
17314TIP3   OH273432   2.102   1.800   4.520  0.0844  0.6674  0.0778
17314TIP3    H173433   2.181   1.746   4.518 -0.6224 -0.6233  2.8885
17314TIP3    H273434   2.040   1.755   4.463  0.1196 -0.5224  0.9536
17315TIP3   OH273435   1.005   6.517   4.743  0.0649 -0.4779  0.0050
17315TIP3    H173436   0.974   6.605   4.723 -3.1795 -1.5099 -0.0497
17315TIP3    H273437   1.074   6.501   4.678 -0.8433  1.1990 -1.4527
17316TIP3   OH273438   6.054   5.376   4.534 -0.2770  1.1989 -0.0120
17316TIP3    H173439   6.059   5.426   4.453 -0.4325 -0.1281 -0.8782
17316TIP3    H273440   6.144   5.348   4.551 -0.7847 -2.8863 -2.6699
17317TIP3   OH273441   2.623   3.028  14.746  0.2557 -0.4278 -1.2306
17317TIP3    H173442   2.708   3.052  14.708 -0.1785  1.2825 -1.1952
17317TIP3    H273443   2.560   3.051  14.678 -0.2808 -0.3573 -0.7080
17318TIP3   OH273444   1.562   4.805   3.807  0.0534 -0.3325  0.4249
17318TIP3    H173445   1.526   4.793   3.895 -1.8765  0.7919 -0.1513
17318TIP3    H273446   1.516   4.882   3.772 -1.4015 -2.3955 -2.6194
17319TIP3   OH273447   2.101   4.307   5.193 -0.8110 -0.2231 -0.1167
17319TIP3    H173448   2.079   4.389   5.239  0.7877  1.2313 -1.7693
17319TIP3    H273449   2.174   4.271   5.243 -1.2738 -0.4541  0.4001
17320TIP3   OH273450   1.647   5.616   2.854 -0.2207 -0.4696  0.5136
17320TIP3    H173451   1.676   5.545   2.911  1.0835 -1.2025 -0.9812
17320TIP3    H273452   1.618   5.685   2.914  0.0219 -1.6254  2.0198
17321TIP3   OH273453   0.535   1.475   1.158  0.4823 -0.3472 -0.1350
17321TIP3    H173454   0.459   1.511   1.203  0.3728 -0.0694 -0.5355
17321TIP3    H273455   0.520   1.495   1.065  1.2145  0.0280 -0.1788
17322TIP3   OH273456   1.450   5.741  12.522  0.1447  0.0194 -0.3920
17322TIP3    H173457   1.490   5.736  12.609  2.1789  0.1895 -1.2723
17322TIP3    H273458   1.522   5.761  12.463 -0.8380 -1.8489 -2.3993
17323TIP3   OH273459   5.653   4.199   0.524  0.5609  0.7303  0.1201
17323TIP3    H173460   5.738   4.158   0.506 -1.0325 -3.1620  0.5436
17323TIP3    H273461   5.644   4.193   0.619 -1.4542 -2.0637 -0.1332
17324TIP3   OH273462   4.302   6.646   0.780  0.3345 -0.2907  0.0469
17324TIP3    H173463   4.268   6.668   0.867  0.1284  0.0641 -0.1237
17324TIP3    H273464   4.339   6.727   0.747  1.3259 -0.6635  0.2134
17325TIP3   OH273465   2.483   3.483  15.128 -0.0228  0.2328  0.2739
17325TIP3    H173466   2.435   3.545  15.184 -2.2336 -0.0393 -1.1684
17325TIP3    H273467   2.532   3.538  15.068  0.2880  0.5350  0.7899
17326TIP3   OH273468   3.038   5.539   3.382  0.2108  0.1747 -0.2334
17326TIP3    H173469   3.109   5.585   3.425  1.6230  0.0323 -2.2449
17326TIP3    H273470   3.054   5.446   3.401  0.7548  0.1217 -0.9111
17327TIP3   OH273471   4.103   4.186  12.830 -0.8349 -0.2433  0.0384
17327TIP3    H173472   4.070   4.263  12.783 -0.5719 -0.8141 -1.1148
17327TIP3    H273473   4.173   4.220  12.885 -0.4147  0.2828 -0.7974
17328TIP3   OH273474   3.021   0.800  15.338  1.0233  0.1153  0.0273
17328TIP3    H173475   2.982   0.713  15.335  0.5390  0.3510 -0.7310
17328TIP3    H273476   3.025   0.821  15.432  1.9874 -1.0806  0.2863
17329TIP3   OH273477   6.321   2.401   4.094 -0.4575 -0.1454  0.4150
17329TIP3    H173478   6.235   2.367   4.116 -0.2870 -0.8159  0.0830
17329TIP3    H273479   6.316   2.421   4.001  0.4878 -2.6591 -0.2734
17330TIP3   OH273480   5.490   3.214   1.006  0.0493 -0.2319  0.1435
17330TIP3    H173481   5.577   3.253   0.997  0.3940 -0.9155  0.4066
17330TIP3    H273482   5.437   3.258   0.940  1.0343 -1.0296 -1.2279
17331TIP3   OH273483   2.612   4.191  15.286 -0.3531  0.1231 -0.4448
17331TIP3    H173484   2.685   4.180  15.225  1.7738  1.6246  1.6324
17331TIP3    H273485   2.561   4.264  15.250 -0.5463 -0.5629 -1.6165
17332TIP3   OH273486   4.670   5.997  15.398 -0.1431 -0.5093  0.3531
17332TIP3    H173487   4.743   5.965  15.346 -0.3489  0.1670 -0.3672
17332TIP3    H273488   4.661   5.933  15.469  0.4077 -1.2159 -0.2022
17333TIP3   OH273489   2.467   5.439   3.200  0.0658  0.1219  0.0789
17333TIP3    H173490   2.373   5.418   3.194  0.1296 -0.4197  0.7905
17333TIP3    H273491   2.473   5.531   3.176 -0.5582 -0.0334 -0.6953
17334TIP3   OH273492   4.654   5.677   2.310  0.1252  0.5809 -0.1223
17334TIP3    H173493   4.609   5.754   2.273 -0.4546  0.1864 -0.2489
17334TIP3    H273494   4.747   5.697   2.300  0.0081  1.8617  1.0562
17335TIP3   OH273495   0.317   2.923   5.276  0.5387  0.1009  0.4297
17335TIP3    H173496   0.275   2.838   5.262 -0.6035  0.9178 -1.5824
17335TIP3    H273497   0.394   2.903   5.328 -0.0505 -2.0806  0.5744
17336TIP3   OH273498   2.674   5.900  12.656 -0.0116  0.1064 -0.4371
17336TIP3    H173499   2.762   5.871  12.633  0.7664  2.5209 -0.7717
17336TIP3    H273500   2.619   5.823  12.642  1.9861 -1.3727 -0.5003
17337TIP3   OH273501   4.966   1.574   0.459 -0.0384  0.3490 -0.4915
17337TIP3    H173502   5.045   1.548   0.412  0.0751 -0.9475  0.3453
17337TIP3    H273503   4.992   1.653   0.508  1.2985 -0.9899  1.0833
17338TIP3   OH273504   1.209   3.093  10.669 -0.0398 -0.3178 -0.3284
17338TIP3    H173505   1.121   3.129  10.678 -0.7790 -2.3344  1.2640
17338TIP3    H273506   1.260   3.137  10.738 -0.3629 -0.6909  0.1530
17339TIP3   OH273507   6.091   0.281  15.156 -0.0707 -0.6960  0.6835
17339TIP3    H173508   6.184   0.301  15.160 -0.2076  0.3808 -0.7901
17339TIP3    H273509   6.083   0.217  15.085 -0.5265 -0.2205  0.2967
17340TIP3   OH273510   0.937   6.681   3.457 -0.8060 -0.1512 -0.6255
17340TIP3    H173511   0.960   6.674   3.550 -0.4844 -1.5756 -0.7930
17340TIP3    H273512   0.986   6.757   3.426  2.0028 -1.7296 -0.4272
17341TIP3   OH273513   0.157   3.661  17.089 -0.1425 -0.3677 -0.3450
17341TIP3    H173514   0.096   3.615  17.032  0.3366 -0.0362 -1.1479
17341TIP3    H273515   0.114   3.744  17.109 -0.9837 -1.1063  1.0605
17342TIP3   OH273516   1.047   6.363  14.790 -0.4726  0.3395  0.0306
17342TIP3    H173517   1.033   6.295  14.856  0.3301 -1.4597 -1.5500
17342TIP3    H273518   1.127   6.408  14.818 -0.8525  0.4701  0.9411
17343TIP3   OH273519   1.787   5.148   4.424  0.3887  0.3447 -0.3161
17343TIP3    H173520   1.744   5.203   4.489 -0.7096 -0.0264 -0.7219
17343TIP3    H273521   1.810   5.068   4.471 -0.4785  0.0427 -0.4035
17344TIP3   OH273522   6.550   0.455   6.071 -0.3707  0.8685  0.1424
17344TIP3    H173523   6.601   0.388   6.117 -1.8749  0.8549  1.8915
17344TIP3    H273524   6.517   0.411   5.993  1.5499  0.6433 -0.6044
17345TIP3   OH273525   4.777   5.089   3.711  0.0788  0.2422  0.3489
17345TIP3    H173526   4.850   5.028   3.720  0.2368  0.6531  2.2910
17345TIP3    H273527   4.706   5.050   3.763 -0.7629  0.3710 -0.6585
17346TIP3   OH273528   1.541   5.799  12.791 -0.6385 -0.1520  0.6567
17346TIP3    H173529   1.486   5.759  12.858 -1.2847  1.1836  0.9525
17346TIP3    H273530   1.514   5.891  12.790  0.6850  0.2462 -0.1104
17347TIP3   OH273531   5.522   5.206  11.211  0.2563 -0.4320 -0.3036
17347TIP3    H173532   5.597   5.212  11.270  1.5188  2.2915 -1.9741
17347TIP3    H273533   5.559   5.170  11.130 -0.2546  0.7239 -1.0725
17348TIP3   OH273534   5.221   0.207  14.202 -0.4259 -0.4158  0.2515
17348TIP3    H173535   5.279   0.192  14.128 -1.9284  0.8285 -1.2698
17348TIP3    H273536   5.279   0.235  14.273  0.8627  0.6567 -1.1488
17349TIP3   OH273537   5.376   4.488   2.683  0.3122  0.1808  0.1690
17349TIP3    H173538   5.357   4.491   2.590  0.2461 -1.0621  0.1182
17349TIP3    H273539   5.310   4.544   2.723 -1.0392 -0.9468 -0.3592
17350TIP3   OH273540   1.910   2.694  13.774 -0.0544  0.3161 -0.3150
17350TIP3    H173541   1.819   2.672  13.792 -0.0756  0.8779  0.3301
17350TIP3    H273542   1.961   2.645  13.839  0.0803  0.2257 -0.4872
17351TIP3   OH273543   6.391   5.243   4.952 -0.1145  0.7318  0.6595
17351TIP3    H173544   6.485   5.255   4.942  0.0209  0.5090  1.5748
17351TIP3    H273545   6.367   5.180   4.884  0.5917 -0.0521  1.1158
17352TIP3   OH273546   6.153   5.619   5.174 -0.4552 -0.7233  0.6021
17352TIP3    H173547   6.060   5.639   5.188 -0.7596 -1.3105 -0.4786
17352TIP3    H273548   6.185   5.689   5.117 -0.6216 -1.3251 -0.2475
17353TIP3   OH273549   4.104   0.105   3.032  0.1704 -0.0181  0.4542
17353TIP3    H173550   4.046   0.036   2.997 -0.6871  1.8292 -2.0911
17353TIP3    H273551   4.139   0.068   3.113  0.3202 -3.7229 -1.0858
17354TIP3   OH273552   2.382   2.472   2.036 -0.5698 -0.2385  0.0678
17354TIP3    H173553   2.455   2.533   2.047 -0.6062 -0.2106  0.1624
17354TIP3    H273554   2.344   2.465   2.124 -0.9727  0.1170 -0.0728
17355TIP3   OH273555   6.786   2.486  12.220 -0.4594  0.0129 -0.5336
17355TIP3    H173556   6.755   2.540  12.148 -0.3934 -0.3108 -0.8079
17355TIP3    H273557   6.753   2.529  12.299  0.4364  1.0235 -0.6758
17356TIP3   OH273558   3.896   4.429  11.968  0.1066  0.0834  0.5314
17356TIP3    H173559   3.950   4.488  12.020  4.7475 -1.0748 -2.4136
17356TIP3    H273560   3.927   4.342  11.990  0.1461 -0.5918 -1.9296
17357TIP3   OH273561   4.182   3.489  13.634  0.0223  0.1445  0.4903
17357TIP3    H173562   4.118   3.429  13.597 -0.0862  0.1164  0.7264
17357TIP3    H273563   4.188   3.560  13.569 -0.8474  0.5567  0.8456
17358TIP3   OH273564   1.949   3.499   1.620 -0.1585  0.1212  0.1058
17358TIP3    H173565   1.919   3.409   1.633  2.4514 -0.9401 -0.5713
17358TIP3    H273566   1.935   3.541   1.705  1.5582 -1.9077  1.4928
17359TIP3   OH273567   0.152   4.275   4.113 -0.1277 -0.0795 -0.2527
17359TIP3    H173568   0.155   4.187   4.075 -0.5780 -0.3477  0.3117
17359TIP3    H273569   0.101   4.265   4.194  0.5581  0.5381  0.2693
17360TIP3   OH273570   6.260   3.511   0.957  0.6828  0.1317  0.1992
17360TIP3    H173571   6.268   3.450   0.884 -1.4943 -1.7372  1.4152
17360TIP3    H273572   6.179   3.558   0.941  1.2343  1.1924  0.4097
17361TIP3   OH273573   4.787   6.404  14.288 -0.1576  0.2493  0.6013
17361TIP3    H173574   4.825   6.329  14.334 -0.1259 -0.2497 -0.2264
17361TIP3    H273575   4.826   6.480  14.331  1.9316 -0.2437 -0.3011
17362TIP3   OH273576   3.431   5.395   3.588 -0.3058 -0.1996  0.2737
17362TIP3    H173577   3.478   5.337   3.649 -0.6440 -1.1538 -0.3575
17362TIP3    H273578   3.496   5.461   3.564 -0.1977  0.2671  1.7525
17363TIP3   OH273579   3.304   4.552  15.244  0.3427  0.8060  0.2537
17363TIP3    H173580   3.292   4.592  15.330  0.2888  0.2718  0.4969
17363TIP3    H273581   3.264   4.466  15.252  1.3006  0.3285  0.0355
17364TIP3   OH273582   0.296   1.857   3.779 -0.1995 -0.3377 -0.3078
17364TIP3    H173583   0.299   1.838   3.873  0.7647 -0.9828 -0.4488
17364TIP3    H273584   0.203   1.854   3.757 -0.3796 -1.0022  0.4731
17365TIP3   OH273585   6.011   0.487  11.919  0.0211  0.4735 -0.1051
17365TIP3    H173586   6.024   0.420  11.853 -0.4145  0.1088  0.1690
17365TIP3    H273587   6.097   0.500  11.959  0.1576  0.2575 -0.3315
17366TIP3   OH273588   2.168   5.340   1.018 -0.0888  0.0816  0.4125
17366TIP3    H173589   2.208   5.421   0.986  0.1299 -0.6465 -1.2498
17366TIP3    H273590   2.221   5.270   0.980 -0.9285 -0.8559  0.9190
17367TIP3   OH273591   0.725   3.372   2.309  0.0597  0.3751 -0.4074
17367TIP3    H173592   0.726   3.467   2.324 -0.2161  0.2635  0.3638
17367TIP3    H273593   0.786   3.337   2.373 -0.4821 -0.0449 -0.1133
17368TIP3   OH273594   1.647   2.215  14.491  0.7099 -0.2974  0.2992
17368TIP3    H173595   1.694   2.134  14.474 -0.3864 -0.9897  0.5040
17368TIP3    H273596   1.642   2.258  14.406  0.2219 -1.0285 -0.0487
17369TIP3   OH273597   2.625   5.924  16.730  0.6975  0.1622  0.2712
17369TIP3    H173598   2.662   5.991  16.672  0.6458 -1.3261 -1.5788
17369TIP3    H273599   2.550   5.890  16.682  0.1189 -0.5293  1.6312
17370TIP3   OH273600   5.573   2.282   5.725 -0.6881 -0.9443  1.1416
17370TIP3    H173601   5.658   2.291   5.683 -1.3030  1.2082  0.2527
17370TIP3    H273602   5.593   2.253   5.814  0.7278 -3.9913 -0.0197
17371TIP3   OH273603   1.202   4.666   2.248  0.1148  0.1719 -0.1005
17371TIP3    H173604   1.117   4.664   2.204  0.7132  0.8941 -1.3720
17371TIP3    H273605   1.217   4.575   2.275 -0.5598 -0.1894 -0.8837
17372TIP3   OH273606   1.720   3.868  13.633 -0.5486 -0.2623 -0.1499
17372TIP3    H173607   1.789   3.931  13.614 -0.9374 -0.0085 -0.7668
17372TIP3    H273608   1.766   3.787  13.657  0.0891 -1.1419 -3.7845
17373TIP3   OH273609   4.400   3.048   1.232 -0.5689 -0.3319  0.0318
17373TIP3    H173610   4.398   3.063   1.137  1.5559 -0.6853 -0.1293
17373TIP3    H273611   4.454   2.970   1.243  2.3251  1.6831  1.6367
17374TIP3   OH273612   4.642   1.529  11.579 -0.0067 -0.4361 -0.3789
17374TIP3    H173613   4.714   1.524  11.516 -2.4205 -0.1918 -3.3758
17374TIP3    H273614   4.634   1.622  11.599 -0.5979 -0.2129 -1.5349
17375TIP3   OH273615   6.610   2.891  12.037  0.7935  0.4711 -0.2192
17375TIP3    H173616   6.578   2.912  11.950  0.1043  0.4473  0.0218
17375TIP3    H273617   6.683   2.831  12.023 -1.3487 -2.1918 -0.6875
17376TIP3   OH273618   3.945   5.500   0.113 -0.6920  0.2941  0.5092
17376TIP3    H173619   3.965   5.412   0.082  0.3811  0.3095  1.1185
17376TIP3    H273620   3.849   5.501   0.120 -0.9363 -0.0304 -1.7713
17377TIP3   OH273621   2.023   4.553  11.585 -0.7969 -0.3715 -0.2552
17377TIP3    H173622   2.077   4.554  11.664  1.2032 -2.9373 -1.4302
17377TIP3    H273623   2.051   4.630  11.535 -0.3976 -0.0131  0.5125
17378TIP3   OH273624   6.199   4.068   6.409 -0.3851 -0.0410  0.2962
17378TIP3    H173625   6.175   4.136   6.472 -4.6138 -0.3673 -0.6086
17378TIP3    H273626   6.255   4.112   6.345 -0.8408  1.9010  1.1569
17379TIP3   OH273627   6.561   0.097  16.184  0.0461 -0.1141 -0.5310
17379TIP3    H173628   6.601   0.073  16.268  1.7071 -0.3597 -1.3510
17379TIP3    H273629   6.599   0.183  16.164 -2.0288  0.9827 -0.0210
17380TIP3   OH273630   1.396   0.991   2.889  0.2174  0.0580  0.0310
17380TIP3    H173631   1.353   1.076   2.886 -0.8361 -0.4898 -1.4502
17380TIP3    H273632   1.373   0.955   2.975 -1.9204 -0.0080 -0.5153
17381TIP3   OH273633   0.433   5.529   1.463  0.3354  0.5463  0.3094
17381TIP3    H173634   0.452   5.437   1.446  1.2482  0.7584  0.1659
17381TIP3    H273635   0.507   5.577   1.426  0.4247  1.2678  1.3683
17382TIP3   OH273636   1.127   4.904   5.898  0.3314  0.1781  0.2357
17382TIP3    H173637   1.184   4.840   5.855 -1.3816  0.1586 -2.2225
17382TIP3    H273638   1.064   4.851   5.946 -0.3720  0.0192 -0.8350
17383TIP3   OH273639   3.332   1.206   2.313 -0.1932 -0.1076 -0.4120
17383TIP3    H173640   3.253   1.236   2.358 -0.8177 -0.4898 -1.2207
17383TIP3    H273641   3.309   1.208   2.220 -0.3250 -3.1146 -0.5506
17384TIP3   OH273642   5.057   2.452  13.080 -0.1013  0.6249 -0.1816
17384TIP3    H173643   4.984   2.390  13.072  0.3438  0.1044 -0.3465
17384TIP3    H273644   5.129   2.409  13.033 -0.5142  2.4919 -2.7092
17385TIP3   OH273645   0.538   2.966  14.165  0.4105 -0.4862 -0.2200
17385TIP3    H173646   0.620   2.972  14.213 -0.3693  0.6491  1.0601
17385TIP3    H273647   0.562   2.932  14.079  2.0529 -1.2138  0.4877
17386TIP3   OH273648   1.076   5.967   1.550 -0.1126 -0.4905 -0.0815
17386TIP3    H173649   1.097   5.982   1.458  0.1787 -1.0804 -0.1178
17386TIP3    H273650   1.067   6.054   1.588  3.5553 -0.0897  0.2141
17387TIP3   OH273651   6.614   0.678  16.316  0.0380 -0.2341  0.3348
17387TIP3    H173652   6.705   0.654  16.301 -0.5291 -2.0595 -0.4176
17387TIP3    H273653   6.578   0.691  16.228 -0.3633  0.8522  0.6384
17388TIP3   OH273654   0.654   3.075   2.679  0.6055 -0.1628 -0.4494
17388TIP3    H173655   0.662   3.085   2.584  0.4569 -0.2802 -0.4748
17388TIP3    H273656   0.702   3.150   2.715  0.8617 -0.2485 -0.6106
17389TIP3   OH273657   0.421   4.192   0.400 -0.5364 -0.0178  0.1988
17389TIP3    H173658   0.358   4.237   0.344  0.9004  1.8405 -0.0130
17389TIP3    H273659   0.373   4.171   0.479 -1.8216 -0.0590 -0.5688
17390TIP3   OH273660   0.404   1.476  11.999 -0.0947  0.0006 -0.2294
17390TIP3    H173661   0.449   1.559  11.982  0.5348 -0.5107 -1.1720
17390TIP3    H273662   0.384   1.442  11.911  0.1874 -1.1224  0.1276
17391TIP3   OH273663   0.796   5.623  14.186  0.0634 -0.0575  0.1887
17391TIP3    H173664   0.753   5.672  14.115 -0.0620 -0.0143  0.2934
17391TIP3    H273665   0.878   5.593  14.147 -0.4311 -0.8491 -0.2751
17392TIP3   OH273666   0.140   0.342   2.899  0.6610 -0.7009 -0.1028
17392TIP3    H173667   0.080   0.279   2.939 -0.1616  0.9839  1.4587
17392TIP3    H273668   0.109   0.350   2.808 -1.4713  0.0075  0.6068
17393TIP3   OH273669   5.384   3.458  11.183  0.3878  0.4613  0.4245
17393TIP3    H173670   5.329   3.498  11.251 -0.5076 -0.3310  0.1996
17393TIP3    H273671   5.438   3.529  11.150 -0.5796  1.3004  0.6018
17394TIP3   OH273672   0.466   6.839   4.448 -0.7936 -0.0992 -0.2514
17394TIP3    H173673   0.518   6.870   4.373 -0.1285  0.2099  0.3227
17394TIP3    H273674   0.456   6.745   4.434  0.7098 -0.3413  0.0666
17395TIP3   OH273675   4.087   3.582  15.356  0.0174 -0.1799 -0.3385
17395TIP3    H173676   4.147   3.527  15.406  0.5422  0.6238 -0.0759
17395TIP3    H273677   4.052   3.643  15.420  1.0369  1.1621 -1.0183
17396TIP3   OH273678   6.743   0.236  15.399 -0.2810 -0.2288  0.0326
17396TIP3    H173679   6.789   0.166  15.353 -1.2109 -0.9993  0.2382
17396TIP3    H273680   6.748   0.311  15.340  3.7068  0.6484  1.2313
17397TIP3   OH273681   3.417   3.774  14.295 -0.3218 -0.0983 -0.0974
17397TIP3    H173682   3.371   3.700  14.255 -0.3828  0.3235 -0.8255
17397TIP3    H273683   3.468   3.735  14.366 -2.0661 -0.5442  0.9672
17398TIP3   OH273684   2.285   0.520  11.056  0.8922 -0.0096  0.6418
17398TIP3    H173685   2.306   0.563  10.973 -0.5635 -1.2545 -0.4490
17398TIP3    H273686   2.199   0.555  11.080  0.4517 -1.0255  0.6103
17399TIP3   OH273687   1.281   3.430   2.644  0.1648  0.0778 -0.0381
17399TIP3    H173688   1.276   3.523   2.666 -2.0418  0.0540 -0.2210
17399TIP3    H273689   1.297   3.428   2.550  0.7627  0.2410  0.0527
17400TIP3   OH273690   2.870   3.776   2.315  0.4722  0.4663 -0.1296
17400TIP3    H173691   2.901   3.790   2.405  1.2816  1.9526 -0.5875
17400TIP3    H273692   2.947   3.795   2.261  0.2973 -1.4769 -1.1129
17401TIP3   OH273693   1.184   5.118   2.748  0.4322 -0.0044  0.1159
17401TIP3    H173694   1.158   5.176   2.676 -0.5329 -0.3651  0.1683
17401TIP3    H273695   1.205   5.035   2.706 -0.1692 -0.2272  0.2486
17402TIP3   OH273696   1.671   4.538  16.151  0.2615 -0.7420 -0.7807
17402TIP3    H173697   1.762   4.566  16.140  0.0679 -0.2416 -1.0988
17402TIP3    H273698   1.642   4.582  16.231 -0.1473  0.2573 -1.4634
17403TIP3   OH273699   0.700   2.485  15.207 -0.4955  0.4127 -0.6661
17403TIP3    H173700   0.637   2.552  15.180 -0.1295  0.8532 -0.4299
17403TIP3    H273701   0.785   2.519  15.178 -0.1629  0.6354  0.5383
17404TIP3   OH273702   6.373   1.913   3.003  0.0476 -0.2579 -0.5572
17404TIP3    H173703   6.300   1.884   3.058  0.4547  2.2172  1.4989
17404TIP3    H273704   6.332   1.941   2.921 -1.4021  1.1031  0.5624
17405TIP3   OH273705   1.868   5.130  13.622 -0.2746  0.3031  0.3011
17405TIP3    H173706   1.839   5.039  13.628 -2.2374  0.9369  1.5129
17405TIP3    H273707   1.789   5.179  13.600 -0.0662  2.0847  3.0773
17406TIP3   OH273708   1.262   6.463   2.739  0.0280 -0.2012 -0.2970
17406TIP3    H173709   1.356   6.465   2.755  0.2627 -0.0148 -1.5768
17406TIP3    H273710   1.254   6.469   2.643 -1.3032  0.5069 -0.1656
17407TIP3   OH273711   6.143   1.076  16.151  0.4458 -0.2540  0.5672
17407TIP3    H173712   6.057   1.075  16.109  0.5076  1.1611  0.3471
17407TIP3    H273713   6.200   1.029  16.091 -0.0306 -0.5638  0.3583
17408TIP3   OH273714   4.567   6.291   1.893  0.4507  0.5313 -0.3451
17408TIP3    H173715   4.524   6.235   1.828 -0.5445  1.7682 -0.7804
17408TIP3    H273716   4.637   6.334   1.845  0.4021  0.6313 -0.3257
17409TIP3   OH273717   6.220   1.619   5.600  0.2219  0.4094 -0.3356
17409TIP3    H173718   6.149   1.594   5.659  0.3819 -0.9467 -0.6865
17409TIP3    H273719   6.205   1.567   5.521  0.2116  1.9398 -1.3831
17410TIP3   OH273720   2.757   5.652   5.732  0.0227 -0.2730  0.0947
17410TIP3    H173721   2.692   5.699   5.679  0.5882 -0.7953 -1.0963
17410TIP3    H273722   2.733   5.560   5.723 -0.1838 -0.3390  1.1978
17411TIP3   OH273723   6.821   5.455  14.483  0.1624  0.1124 -0.7999
17411TIP3    H173724   6.885   5.397  14.523 -0.2510 -1.2782 -2.0730
17411TIP3    H273725   6.771   5.490  14.557  1.0601 -0.3712  0.0578
17412TIP3   OH273726   3.728   0.392   2.544  0.0310  0.0260 -0.0792
17412TIP3    H173727   3.633   0.406   2.547  0.1715  0.8810  2.1555
17412TIP3    H273728   3.752   0.412   2.453 -1.7638  0.8779 -0.4148
17413TIP3   OH273729   4.950   1.537   3.218 -0.4624  0.0250  0.2851
17413TIP3    H173730   4.892   1.612   3.204 -0.0084  0.6398  1.5537
17413TIP3    H273731   4.920   1.497   3.299 -0.0251 -0.5312  0.1831
17414TIP3   OH273732   0.560   1.898   3.740 -0.1580  0.7081 -0.3927
17414TIP3    H173733   0.472   1.861   3.748  0.8853 -2.2747 -1.2799
17414TIP3    H273734   0.606   1.867   3.818  1.6396 -2.9032 -2.6501
17415TIP3   OH273735   1.061   1.389   0.407 -0.2668  0.4964  0.2656
17415TIP3    H173736   1.080   1.455   0.341  1.5874 -0.5634 -0.3134
17415TIP3    H273737   0.970   1.365   0.391 -0.2856  1.2927 -0.9691
17416TIP3   OH273738   4.654   4.719   3.161  0.4421 -0.0521 -0.3985
17416TIP3    H173739   4.644   4.733   3.255 -1.8563 -0.4937 -0.5253
17416TIP3    H273740   4.666   4.624   3.152  1.3784  0.0678 -0.5284
17417TIP3   OH273741   5.685   0.226  12.968 -0.0614 -0.1399  0.0066
17417TIP3    H173742   5.777   0.216  12.992 -0.0314 -1.3462 -0.5694
17417TIP3    H273743   5.681   0.196  12.878 -1.2577 -1.4015  0.4512
17418TIP3   OH273744   6.429   5.974  15.459  0.2096 -0.0092  0.0802
17418TIP3    H173745   6.503   5.914  15.472  0.7482  0.4033 -0.9330
17418TIP3    H273746   6.370   5.925  15.401  2.2347  1.5694 -3.6885
17419TIP3   OH273747   2.202   0.626   0.715 -0.6194  0.6069  0.4862
17419TIP3    H173748   2.146   0.583   0.651 -0.6597 -0.6177  1.3126
17419TIP3    H273749   2.150   0.701   0.745 -1.2758  0.2486  0.2730
17420TIP3   OH273750   3.924   2.711  15.317  0.0966 -0.3052  0.8222
17420TIP3    H173751   3.898   2.675  15.232  0.3008  2.1657 -0.3767
17420TIP3    H273752   4.014   2.680  15.329  0.1208 -0.5615  0.0759
17421TIP3   OH273753   3.456   2.491  14.315  0.8345  0.2305  0.1005
17421TIP3    H173754   3.398   2.415  14.316  0.4358  0.4639 -1.8737
17421TIP3    H273755   3.451   2.526  14.404 -1.0164 -0.5358  0.3410
17422TIP3   OH273756   4.664   3.570   5.585 -0.0311 -0.5845 -0.1467
17422TIP3    H173757   4.673   3.666   5.581  0.2122 -0.5830  0.2972
17422TIP3    H273758   4.699   3.547   5.672  0.4996 -1.1413 -0.5027
17423TIP3   OH273759   4.375   6.762   0.085 -0.3628 -0.0342  0.4899
17423TIP3    H173760   4.393   6.812   0.165  0.4648 -1.4791  1.2396
17423TIP3    H273761   4.404   6.820   0.014  0.0843  0.7660  1.3001
17424TIP3   OH273762   5.527   4.121  14.910 -0.0707 -0.5032 -0.1283
17424TIP3    H173763   5.563   4.048  14.859  0.7085  0.0466 -0.3879
17424TIP3    H273764   5.516   4.085  14.998 -0.4388 -1.1562 -0.4232
17425TIP3   OH273765   5.699   4.396   2.647  0.4309  0.2974 -0.4086
17425TIP3    H173766   5.781   4.356   2.674  0.9589  0.2097 -2.0399
17425TIP3    H273767   5.723   4.486   2.623 -0.4802  1.2079  1.7929
17426TIP3   OH273768   5.667   1.891  14.081  0.6077  0.0707 -0.1625
17426TIP3    H173769   5.623   1.896  14.166  2.0282  0.3364  0.5916
17426TIP3    H273770   5.614   1.830  14.030 -0.0439 -0.4144  1.0486
17427TIP3   OH273771   1.566   0.121   5.974 -0.0952  0.3820  0.0549
17427TIP3    H173772   1.525   0.059   5.913  2.9012 -0.0469 -1.7448
17427TIP3    H273773   1.628   0.068   6.024  0.7218  1.5052  0.2658
17428TIP3   OH273774   4.609   4.025  12.094 -0.0006 -0.5939 -0.6887
17428TIP3    H173775   4.623   4.108  12.139 -0.4153  0.3933 -2.3004
17428TIP3    H273776   4.627   3.958  12.160  0.3297  0.7699  0.6444
17429TIP3   OH273777   4.168   6.274   4.342 -0.1942 -0.3124  0.6942
17429TIP3    H173778   4.237   6.240   4.284 -0.6875 -0.9744  0.4762
17429TIP3    H273779   4.174   6.220   4.421  0.0989  0.2046  1.0292
17430TIP3   OH273780   0.598   2.384  16.665  0.6714 -0.0666 -0.1324
17430TIP3    H173781   0.529   2.363  16.602  1.8238 -2.1738 -0.7748
17430TIP3    H273782   0.584   2.323  16.737  1.8296 -0.5201 -0.2715
17431TIP3   OH273783   6.414   6.342  16.142 -0.4095  0.1408  0.5678
17431TIP3    H173784   6.413   6.433  16.173  1.6537  0.1487  0.7450
17431TIP3    H273785   6.329   6.330  16.101 -1.9731  1.2009  3.2144
17432TIP3   OH273786   3.036   1.142  16.041 -0.4237  0.5366  0.6556
17432TIP3    H173787   2.976   1.163  16.112 -0.8362  0.7819  0.2356
17432TIP3    H273788   3.003   1.059  16.006 -1.8150  1.6992 -0.9537
17433TIP3   OH273789   5.358   1.449  16.495  0.2800 -0.0534  0.1410
17433TIP3    H173790   5.318   1.533  16.519  1.0636 -0.0064  1.3478
17433TIP3    H273791   5.451   1.460  16.515  0.6208 -0.7621 -0.9577
17434TIP3   OH273792   3.621   6.550   0.711 -0.1235 -0.3687 -0.3382
17434TIP3    H173793   3.543   6.498   0.691  0.2109 -0.8337 -0.4412
17434TIP3    H273794   3.647   6.588   0.627  0.5365 -1.2906 -0.5531
17435TIP3   OH273795   3.408   1.867   4.672  0.1591  0.1084 -0.4117
17435TIP3    H173796   3.410   1.856   4.577  1.5646 -0.1922 -0.3684
17435TIP3    H273797   3.346   1.939   4.686  0.7819  0.9288 -1.6317
17436TIP3   OH273798   6.350   5.614  13.841  0.2221 -0.2348 -0.0113
17436TIP3    H173799   6.291   5.681  13.806 -0.4221 -0.9678 -0.3737
17436TIP3    H273800   6.421   5.663  13.881 -0.9880  0.6964  1.0682
17437TIP3   OH273801   5.544   0.699  12.758 -0.2366 -0.1556 -0.1056
17437TIP3    H173802   5.466   0.685  12.705  0.4850 -0.8135 -1.0313
17437TIP3    H273803   5.586   0.777  12.721  0.1390 -0.4738 -0.3670
17438TIP3   OH273804   6.382   0.847  16.150  1.0109 -0.5122 -0.3480
17438TIP3    H173805   6.417   0.918  16.204 -1.2551  1.7370 -1.5956
17438TIP3    H273806   6.330   0.794  16.211  2.3922 -0.9012  0.5260
17439TIP3   OH273807   0.262   5.484   3.043 -0.2126 -0.0587 -0.2488
17439TIP3    H173808   0.289   5.401   3.005  1.7078  0.0570  0.7216
17439TIP3    H273809   0.197   5.461   3.109  0.6402 -0.8544  0.3295
17440TIP3   OH273810   3.075   4.956  11.279 -0.0600  0.2594  0.0585
17440TIP3    H173811   3.127   4.889  11.323 -0.7729  0.8954  1.9874
17440TIP3    H273812   3.029   4.909  11.209  1.6300 -0.6586 -0.4820
17441TIP3   OH273813   0.321   5.942  13.439 -0.0743  0.0460  0.4788
17441TIP3    H173814   0.366   5.857  13.434 -0.8981 -0.3557 -0.5636
17441TIP3    H273815   0.336   5.983  13.354 -2.8002 -0.7418 -0.5139
17442TIP3   OH273816   5.529   4.983  16.191 -0.1837 -0.7960  0.4038
17442TIP3    H173817   5.552   5.029  16.111 -0.2515 -2.4624 -0.6095
17442TIP3    H273818   5.461   5.038  16.231  1.2495  1.0791  0.3788
17443TIP3   OH273819   2.669   1.123  12.667 -0.7669  0.4151 -0.1614
17443TIP3    H173820   2.706   1.108  12.580 -0.7095 -0.8064  0.0498
17443TIP3    H273821   2.644   1.036  12.697 -0.9601  0.8476  0.9720
17444TIP3   OH273822   2.776   2.011  11.581 -0.6057 -0.0815  0.0198
17444TIP3    H173823   2.704   2.017  11.644 -0.8599 -1.5414 -0.0959
17444TIP3    H273824   2.733   2.014  11.496 -0.3489  0.8863 -0.0870
17445TIP3   OH273825   5.050   5.965  14.991  0.5109 -0.6230 -0.5424
17445TIP3    H173826   5.004   5.932  14.914  0.6123 -0.3306 -0.7355
17445TIP3    H273827   5.091   6.047  14.960 -0.8107  0.3846  0.2620
17446TIP3   OH273828   0.277   5.516   2.760  0.2696  0.1714  0.3499
17446TIP3    H173829   0.355   5.563   2.727 -0.0541  0.8156  0.4848
17446TIP3    H273830   0.279   5.531   2.855 -1.0546  1.8507  0.1702
17447TIP3   OH273831   5.186   3.611  17.102  0.6176 -0.2452 -0.5952
17447TIP3    H173832   5.128   3.550  17.056  0.7980  0.0147 -1.1736
17447TIP3    H273833   5.238   3.555  17.160 -1.4989 -0.3156  1.3938
17448TIP3   OH273834   5.820   5.965   2.119 -0.1346 -0.2414  0.0976
17448TIP3    H173835   5.894   5.935   2.172  0.3769  1.4153  0.3869
17448TIP3    H273836   5.852   6.045   2.077 -1.3624 -0.1762 -0.7496
17449TIP3   OH273837   6.003   4.159  13.970  0.2717  0.0768  0.5084
17449TIP3    H173838   5.962   4.198  14.047  1.8480  2.1681  0.3678
17449TIP3    H273839   6.089   4.130  14.000  0.4033 -0.2632 -0.1773
17450TIP3   OH273840   2.555   3.004   2.874 -0.2223 -0.5582 -0.0476
17450TIP3    H173841   2.587   3.002   2.965  1.4780  1.2395 -0.5302
17450TIP3    H273842   2.591   2.924   2.835  1.2048 -0.1015  0.2468
17451TIP3   OH273843   6.722   1.108  11.692  0.7463 -0.1582 -0.1531
17451TIP3    H173844   6.720   1.021  11.652  2.9874 -1.0400  1.4228
17451TIP3    H273845   6.790   1.155  11.644 -0.0772  0.5904 -0.6350
17452TIP3   OH273846   3.428   5.010  15.296  0.4689 -0.0704 -0.1234
17452TIP3    H173847   3.355   4.960  15.260  0.5758  0.2725 -0.8235
17452TIP3    H273848   3.386   5.081  15.344  0.3197 -0.7154  0.7407
17453TIP3   OH273849   5.145   0.661   4.572 -0.2451 -0.4715  0.0528
17453TIP3    H173850   5.057   0.629   4.590 -1.1566  2.2653  0.8184
17453TIP3    H273851   5.197   0.635   4.648 -1.1636  0.5539  1.0503
17454TIP3   OH273852   2.985   4.770  16.836  0.7669 -0.2003 -0.6281
17454TIP3    H173853   3.015   4.856  16.865 -0.6129 -0.1305  0.7429
17454TIP3    H273854   2.904   4.788  16.788 -1.4844 -0.8466  2.5644
17455TIP3   OH273855   0.583   4.368   0.526 -0.4250  0.1000 -0.0120
17455TIP3    H173856   0.545   4.288   0.490 -0.5386  0.1781 -0.0672
17455TIP3    H273857   0.512   4.432   0.522 -0.4699  0.0818  0.4392
17456TIP3   OH273858   2.154   3.413  16.278  0.1124 -0.1335 -0.0521
17456TIP3    H173859   2.078   3.433  16.224  1.5234 -0.0037 -2.1088
17456TIP3    H273860   2.186   3.498  16.309 -0.8200 -0.2223  1.2523
17457TIP3   OH273861   2.663   5.537  10.302  0.9605  0.5712 -0.5847
17457TIP3    H173862   2.735   5.547  10.240  1.0881  0.0232 -0.5302
17457TIP3    H273863   2.700   5.561  10.387  1.7668 -1.9075 -0.1548
17458TIP3   OH273864   0.829   1.079  11.897 -0.2308 -0.0070 -0.1400
17458TIP3    H173865   0.774   1.069  11.820 -0.8178  0.4674  0.2074
17458TIP3    H273866   0.815   1.169  11.926 -0.0684 -0.1933  0.5564
17459TIP3   OH273867   0.238   1.682  16.581 -0.0451 -0.0905 -0.0543
17459TIP3    H173868   0.146   1.666  16.601 -0.0244  0.7564  0.7659
17459TIP3    H273869   0.250   1.644  16.493 -0.3222 -3.2298  1.1375
17460TIP3   OH273870   0.499   6.774  11.822  0.2372 -0.1917 -0.6119
17460TIP3    H173871   0.495   6.763  11.917 -1.0287 -0.8789 -0.7273
17460TIP3    H273872   0.407   6.776  11.794  0.5972 -0.4091 -1.8698
17461TIP3   OH273873   5.759   4.244  16.664 -0.1334 -0.5157  0.2430
17461TIP3    H173874   5.823   4.226  16.596 -0.0546 -0.1376  0.2118
17461TIP3    H273875   5.807   4.232  16.746 -0.5477 -2.1434  0.2695
17462TIP3   OH273876   6.194   2.303   0.588 -0.1939 -0.6090 -0.3947
17462TIP3    H173877   6.114   2.279   0.634 -0.2421  0.2505 -0.0086
17462TIP3    H273878   6.178   2.275   0.497 -0.7888 -0.7619 -0.2497
17463TIP3   OH273879   3.838   3.393  13.534 -0.1014 -0.9137  0.4946
17463TIP3    H173880   3.915   3.336  13.535  2.0546  1.8236  1.2683
17463TIP3    H273881   3.801   3.381  13.446  2.2265 -1.0820 -0.5436
17464TIP3   OH273882   3.319   5.523   4.804 -0.1261 -0.0914 -0.3168
17464TIP3    H173883   3.262   5.447   4.816  0.1352 -0.7065 -2.6586
17464TIP3    H273884   3.341   5.523   4.711 -0.1932  2.9040 -0.4378
17465TIP3   OH273885   0.849   5.136   0.759 -0.6369  0.0486  0.7079
17465TIP3    H173886   0.879   5.182   0.680 -0.7238  0.2912  0.8146
17465TIP3    H273887   0.925   5.139   0.818 -0.3022 -0.8248  0.3411
17466TIP3   OH273888   1.834   0.544  15.552 -0.1657 -0.1317  0.3521
17466TIP3    H173889   1.767   0.511  15.491 -0.5264  0.2993  0.5072
17466TIP3    H273890   1.789   0.612  15.603  0.6550  0.8470 -0.1946
17467TIP3   OH273891   2.112   1.973   1.366 -0.6538 -0.5481  0.0223
17467TIP3    H173892   2.093   1.902   1.305 -1.5061  0.7422 -1.2771
17467TIP3    H273893   2.027   2.017   1.378 -0.2283 -0.0014  1.1385
17468TIP3   OH273894   6.224   4.170   5.687 -0.6408 -0.1003 -0.9285
17468TIP3    H173895   6.163   4.165   5.613  1.0961  0.5022 -2.4866
17468TIP3    H273896   6.276   4.090   5.681  0.7832  0.8292 -1.6012
17469TIP3   OH273897   3.228   2.992   3.216  0.2978 -0.6223  0.2251
17469TIP3    H173898   3.316   2.974   3.182  0.2331  0.4660 -0.5873
17469TIP3    H273899   3.169   2.969   3.145  0.0504  0.1620  0.1600
17470TIP3   OH273900   0.188   3.401  13.558 -0.3232  0.2101 -0.0086
17470TIP3    H173901   0.145   3.364  13.481  0.5525 -0.2840 -0.2788
17470TIP3    H273902   0.230   3.480  13.525  1.2960 -0.7696 -0.4187
17471TIP3   OH273903   3.188   6.148   0.256 -0.4471  0.1122 -0.0370
17471TIP3    H173904   3.150   6.218   0.310 -0.3683 -0.4609  0.7795
17471TIP3    H273905   3.235   6.194   0.186 -2.6082  0.8679 -1.0914
17472TIP3   OH273906   0.967   3.290   5.019  0.2700  0.2334  0.3239
17472TIP3    H173907   0.901   3.303   5.087  1.3789 -0.8347  1.6757
17472TIP3    H273908   1.034   3.357   5.037  0.4291  0.1410  0.0871
17473TIP3   OH273909   2.470   1.331   1.127  0.2821  0.1188  0.8513
17473TIP3    H173910   2.409   1.404   1.121 -0.2289 -0.3213  0.6332
17473TIP3    H273911   2.424   1.257   1.087  1.0693 -0.1524  0.4241
17474TIP3   OH273912   6.673   3.780   1.768  0.6247 -0.3350  0.3686
17474TIP3    H173913   6.627   3.700   1.743  1.6941 -0.9002  0.1695
17474TIP3    H273914   6.678   3.774   1.864 -0.1076 -0.0389  0.4350
17475TIP3   OH273915   3.153   4.356  16.246 -0.1219 -0.0136  0.3307
17475TIP3    H173916   3.096   4.433  16.252 -1.5001 -0.8880 -0.7926
17475TIP3    H273917   3.233   4.381  16.292 -0.7749  1.8631  0.5185
17476TIP3   OH273918   4.890   4.680   3.598 -0.0553  0.2307  0.8043
17476TIP3    H173919   4.932   4.705   3.680  0.6626 -1.1860  0.8847
17476TIP3    H273920   4.814   4.629   3.624  0.6203 -0.9137  0.6048
17477TIP3   OH273921   3.998   2.018  15.204 -0.1334 -0.3264 -0.3248
17477TIP3    H173922   3.954   2.035  15.121 -1.7578  1.0385  0.7425
17477TIP3    H273923   4.046   1.936  15.189  1.3894  0.9442 -3.2238
17478TIP3   OH273924   0.629   3.623   2.352 -0.2357 -1.0960  1.0580
17478TIP3    H173925   0.596   3.712   2.362 -1.5555 -1.2060 -1.5348
17478TIP3    H273926   0.566   3.569   2.399  1.0978 -0.6781  3.4903
17479TIP3   OH273927   5.290   0.237   5.510 -0.0287  0.0638 -0.0472
17479TIP3    H173928   5.262   0.274   5.427 -1.4816 -0.7427  0.0406
17479TIP3    H273929   5.375   0.199   5.493 -0.2498  0.0439 -1.1293
17480TIP3   OH273930   0.244   1.020   5.404 -0.8249  0.3630  0.8803
17480TIP3    H173931   0.196   1.103   5.408 -0.4936  0.5520  0.9705
17480TIP3    H273932   0.279   1.009   5.492  1.7039  1.6707  0.1209
17481TIP3   OH273933   3.373   6.526   2.959 -0.3665 -0.1843 -0.0478
17481TIP3    H173934   3.415   6.574   2.887  0.7570 -0.0629  0.6640
17481TIP3    H273935   3.443   6.470   2.993 -1.4057 -1.7037 -0.2950
17482TIP3   OH273936   3.682   0.226   1.750 -0.5197 -0.1498  0.0958
17482TIP3    H173937   3.641   0.202   1.834 -0.2680  0.7310  0.4928
17482TIP3    H273938   3.639   0.171   1.685 -0.4646 -1.1064  0.8528
17483TIP3   OH273939   3.414   2.627  13.572  0.1196 -0.5295  0.2385
17483TIP3    H173940   3.423   2.624  13.668 -1.6923 -0.0158  0.4570
17483TIP3    H273941   3.337   2.682  13.557  0.9143  0.1560 -1.5674
17484TIP3   OH273942   2.901   2.988   3.207 -0.4055  0.3626 -0.0868
17484TIP3    H173943   2.913   2.918   3.142 -0.1331 -2.6833  2.9633
17484TIP3    H273944   2.807   3.008   3.204 -0.5561 -0.3860 -0.7436
17485TIP3   OH273945   0.396   4.860  14.469 -0.8815  0.3303 -0.5898
17485TIP3    H173946   0.346   4.778  14.468  1.6674 -1.4547 -3.6473
17485TIP3    H273947   0.360   4.910  14.395 -1.7351  1.6139  0.6358
17486TIP3   OH273948   5.352   1.829   5.804 -0.0893  0.4986 -0.0796
17486TIP3    H173949   5.445   1.811   5.788  0.0505 -0.8550  1.9216
17486TIP3    H273950   5.342   1.922   5.781  1.6819  0.6090 -0.5850
17487TIP3   OH273951   3.415   0.096  13.221 -0.1163  0.5352  0.3610
17487TIP3    H173952   3.353   0.166  13.200 -0.1359  0.4702  0.2000
17487TIP3    H273953   3.364   0.015  13.215  0.1713  0.4157 -0.5608
17488TIP3   OH273954   5.944   1.991  15.333  0.2925 -0.3381  0.0922
17488TIP3    H173955   6.010   1.942  15.283  0.0630 -0.4510 -0.1012
17488TIP3    H273956   5.990   2.019  15.413  0.4226 -0.8745  0.2076
17489TIP3   OH273957   5.187   2.597  17.030  0.1629  0.3252  0.2272
17489TIP3    H173958   5.239   2.612  17.109  1.0709 -0.8803 -0.1016
17489TIP3    H273959   5.181   2.683  16.988  1.2382  0.6435  0.6839
17490TIP3   OH273960   3.040   2.447  14.943  0.5130 -0.0495 -0.5005
17490TIP3    H173961   2.958   2.419  14.901  0.1370 -0.5678  0.5380
17490TIP3    H273962   3.062   2.529  14.900 -1.4956  1.0142  0.3373
17491TIP3   OH273963   4.797   5.790  12.513  0.2331  0.5936  0.5760
17491TIP3    H173964   4.856   5.840  12.455  0.7934 -1.8358 -1.0902
17491TIP3    H273965   4.850   5.772  12.591  1.6941 -1.2135 -0.7302
17492TIP3   OH273966   2.309   1.522  15.344 -0.1099 -0.3885  0.3458
17492TIP3    H173967   2.301   1.568  15.260 -2.1647  3.1281  2.2325
17492TIP3    H273968   2.249   1.448  15.336 -2.5388  1.5271 -0.4467
17493TIP3   OH273969   5.479   1.710   4.227  0.5293  0.5574  0.1038
17493TIP3    H173970   5.545   1.743   4.287  0.1505 -1.1123  1.5254
17493TIP3    H273971   5.409   1.775   4.230  0.0515  0.0257  2.3563
17494TIP3   OH273972   3.393   0.488  11.929 -0.2573 -0.0973 -0.0499
17494TIP3    H173973   3.465   0.551  11.934  0.2572 -0.6738 -0.0099
17494TIP3    H273974   3.328   0.530  11.873  0.8479 -0.2781 -1.5428
17495TIP3   OH273975   6.627   0.547  15.982  0.2608  0.4429 -0.2344
17495TIP3    H173976   6.640   0.642  15.986 -2.0730  0.8046  0.2479
17495TIP3    H273977   6.636   0.525  15.889 -1.0690  1.4985 -0.6482
17496TIP3   OH273978   6.754   3.305   5.738 -0.1429  0.0993  0.5390
17496TIP3    H173979   6.801   3.274   5.660 -0.1649  1.2759  0.0401
17496TIP3    H273980   6.688   3.238   5.755 -1.2926  0.6303 -1.5121
17497TIP3   OH273981   3.639   6.067   5.400 -0.2114  0.5024  0.2836
17497TIP3    H173982   3.630   6.155   5.364 -2.6279  0.5607  0.8642
17497TIP3    H273983   3.691   6.020   5.335 -1.3902  1.5637 -1.5170
17498TIP3   OH273984   0.365   3.904  11.871 -0.3102  0.4284 -0.0044
17498TIP3    H173985   0.300   3.972  11.888  2.2311  2.4261  2.7907
17498TIP3    H273986   0.425   3.943  11.807  0.2966  0.2356  0.4298
17499TIP3   OH273987   5.762   6.672   1.727  1.0825  0.0480 -0.4482
17499TIP3    H173988   5.720   6.587   1.742 -1.0126  1.3295  1.8679
17499TIP3    H273989   5.845   6.651   1.685 -0.1508 -2.9810 -1.6894
17500TIP3   OH273990   5.450   2.435   3.454  0.3294 -0.6554  0.0795
17500TIP3    H173991   5.524   2.480   3.495 -0.8541  0.7236  0.7920
17500TIP3    H273992   5.465   2.447   3.360  0.3481  0.7839  0.2412
17501TIP3   OH273993   3.359   6.202  14.703 -0.0160 -0.1920 -0.3140
17501TIP3    H173994   3.322   6.128  14.654 -1.0192 -1.3030  1.9664
17501TIP3    H273995   3.453   6.187  14.702 -0.1795 -1.2942 -0.2302
17502TIP3   OH273996   2.210   2.755  11.862  0.4697  0.2731 -0.2044
17502TIP3    H173997   2.192   2.844  11.831  0.1359  1.6202  3.3858
17502TIP3    H273998   2.289   2.729  11.814  1.6700  3.2903 -0.1000
17503TIP3   OH273999   5.967   2.413  11.944  0.1027  0.2366  0.0493
17503TIP3    H174000   5.972   2.339  12.004  1.2685 -0.1507 -0.4831
17503TIP3    H274001   5.924   2.482  11.993  0.7045 -0.1889  1.2031
17504TIP3   OH274002   3.779   3.160  12.059 -0.2861 -0.2666  0.1745
17504TIP3    H174003   3.748   3.194  12.143  0.2781 -0.4043  0.4465
17504TIP3    H274004   3.853   3.104  12.083 -1.6782 -2.3619 -0.1683
17505TIP3   OH274005   1.461   3.811   5.519  0.6387 -0.1302 -0.2060
17505TIP3    H174006   1.381   3.856   5.493  0.0680 -0.0518  1.5339
17505TIP3    H274007   1.465   3.734   5.463 -2.1139 -1.5777  1.3646
17506TIP3   OH274008   0.593   4.910  13.467 -0.2304  0.1835 -0.3724
17506TIP3    H174009   0.524   4.857  13.427  0.1295 -0.1685 -0.5433
17506TIP3    H274010   0.552   4.951  13.543 -0.7752  0.4174 -0.7910
17507TIP3   OH274011   3.840   2.303   4.691 -0.1115 -0.0567 -0.0598
17507TIP3    H174012   3.819   2.327   4.601 -0.1937 -1.2021 -0.3599
17507TIP3    H274013   3.811   2.378   4.743  2.0606  1.6833 -1.1679
17508TIP3   OH274014   6.717   5.392   4.101 -0.1689  0.2989 -0.1642
17508TIP3    H174015   6.710   5.394   4.005  1.1764  1.3230 -0.2654
17508TIP3    H274016   6.797   5.441   4.120 -1.9214  2.6860  1.6614
17509TIP3   OH274017   3.680   5.509   2.543 -0.0450 -0.2180 -0.1702
17509TIP3    H174018   3.717   5.452   2.475 -0.4862 -0.1717 -0.4511
17509TIP3    H274019   3.701   5.465   2.625  0.2612 -0.4108 -0.3509
17510TIP3   OH274020   1.890   4.791  16.020 -0.0005 -0.0951 -0.2159
17510TIP3    H174021   1.969   4.791  16.073  0.4134  0.3777 -0.8222
17510TIP3    H274022   1.892   4.875  15.973 -1.6501  0.6421  0.9297
17511TIP3   OH274023   5.398   5.124   3.877  0.0609 -0.6191 -0.1095
17511TIP3    H174024   5.467   5.058   3.871 -1.9328 -2.8626  0.0675
17511TIP3    H274025   5.408   5.176   3.797  1.3074 -1.5173 -0.5726
17512TIP3   OH274026   6.693   2.322   5.201 -0.4786  0.3594  0.5501
17512TIP3    H174027   6.760   2.265   5.163  1.3512  1.2919  2.1695
17512TIP3    H274028   6.705   2.406   5.156  1.1109  1.2103  2.4082
17513TIP3   OH274029   2.047   4.979  12.555  0.3443 -0.2228 -0.4713
17513TIP3    H174030   2.001   5.025  12.484 -0.4841 -0.4478 -0.0892
17513TIP3    H274031   2.135   5.016  12.553 -0.4393  1.8653  0.2156
17514TIP3   OH274032   1.375   3.588  12.697  0.5553  0.7536  0.3541
17514TIP3    H174033   1.421   3.596  12.781 -0.5739  0.2796  1.0419
17514TIP3    H274034   1.416   3.513  12.654  2.2973  2.0275 -0.3140
17515TIP3   OH274035   5.651   3.698  16.572  0.2143  0.5419  0.0845
17515TIP3    H174036   5.730   3.693  16.520 -0.3140 -0.7272 -0.6446
17515TIP3    H274037   5.581   3.719  16.510 -0.2876 -0.0976  0.4136
17516TIP3   OH274038   4.894   5.306  11.437 -0.0745 -1.0890 -0.1604
17516TIP3    H174039   4.942   5.325  11.356  0.2293 -0.2761  0.1992
17516TIP3    H274040   4.937   5.359  11.504  1.0190 -3.3135  0.9950
17517TIP3   OH274041   0.743   4.102  16.491  0.1358  0.5071 -0.2491
17517TIP3    H174042   0.679   4.031  16.483  1.4230 -0.7461  0.2041
17517TIP3    H274043   0.725   4.158  16.415  0.7222 -1.6693 -2.1115
17518TIP3   OH274044   0.718   3.880   3.375 -0.4365  0.6494  0.3425
17518TIP3    H174045   0.702   3.863   3.282  0.2160 -0.5095  0.4259
17518TIP3    H274046   0.778   3.955   3.375  0.2231  0.1443 -0.2142
17519TIP3   OH274047   6.159   1.547   4.042 -0.2487  0.8619 -0.1543
17519TIP3    H174048   6.220   1.620   4.040  0.4576  0.2721 -0.3878
17519TIP3    H274049   6.195   1.487   4.108  1.4874 -1.2210 -2.7772
17520TIP3   OH274050   6.129   2.679   4.931 -0.2876 -0.3077 -0.3620
17520TIP3    H174051   6.061   2.647   4.991  0.2838  1.1445  1.1680
17520TIP3    H274052   6.087   2.679   4.845 -1.3486 -1.9003  0.1025
17521TIP3   OH274053   0.861   5.441   5.435 -0.0322  0.2020 -0.1322
17521TIP3    H174054   0.777   5.454   5.389  0.3982  1.9286 -0.4933
17521TIP3    H274055   0.836   5.412   5.522 -1.0444  0.9471 -0.1497
17522TIP3   OH274056   0.047   1.507   2.720  0.1310  0.1723  0.1241
17522TIP3    H174057  -0.022   1.550   2.669 -0.7920 -2.0177 -0.5559
17522TIP3    H274058   0.100   1.462   2.654  0.3038 -0.7722  0.8965
17523TIP3   OH274059   0.093   1.928   6.306  0.2911  0.1322 -0.3864
17523TIP3    H174060   0.157   1.859   6.323 -0.2725 -0.2996  0.0185
17523TIP3    H274061   0.024   1.914   6.372  0.7007  1.7621  0.4597
17524TIP3   OH274062   2.710   2.398  14.518  0.0427 -0.0266  0.2851
17524TIP3    H174063   2.691   2.313  14.478 -1.7487  0.9850 -1.1792
17524TIP3    H274064   2.780   2.435  14.464 -1.1773  0.6006 -0.9382
17525TIP3   OH274065   6.252   0.839   2.453  0.0919  0.0042  0.3515
17525TIP3    H174066   6.272   0.759   2.502  0.4378 -1.3476 -1.8265
17525TIP3    H274067   6.318   0.902   2.482 -0.2131 -0.4605  2.1620
17526TIP3   OH274068   3.851   2.457  16.228 -0.1999  0.5420  0.4818
17526TIP3    H174069   3.821   2.383  16.177  0.9450 -0.2349  0.9009
17526TIP3    H274070   3.947   2.452  16.225  0.0075  3.3224 -1.3983
17527TIP3   OH274071   0.182   6.299   1.285  0.3226 -0.3097  0.5517
17527TIP3    H174072   0.225   6.317   1.201 -1.4983  1.8716 -0.0231
17527TIP3    H274073   0.249   6.319   1.350  0.7262  1.4982 -0.3340
17528TIP3   OH274074   3.323   5.567   2.930  0.0666 -0.1749 -0.3015
17528TIP3    H174075   3.385   5.564   2.857 -0.2992 -2.3381 -0.5928
17528TIP3    H274076   3.243   5.605   2.892  0.0746 -0.7226 -0.8937
17529TIP3   OH274077   5.771   5.668   3.514 -0.6902  0.4654  0.1049
17529TIP3    H174078   5.759   5.708   3.427 -1.3554 -1.0805 -0.5620
17529TIP3    H274079   5.788   5.576   3.495  1.7505  0.5414  1.5341
17530TIP3   OH274080   6.150   2.738   0.820 -0.1739  0.6008  0.3415
17530TIP3    H174081   6.216   2.723   0.888 -0.6071 -0.8958  0.4696
17530TIP3    H274082   6.109   2.652   0.806  0.6239  0.5685 -2.5682
17531TIP3   OH274083   1.914   2.563   1.933  0.1573 -0.1221  0.2257
17531TIP3    H174084   1.982   2.600   1.877  0.5244 -1.6875 -0.4015
17531TIP3    H274085   1.840   2.623   1.924  0.7024  0.4128 -0.8013
17532TIP3   OH274086   3.975   0.401   3.916  0.7763  0.3160  0.1063
17532TIP3    H174087   3.951   0.451   3.994  1.1305  0.7151 -0.0398
17532TIP3    H274088   3.892   0.363   3.885  0.2964  1.7795 -0.4651
17533TIP3   OH274089   4.294   2.882   4.912  0.0763  0.2441 -0.7244
17533TIP3    H174090   4.221   2.896   4.973 -1.0526 -0.4812 -1.8632
17533TIP3    H274091   4.368   2.859   4.969 -1.1066 -1.0566  0.3795
17534TIP3   OH274092   4.964   2.533  15.368  0.0069 -0.2122 -0.3703
17534TIP3    H174093   4.890   2.525  15.307  0.0713 -2.6370 -0.2511
17534TIP3    H274094   5.034   2.571  15.316 -1.1300  1.6471 -0.6317
17535TIP3   OH274095   5.678   4.354  12.399  0.0930 -0.2530 -0.2291
17535TIP3    H174096   5.592   4.388  12.374 -0.5216 -2.1131 -0.8479
17535TIP3    H274097   5.741   4.419  12.365 -1.0482  1.7086  1.2123
17536TIP3   OH274098   0.192   0.970   4.024  0.1338  0.5834  0.4851
17536TIP3    H174099   0.245   0.897   3.994  1.5420  1.2788  1.2100
17536TIP3    H274100   0.150   1.003   3.944  0.0015 -0.5862  0.0555
17537TIP3   OH274101   3.331   5.608   5.086 -0.3180 -0.1122  0.1248
17537TIP3    H174102   3.353   5.583   4.996 -0.3583  0.0661  0.0647
17537TIP3    H274103   3.279   5.689   5.077 -1.8787 -1.0570  0.1965
17538TIP3   OH274104   6.420   2.041  14.979 -0.0232  0.1339  0.2487
17538TIP3    H174105   6.367   1.974  15.022 -1.1473  0.8638  0.0467
17538TIP3    H274106   6.490   1.992  14.935 -1.9716 -1.1773 -1.6348
17539TIP3   OH274107   4.588   2.850   1.331 -0.0912 -0.0365 -0.0995
17539TIP3    H174108   4.579   2.805   1.415 -1.4827  3.2939  1.7136
17539TIP3    H274109   4.645   2.925   1.350 -2.2191  2.0739 -1.4867
17540TIP3   OH274110   3.142   0.679  11.127  0.4346  0.2835  0.1614
17540TIP3    H174111   3.119   0.766  11.158  0.2338  0.9188 -1.6531
17540TIP3    H274112   3.070   0.623  11.156  1.7811  0.0751  3.6533
17541TIP3   OH274113   2.578   4.863  11.858  0.0376  0.0044  0.0290
17541TIP3    H174114   2.498   4.902  11.824 -0.6715 -1.5466 -0.1715
17541TIP3    H274115   2.574   4.772  11.829  1.3344 -0.3728  0.9594
17542TIP3   OH274116   2.253   6.168  10.879 -0.4935 -0.2941 -0.0587
17542TIP3    H174117   2.318   6.098  10.873 -0.5495 -0.2088 -3.2789
17542TIP3    H274118   2.176   6.132  10.836 -1.1595  1.1047 -0.0696
17543TIP3   OH274119   4.157   2.121  10.704  0.5664  0.0698  0.9584
17543TIP3    H174120   4.246   2.088  10.691  1.0607  1.4076  0.7571
17543TIP3    H274121   4.168   2.215  10.722 -0.9591  1.0286 -2.3193
17544TIP3   OH274122   2.100   0.695  15.474  0.0882 -0.7938 -0.2051
17544TIP3    H174123   2.115   0.746  15.554 -1.2861 -1.5877  0.6083
17544TIP3    H274124   2.008   0.671  15.478  0.5957 -3.0808 -0.6941
17545TIP3   OH274125   4.509   5.273   4.728 -0.2231  0.0422 -0.8254
17545TIP3    H174126   4.527   5.272   4.634 -0.6960  1.3695 -0.9520
17545TIP3    H274127   4.429   5.222   4.738 -0.1671 -0.1085 -1.1350
17546TIP3   OH274128   3.824   0.476   3.495 -0.0727 -0.0141  0.0085
17546TIP3    H174129   3.733   0.447   3.507  0.1960 -0.7475  0.3230
17546TIP3    H274130   3.817   0.556   3.442 -0.8612 -0.4033 -0.4892
17547TIP3   OH274131   1.409   3.140   0.503 -0.4508 -0.1807 -0.0253
17547TIP3    H174132   1.500   3.143   0.533 -0.1005  0.2551 -1.0848
17547TIP3    H274133   1.392   3.228   0.470 -1.7065  0.1432  1.3592
17548TIP3   OH274134   3.956   3.353   3.852 -0.7517 -0.4928  0.9073
17548TIP3    H174135   3.870   3.336   3.813 -0.4681 -0.9192  0.4672
17548TIP3    H274136   4.018   3.314   3.792 -0.2491 -0.2884  1.2886
17549TIP3   OH274137   6.265   5.247   3.130 -0.1859 -0.2175  0.7233
17549TIP3    H174138   6.319   5.239   3.208  2.0632 -0.3577 -0.7305
17549TIP3    H274139   6.195   5.183   3.140 -1.2530  1.2234  3.5120
17550TIP3   OH274140   3.743   5.072  15.316  0.3952  0.5196 -0.1436
17550TIP3    H174141   3.707   5.115  15.238  0.5108  0.5662 -0.1724
17550TIP3    H274142   3.717   4.981  15.307  1.1785  0.3367 -0.7062
17551TIP3   OH274143   0.380   4.455   0.206  0.2684  0.0877 -0.3586
17551TIP3    H174144   0.387   4.532   0.262  0.3517 -0.4076  0.3238
17551TIP3    H274145   0.300   4.411   0.235  0.2188 -0.0793 -0.7432
17552TIP3   OH274146   6.644   0.213  13.831 -0.2955  0.3844 -0.3754
17552TIP3    H174147   6.618   0.258  13.750 -0.6002 -0.6835 -0.8796
17552TIP3    H274148   6.732   0.246  13.849 -0.4284  1.0234 -0.8535
17553TIP3   OH274149   5.144   1.121  15.081  0.1378 -0.4366 -0.3867
17553TIP3    H174150   5.120   1.055  15.147  1.7383  0.0729  0.7571
17553TIP3    H274151   5.060   1.156  15.051 -0.6351 -0.2636  1.8250
17554TIP3   OH274152   2.249   6.017  16.836  0.7472  0.1509 -1.2706
17554TIP3    H174153   2.173   6.067  16.805 -0.3429 -0.9605 -0.4735
17554TIP3    H274154   2.322   6.052  16.786 -0.2231  1.5227 -1.7845
17555TIP3   OH274155   4.320   2.604   5.443  0.2739  0.4755 -0.2299
17555TIP3    H174156   4.374   2.560   5.377  0.1797  0.5283 -0.3434
17555TIP3    H274157   4.372   2.601   5.523 -0.9228 -2.4757  0.5695
17556TIP3   OH274158   6.385   0.698  16.461 -0.5342  0.1266 -0.1749
17556TIP3    H174159   6.469   0.683  16.417 -1.7237 -1.4586 -2.0888
17556TIP3    H274160   6.320   0.662  16.401 -2.5530  0.6819  1.5578
17557TIP3   OH274161   2.519   0.704   5.644 -0.8447  0.3981 -0.4270
17557TIP3    H174162   2.572   0.745   5.712 -0.5263 -0.2289 -0.2938
17557TIP3    H274163   2.447   0.766   5.629  0.7773  2.0701 -1.7721
17558TIP3   OH274164   0.302   6.654  13.677 -0.9790 -0.1403 -0.2416
17558TIP3    H174165   0.338   6.742  13.685  3.9315 -1.8395 -0.1072
17558TIP3    H274166   0.254   6.641  13.759 -0.6361  1.8982  0.3510
17559TIP3   OH274167   4.921   2.975  11.577  0.7402  0.1989  0.1428
17559TIP3    H174168   4.885   2.946  11.493  0.9886 -0.3304  0.2175
17559TIP3    H274169   4.885   2.913  11.641  1.9105 -0.4360  0.1987
17560TIP3   OH274170   4.331   3.525  15.532  0.1724 -0.4846 -0.0347
17560TIP3    H174171   4.261   3.486  15.584  0.9442  0.0529  1.4348
17560TIP3    H274172   4.408   3.472  15.552  0.5489 -0.0962 -0.4320
17561TIP3   OH274173   4.524   2.949   6.541  0.4632  0.6778 -0.0284
17561TIP3    H174174   4.463   2.970   6.471  0.7236  0.3433 -0.3554
17561TIP3    H274175   4.565   3.033   6.562 -1.5393  1.3405  1.5956
17562TIP3   OH274176   1.039   4.383  11.401 -0.2251  0.1369 -0.6463
17562TIP3    H174177   0.956   4.349  11.368  0.6821  0.0699 -3.0905
17562TIP3    H274178   1.095   4.390  11.323  1.6418  1.4149  0.7053
17563TIP3   OH274179   0.996   1.702  14.940  0.1469 -0.4015 -0.0917
17563TIP3    H174180   0.901   1.697  14.954 -0.3569  0.6855 -2.5614
17563TIP3    H274181   1.028   1.750  15.017 -1.8740  2.3626 -0.7809
17564TIP3   OH274182   6.068   3.998   3.513 -0.3871  0.2664  0.3994
17564TIP3    H174183   5.974   3.983   3.520 -0.1969 -0.9997  0.5248
17564TIP3    H274184   6.105   3.910   3.502  0.9614  0.5240  2.4223
17565TIP3   OH274185   0.029   1.838   2.012 -0.3918 -0.2638 -0.4066
17565TIP3    H174186  -0.056   1.810   2.046 -0.0813  0.8103  1.4218
17565TIP3    H274187   0.009   1.899   1.942 -1.1564  0.2235  0.2151
17566TIP3   OH274188   2.891   4.128   0.921  0.2088  0.3378  0.5022
17566TIP3    H174189   2.905   4.129   0.826  1.5829 -2.3465  0.5862
17566TIP3    H274190   2.799   4.106   0.931  0.3817 -0.8065 -0.2489
17567TIP3   OH274191   1.705   6.320   2.309 -0.4233  0.3559 -0.2096
17567TIP3    H174192   1.752   6.242   2.280 -2.0612 -0.5570 -0.5429
17567TIP3    H274193   1.750   6.392   2.266  1.3234 -0.3576  0.3515
17568TIP3   OH274194   2.556   4.578  15.775 -0.1096 -0.8168 -0.1530
17568TIP3    H174195   2.614   4.653  15.789 -1.7544  0.6752 -0.9982
17568TIP3    H274196   2.513   4.564  15.860 -0.0414 -0.6020 -0.0839
17569TIP3   OH274197   6.063   1.177   1.930  0.4527  0.4945 -0.2586
17569TIP3    H174198   6.060   1.235   2.007  2.7381  0.2698  0.0715
17569TIP3    H274199   5.972   1.154   1.914 -0.1468  0.8452  2.1790
17570TIP3   OH274200   3.993   2.294   0.253 -0.0034 -0.3215 -0.4532
17570TIP3    H174201   3.918   2.320   0.200 -0.6272  1.2667  1.0916
17570TIP3    H274202   3.984   2.199   0.263 -3.7901  0.1286  2.3760
17571TIP3   OH274203   1.725   5.384   5.047  0.3937 -0.2310  0.2812
17571TIP3    H174204   1.739   5.294   5.016  0.2766  0.2322 -1.1765
17571TIP3    H274205   1.746   5.380   5.141 -0.6570 -2.0035  0.4900
17572TIP3   OH274206   3.573   0.895  14.139  0.8011 -0.6737 -0.3012
17572TIP3    H174207   3.542   0.930  14.222  0.8002 -1.0199 -0.1556
17572TIP3    H274208   3.494   0.887  14.086  1.0387  1.5270 -1.0953
17573TIP3   OH274209   0.370   5.246   6.044  0.4230 -0.4764  0.6697
17573TIP3    H174210   0.348   5.160   6.081 -2.3816  0.3388  1.1455
17573TIP3    H274211   0.306   5.306   6.082  2.2185  1.8495  0.2553
17574TIP3   OH274212   6.769   6.103  13.945 -0.3847 -0.2517  0.6370
17574TIP3    H174213   6.704   6.118  14.014 -0.2275  1.5512  0.4325
17574TIP3    H274214   6.743   6.162  13.874  1.0178 -0.0870  0.2316
17575TIP3   OH274215   1.481   0.143   1.321  0.0980 -0.1088 -0.0191
17575TIP3    H174216   1.458   0.236   1.329  0.0444 -0.1162 -0.0816
17575TIP3    H274217   1.441   0.116   1.238  1.4581  0.2126 -0.8018
17576TIP3   OH274218   0.772   1.136  17.109  0.4955 -1.0072 -0.1845
17576TIP3    H174219   0.771   1.061  17.169 -0.0507 -2.1162 -1.5226
17576TIP3    H274220   0.754   1.212  17.165  1.6755 -1.7719  1.3045
17577TIP3   OH274221   4.820   3.227  11.653 -0.4134 -0.1094 -0.2084
17577TIP3    H174222   4.853   3.140  11.631  1.2162  0.2786  0.5385
17577TIP3    H274223   4.729   3.227  11.623  0.0739 -1.4538 -1.8258
17578TIP3   OH274224   5.031   1.360  14.814 -0.2546 -0.3203 -0.0665
17578TIP3    H174225   4.963   1.295  14.795 -2.4522  1.4698  1.2505
17578TIP3    H274226   5.034   1.416  14.736 -2.3308  1.2232  0.8871
17579TIP3   OH274227   5.913   6.104   5.817  0.0061 -0.0924  0.1045
17579TIP3    H174228   5.935   6.068   5.903 -0.1157  1.9811  1.0669
17579TIP3    H274229   5.985   6.165   5.798 -1.5670  1.9087  0.2873
17580TIP3   OH274230   5.371   5.496   3.403  0.1661 -0.6593 -0.2405
17580TIP3    H174231   5.343   5.511   3.493 -2.2046 -2.5895 -0.5564
17580TIP3    H274232   5.308   5.544   3.350  2.1502  1.3426 -0.9759
17581TIP3   OH274233   2.674   4.438   2.413 -0.0502 -1.0124  0.5606
17581TIP3    H174234   2.647   4.527   2.437  2.6021 -0.3698  1.5268
17581TIP3    H274235   2.717   4.404   2.492  1.1957 -2.1974 -0.5768
17582TIP3   OH274236   2.390   0.840  11.894 -0.0095  0.1357  0.1323
17582TIP3    H174237   2.310   0.872  11.852 -0.0452  1.6689  1.2896
17582TIP3    H274238   2.413   0.909  11.956  2.3708 -0.1445 -0.3610
17583TIP3   OH274239   1.469   1.361   3.088  0.0942 -0.0107  0.2399
17583TIP3    H174240   1.380   1.396   3.083 -0.2394 -1.0293 -1.7477
17583TIP3    H274241   1.510   1.387   3.005  1.2490 -0.6056  0.5979
17584TIP3   OH274242   2.783   5.755  16.945  0.2273 -0.5903 -0.2035
17584TIP3    H174243   2.735   5.818  16.892  1.3104  0.4379  0.0101
17584TIP3    H274244   2.754   5.771  17.034  0.4166 -0.4661 -0.1631
17585TIP3   OH274245   4.753   4.410  11.225 -0.0941 -0.4097 -0.5233
17585TIP3    H174246   4.724   4.421  11.135 -0.1622  0.1794 -0.4298
17585TIP3    H274247   4.687   4.352  11.264  1.0794 -2.4841 -1.4214
17586TIP3   OH274248   1.839   6.637   5.921 -0.1497  0.5684  0.3834
17586TIP3    H174249   1.886   6.555   5.934  1.0653  1.0865 -0.5995
17586TIP3    H274250   1.904   6.705   5.937 -0.3751  1.2881 -1.5780
17587TIP3   OH274251   1.116   1.237  16.512  0.2185  0.4230 -0.0124
17587TIP3    H174252   1.030   1.277  16.510 -0.0586 -0.1671 -0.6290
17587TIP3    H274253   1.106   1.161  16.569 -0.0526 -0.4240 -1.1373
17588TIP3   OH274254   6.161   3.561  16.377 -0.4435 -0.1346 -0.5049
17588TIP3    H174255   6.117   3.525  16.300 -1.2727 -0.2308 -0.0025
17588TIP3    H274256   6.246   3.591  16.345 -0.9492  0.2231 -1.5408
17589TIP3   OH274257   1.020   1.607   0.223 -0.0897  0.5272  0.4890
17589TIP3    H174258   0.988   1.612   0.133 -1.1804  0.8674  0.8795
17589TIP3    H274259   0.949   1.642   0.276  0.1565 -0.5425  1.5818
17590TIP3   OH274260   4.134   0.677   2.151 -0.0318  0.1365  1.0226
17590TIP3    H174261   4.088   0.639   2.226 -3.0682 -1.5167 -1.4475
17590TIP3    H274262   4.095   0.764   2.141 -3.5958 -1.4902 -1.4587
17591TIP3   OH274263   5.168   5.803   0.797  0.5709  0.2096 -0.2388
17591TIP3    H174264   5.240   5.818   0.859 -0.2756  1.3906  0.5105
17591TIP3    H274265   5.166   5.708   0.786  0.5002 -0.1007  1.8958
17592TIP3   OH274266   0.014   5.483   1.886 -0.0013 -0.3290 -0.7350
17592TIP3    H174267   0.106   5.500   1.906 -0.2203 -1.5889  1.7146
17592TIP3    H274268   0.009   5.486   1.790  1.7387  3.7366 -0.8871
17593TIP3   OH274269   3.980   1.181   5.866  0.1324  0.0813 -0.4525
17593TIP3    H174270   3.979   1.273   5.893 -0.2145  0.4655 -1.6943
17593TIP3    H274271   3.901   1.143   5.905  1.1600 -0.1667  1.5117
17594TIP3   OH274272   3.953   3.150   4.753 -0.5617 -0.0918  0.0769
17594TIP3    H174273   3.995   3.231   4.724  0.5906 -1.2310 -1.6381
17594TIP3    H274274   3.941   3.100   4.673 -1.9781 -1.3141  1.0035
17595TIP3   OH274275   6.209   4.545   3.075  0.3542  0.4830  0.2484
17595TIP3    H174276   6.137   4.487   3.098 -0.6815  1.4186 -0.4893
17595TIP3    H274277   6.280   4.487   3.047 -0.5938 -0.4236 -0.3251
17596TIP3   OH274278   3.289   4.949  15.722  0.3812 -0.1067  0.5003
17596TIP3    H174279   3.346   4.879  15.690 -0.9183 -0.1429 -1.9662
17596TIP3    H274280   3.321   4.967  15.811  2.7763 -1.6048  0.0362
17597TIP3   OH274281   4.101   0.315  14.493 -0.6050  0.3504  0.2388
17597TIP3    H174282   4.059   0.312  14.579 -2.7412 -3.4800 -0.7186
17597TIP3    H274283   4.045   0.373  14.441 -1.0875  0.2408  0.6274
17598TIP3   OH274284   1.065   6.101  14.893 -0.1067  0.2061 -0.1588
17598TIP3    H174285   1.160   6.098  14.905 -0.1201 -4.1318  0.2927
17598TIP3    H274286   1.029   6.103  14.982 -0.5209  1.8578 -0.3265
17599TIP3   OH274287   1.330   2.907   5.700  0.0204  0.2148  0.0683
17599TIP3    H174288   1.296   2.923   5.788 -1.4779  0.7949 -0.5825
17599TIP3    H274289   1.272   2.956   5.643 -0.2540 -1.7329 -1.4247
17600TIP3   OH274290   6.116   4.971  14.467 -0.1368  0.1597  0.4716
17600TIP3    H174291   6.173   5.029  14.417  1.2953 -1.3902  0.1841
17600TIP3    H274292   6.125   4.886  14.423 -1.2702 -0.5383  1.5309
17601TIP3   OH274293   5.888   2.957  11.034 -0.2311 -0.1163  0.1827
17601TIP3    H174294   5.859   2.882  11.086 -0.6808 -0.3829 -0.4465
17601TIP3    H274295   5.873   3.032  11.091 -0.6895 -0.4059  0.4553
17602TIP3   OH274296   3.652   3.096   6.101 -0.6765 -0.1714 -0.5976
17602TIP3    H174297   3.588   3.025   6.090 -0.6456 -0.2909 -0.0619
17602TIP3    H274298   3.644   3.149   6.022 -1.6201 -0.0369 -0.4242
17603TIP3   OH274299   1.880   6.189  13.753  0.1791 -0.5726 -0.0396
17603TIP3    H174300   1.797   6.236  13.768  0.2665  0.1057 -1.4382
17603TIP3    H274301   1.862   6.134  13.677  0.4234 -2.0082  0.9049
17604TIP3   OH274302   0.764   1.434   2.020 -0.1121  0.1126  0.2160
17604TIP3    H174303   0.675   1.422   1.985  0.0830 -0.8753  0.0170
17604TIP3    H274304   0.816   1.462   1.945 -0.0989 -0.0589  0.1611
17605TIP3   OH274305   5.187   0.846   5.794  0.3241 -0.7630  0.4745
17605TIP3    H174306   5.136   0.820   5.870 -1.0728  0.0553 -0.1428
17605TIP3    H274307   5.173   0.940   5.787 -1.1697 -1.0789 -1.8717
17606TIP3   OH274308   4.686   2.402   5.643 -0.3345  0.4300 -0.3214
17606TIP3    H174309   4.741   2.421   5.719 -1.0518 -0.5347  0.4760
17606TIP3    H274310   4.633   2.327   5.671 -0.6049  0.0480 -1.7847
17607TIP3   OH274311   3.552   1.844  13.868 -0.0031  0.2777 -0.2948
17607TIP3    H174312   3.508   1.759  13.873 -2.7504  1.4556 -1.9118
17607TIP3    H274313   3.604   1.849  13.948 -1.3271 -2.0905  0.8325
17608TIP3   OH274314   1.356   6.017  12.559 -0.0180 -0.0954  0.0118
17608TIP3    H174315   1.287   6.011  12.625 -0.0017  0.4521  0.0811
17608TIP3    H274316   1.375   5.926  12.536 -0.6548 -0.2545  0.1047
17609TIP3   OH274317   4.682   6.418  16.247 -0.4958 -0.2535 -0.2671
17609TIP3    H174318   4.682   6.510  16.275 -1.0604 -0.1241 -0.6885
17609TIP3    H274319   4.631   6.373  16.314  1.3405 -0.5981  0.9817
17610TIP3   OH274320   3.795   0.373  11.589 -0.1207  0.2710  0.4279
17610TIP3    H174321   3.882   0.357  11.554  0.4201  2.6159  0.5464
17610TIP3    H274322   3.742   0.396  11.513 -0.3625 -0.0360  0.4986
17611TIP3   OH274323   5.446   4.446   2.408 -0.2948 -0.0086  0.2665
17611TIP3    H174324   5.396   4.371   2.377  1.4603 -0.9265 -0.5021
17611TIP3    H274325   5.531   4.439   2.364  0.5737  1.3999  1.5853
17612TIP3   OH274326   3.874   1.653   4.024 -0.1561 -0.3969  0.6029
17612TIP3    H174327   3.822   1.591   3.973 -2.9056  0.0857  2.6207
17612TIP3    H274328   3.914   1.601   4.093  2.4222 -0.8072 -1.0696
17613TIP3   OH274329   1.902   4.253   1.843  0.2520 -0.1265  0.3420
17613TIP3    H174330   1.924   4.195   1.770 -0.6039  0.0325 -0.0556
17613TIP3    H274331   1.944   4.336   1.820 -1.0238  0.2884 -0.5993
17614TIP3   OH274332   2.361   0.665   6.492 -0.4442 -0.0090  0.4306
17614TIP3    H174333   2.295   0.626   6.435 -1.0854  0.6205  0.7270
17614TIP3    H274334   2.313   0.687   6.572 -0.0979  1.3257  0.2954
17615TIP3   OH274335   5.692   0.104   1.717 -0.5877 -0.1175 -0.7612
17615TIP3    H174336   5.722   0.136   1.632  0.5046 -1.8475 -1.0654
17615TIP3    H274337   5.730   0.016   1.725 -3.1471 -1.2387  0.1678
17616TIP3   OH274338   2.120   2.696   2.946 -0.4107 -0.0509 -0.5914
17616TIP3    H174339   2.076   2.769   2.901 -1.5433 -1.0854 -1.2078
17616TIP3    H274340   2.126   2.627   2.880 -0.5832 -1.0052  0.3644
17617TIP3   OH274341   5.120   6.708  10.592  0.2798  0.6769 -0.2937
17617TIP3    H174342   5.040   6.754  10.567  0.0145  0.2455 -0.2435
17617TIP3    H274343   5.167   6.695  10.509 -1.2930 -2.0845 -0.8918
17618TIP3   OH274344   2.060   4.933  11.947  0.7151  0.1489 -0.1768
17618TIP3    H174345   2.073   4.871  11.875  0.7726 -0.6613  0.5144
17618TIP3    H274346   2.130   4.998  11.936  1.5705 -0.7204 -0.0887
17619TIP3   OH274347   4.951   2.422  16.851  0.3753  0.4077  0.1510
17619TIP3    H174348   4.969   2.476  16.774  0.2270 -2.4473 -2.0685
17619TIP3    H274349   4.860   2.396  16.841  0.6535 -0.8560  0.7268
17620TIP3   OH274350   4.331   3.414  14.293 -0.5558  0.2196 -0.2152
17620TIP3    H174351   4.254   3.365  14.265  0.3852 -1.4434 -0.0487
17620TIP3    H274352   4.302   3.466  14.367 -0.8542 -2.8398  1.9850
17621TIP3   OH274353   3.231   0.182   1.496  0.2769  0.3464  0.2689
17621TIP3    H174354   3.236   0.196   1.591  1.4005  1.5443  0.0661
17621TIP3    H274355   3.147   0.139   1.482 -0.8537  1.9655  1.6175
17622TIP3   OH274356   5.655   2.858  10.878 -0.5663  0.4958 -0.3168
17622TIP3    H174357   5.730   2.914  10.900 -1.0983  1.4472 -0.8466
17622TIP3    H274358   5.691   2.770  10.878  1.0246  1.0541 -2.3832
17623TIP3   OH274359   2.449   1.420   2.314 -0.3282  0.7528 -0.1594
17623TIP3    H174360   2.516   1.486   2.332 -0.6935  0.8542  0.8581
17623TIP3    H274361   2.475   1.383   2.230  1.3678  0.3482  0.4985
17624TIP3   OH274362   5.492   6.690  12.999 -0.3045  0.0287 -0.5278
17624TIP3    H174363   5.518   6.609  12.955  0.4940 -0.2894  0.4749
17624TIP3    H274364   5.410   6.669  13.042  1.3658 -1.2840  2.2858
17625TIP3   OH274365   6.052   6.118   5.507 -0.0097  0.1209  0.3394
17625TIP3    H174366   6.129   6.174   5.513 -1.5591  2.1932  1.8932
17625TIP3    H274367   6.068   6.048   5.570  0.8093  0.2327  0.2638
17626TIP3   OH274368   2.259   2.588   1.775  0.0434  0.2328 -0.5768
17626TIP3    H174369   2.252   2.653   1.845 -0.4423 -0.0000 -0.4066
17626TIP3    H274370   2.352   2.565   1.773 -0.0245 -0.1617  0.3623
17627TIP3   OH274371   0.577   4.385   3.529  0.3229 -0.5525 -0.8350
17627TIP3    H174372   0.583   4.304   3.477 -0.7040 -1.5265  0.5041
17627TIP3    H274373   0.622   4.365   3.610 -2.3568 -0.8469  0.7137
17628TIP3   OH274374   5.745   6.147   1.441  0.4893 -0.4579  0.3713
17628TIP3    H174375   5.667   6.183   1.483 -1.1364 -0.5696 -2.2739
17628TIP3    H274376   5.810   6.216   1.447 -1.0418  1.1450 -0.4788
17629TIP3   OH274377   1.967   2.516   2.190  0.0492 -0.0895 -0.3411
17629TIP3    H174378   1.892   2.553   2.237  0.6712  1.3540 -0.4387
17629TIP3    H274379   1.952   2.538   2.099  0.3479 -0.2492 -0.4311
17630TIP3   OH274380   2.272   0.452   2.632 -0.2855  0.1825  0.5585
17630TIP3    H174381   2.222   0.384   2.676  0.8603 -1.7589 -0.9444
17630TIP3    H274382   2.239   0.453   2.542 -0.2026  1.5776  0.5077
17631TIP3   OH274383   0.362   4.425  14.858 -0.2017  0.2933 -0.4596
17631TIP3    H174384   0.328   4.373  14.785 -0.9981 -0.7402  0.6155
17631TIP3    H274385   0.368   4.514  14.822 -0.9781 -0.1039 -1.6645
17632TIP3   OH274386   2.777   6.492   6.283 -0.0153  0.0737 -0.1300
17632TIP3    H174387   2.683   6.506   6.270  0.0474  0.7199  0.0801
17632TIP3    H274388   2.792   6.402   6.253 -0.0942  1.0590 -3.5711
17633TIP3   OH274389   2.887   0.783   2.470  0.4115 -0.2375  0.2978
17633TIP3    H174390   2.952   0.745   2.530  0.0620 -1.1558  0.1134
17633TIP3    H274391   2.808   0.793   2.523  0.0930 -1.0774 -0.0055
17634TIP3   OH274392   4.714   4.425   5.870 -0.2276 -0.0314  0.5919
17634TIP3    H174393   4.651   4.375   5.818 -1.1734 -0.6020  2.2026
17634TIP3    H274394   4.800   4.400   5.834 -0.8352 -0.3124 -0.7322
17635TIP3   OH274395   4.289   1.088  16.643 -0.0867 -0.1480 -0.1006
17635TIP3    H174396   4.273   0.994  16.645  0.8539 -0.3542 -1.4727
17635TIP3    H274397   4.232   1.123  16.712  1.7935 -2.0338  2.6199
17636TIP3   OH274398   3.335   2.746  12.670  0.1561 -0.1911  0.5607
17636TIP3    H174399   3.360   2.813  12.733 -0.6295  0.0934  0.5805
17636TIP3    H274400   3.242   2.732  12.685  0.3859 -1.5866  0.8347
17637TIP3   OH274401   5.779   5.387   4.633  0.1259 -0.1639 -0.0711
17637TIP3    H174402   5.852   5.374   4.573 -0.8171 -0.5850 -1.1890
17637TIP3    H274403   5.715   5.437   4.582 -1.2833 -1.7025  0.0613
17638TIP3   OH274404   2.856   6.585  11.276  0.2398 -0.7188 -0.9082
17638TIP3    H174405   2.790   6.518  11.291  1.4685 -1.6611  0.5679
17638TIP3    H274406   2.894   6.563  11.191 -1.0298 -0.4086 -1.5774
17639TIP3   OH274407   4.298   1.273  12.299  0.1728 -0.0999 -0.0962
17639TIP3    H174408   4.342   1.189  12.291  1.3239  0.3494  1.1245
17639TIP3    H274409   4.300   1.310  12.211 -1.4481 -1.8285 -0.9262
17640TIP3   OH274410   2.993   3.365  16.860 -0.9771  0.2929  0.6214
17640TIP3    H174411   2.921   3.423  16.835 -0.3071  0.6045 -0.6645
17640TIP3    H274412   2.995   3.298  16.792  0.1337  0.4641  0.4674
17641TIP3   OH274413   5.089   5.855   4.931 -0.6427  0.0627  0.8791
17641TIP3    H174414   5.070   5.922   4.997 -2.5897 -1.6385  2.1821
17641TIP3    H274415   5.153   5.798   4.972  0.2760  0.5441  0.1515
17642TIP3   OH274416   5.510   6.189   0.684  0.4767  0.0935  0.3461
17642TIP3    H174417   5.493   6.187   0.778 -0.7881 -2.3180  0.1432
17642TIP3    H274418   5.423   6.184   0.644  0.9008  2.3358 -1.0169
17643TIP3   OH274419   4.999   0.198  14.043 -0.2649  0.0128  0.5513
17643TIP3    H174420   5.035   0.198  13.954 -1.4212  1.3999  0.0556
17643TIP3    H274421   5.075   0.212  14.100  0.2807  0.6924 -0.3289
17644TIP3   OH274422   6.449   4.754   4.337 -0.2060 -0.0355 -0.1202
17644TIP3    H174423   6.542   4.734   4.347 -0.3506 -0.2877  0.7801
17644TIP3    H274424   6.448   4.844   4.303  0.4249 -1.1775 -3.5584
17645TIP3   OH274425   5.878   0.192   3.051 -0.3888  0.6275 -0.5431
17645TIP3    H174426   5.969   0.176   3.077  0.4021 -0.2193 -3.4766
17645TIP3    H274427   5.830   0.116   3.082  0.4468 -0.1838 -1.1775
17646TIP3   OH274428   6.263   0.093   4.594 -0.1367 -0.3772 -0.5985
17646TIP3    H174429   6.271   0.003   4.624 -1.1467 -0.7794 -1.4749
17646TIP3    H274430   6.170   0.115   4.609  0.2832  0.8459  0.4667
17647TIP3   OH274431   4.971   1.325   4.780 -0.0414 -0.2132  0.0724
17647TIP3    H174432   5.041   1.346   4.718 -2.2191  0.0350 -2.4619
17647TIP3    H274433   5.013   1.271   4.847  2.6718  0.4419 -0.9916
17648TIP3   OH274434   2.868   6.229  14.115  0.2678 -0.7821  1.0639
17648TIP3    H174435   2.842   6.257  14.203  2.3018 -0.0724  1.4929
17648TIP3    H274436   2.786   6.226  14.066 -0.5556  2.5171  1.9631
17649TIP3   OH274437   6.768   0.019  15.006 -0.5192  0.5990 -0.5876
17649TIP3    H174438   6.859  -0.005  14.992 -0.3943  0.7727 -0.1109
17649TIP3    H274439   6.731  -0.056  15.054 -1.0821 -0.2376 -2.2417
17650TIP3   OH274440   3.804   1.951  11.484 -0.1731  0.2338  0.1959
17650TIP3    H174441   3.855   1.924  11.408  0.6984 -1.2829  1.2803
17650TIP3    H274442   3.714   1.958  11.451  0.3708  0.9823 -1.2662
17651TIP3   OH274443   1.441   2.304   1.654 -0.0377  0.2589  0.0386
17651TIP3    H174444   1.434   2.224   1.707  1.5572  0.9181  1.3347
17651TIP3    H274445   1.493   2.364   1.708  1.7718  0.9521 -2.3157
17652TIP3   OH274446   3.177   2.774  16.780  0.2370 -0.1729 -0.6729
17652TIP3    H174447   3.152   2.835  16.711  1.7568  1.9337  0.5102
17652TIP3    H274448   3.103   2.775  16.840 -0.3251 -0.5853 -1.3512
17653TIP3   OH274449   3.674   2.138  16.329 -0.0944 -0.0415 -0.1444
17653TIP3    H174450   3.584   2.139  16.298 -0.7657  0.0090  1.7214
17653TIP3    H274451   3.720   2.198  16.270 -1.7582  1.7409  0.2692
17654TIP3   OH274452   1.767   4.151  12.040  0.0727 -0.2515  0.2189
17654TIP3    H174453   1.686   4.106  12.017  1.2017 -2.5654  0.5543
17654TIP3    H274454   1.749   4.190  12.126 -0.3774 -1.6447  0.7870
17655TIP3   OH274455   1.619   5.629  11.321  0.2407 -0.1019  0.0144
17655TIP3    H174456   1.558   5.685  11.273  0.2580 -0.1552 -0.0700
17655TIP3    H274457   1.589   5.633  11.412  3.0612  3.9751  1.0169
17656TIP3   OH274458   0.161   5.175   5.262  0.2639  0.3302 -0.1956
17656TIP3    H174459   0.222   5.242   5.294  0.5170  0.2900 -0.5879
17656TIP3    H274460   0.181   5.167   5.169 -0.4645  0.4459 -0.3718
17657TIP3   OH274461   4.394   1.119   4.151 -0.0011  0.2397  0.5656
17657TIP3    H174462   4.454   1.057   4.110  0.7191  1.5124 -0.3928
17657TIP3    H274463   4.441   1.151   4.228 -0.9600 -1.4283  1.8997
17658TIP3   OH274464   4.045   4.725   3.844  0.0631 -0.1830 -0.3238
17658TIP3    H174465   4.057   4.775   3.763  3.2629  0.0527  0.1400
17658TIP3    H274466   4.021   4.637   3.815 -0.3031  0.2744 -1.4523
17659TIP3   OH274467   1.681   2.876  16.969  0.4424  0.1519  0.2566
17659TIP3    H174468   1.775   2.868  16.957  0.7013  0.5487  1.8589
17659TIP3    H274469   1.664   2.970  16.973 -0.0177  0.0827  0.0994
17660TIP3   OH274470   4.417   4.110   5.510 -0.6195 -0.0283  0.0566
17660TIP3    H174471   4.339   4.145   5.465  0.9781  0.4264 -2.5821
17660TIP3    H274472   4.453   4.047   5.448  2.1774  1.1872  0.3374
17661TIP3   OH274473   1.822   3.614  15.818  0.4068 -0.2898  0.0953
17661TIP3    H174474   1.756   3.643  15.882 -0.0925  1.3447 -1.0897
17661TIP3    H274475   1.834   3.690  15.761  1.3097 -1.4882 -1.3737
17662TIP3   OH274476   2.682   4.670  13.517  0.1599  0.3143  1.0291
17662TIP3    H174477   2.618   4.599  13.521  1.4088 -1.0791 -1.4103
17662TIP3    H274478   2.754   4.641  13.574  0.0293  0.3363  1.2059
17663TIP3   OH274479   3.507   6.149   2.261  0.5366  0.0833  0.1630
17663TIP3    H174480   3.481   6.107   2.343  0.4702  0.6973  0.4634
17663TIP3    H274481   3.448   6.112   2.195 -0.0388  0.2708  0.5619
17664TIP3   OH274482   1.497   3.040   2.214  0.1991 -0.0999  0.3158
17664TIP3    H174483   1.496   3.125   2.256  1.2438  0.1810 -0.1772
17664TIP3    H274484   1.411   3.002   2.231 -0.0756  0.8235  0.9992
17665TIP3   OH274485   0.062   4.638  14.717  0.9624  0.4882 -0.0585
17665TIP3    H174486   0.094   4.717  14.760  0.5981  1.4057 -1.4199
17665TIP3    H274487   0.019   4.588  14.787 -0.7314  2.5124  0.4426
17666TIP3   OH274488   0.864   4.410  15.200  0.1579 -0.0872 -0.4353
17666TIP3    H174489   0.790   4.364  15.241  0.0363  0.1406 -0.3958
17666TIP3    H274490   0.925   4.427  15.271  0.0680  0.0732 -0.3964
17667TIP3   OH274491   3.273   3.679   5.554  0.2252 -0.0548 -0.3386
17667TIP3    H174492   3.222   3.681   5.635 -0.0054 -0.2805 -0.4797
17667TIP3    H274493   3.212   3.708   5.487  0.1487 -0.7839 -0.5841
17668TIP3   OH274494   5.193   1.654  13.007 -0.0206 -0.3007  0.1215
17668TIP3    H174495   5.246   1.605  13.071 -0.5340 -0.8308  0.1441
17668TIP3    H274496   5.256   1.680  12.940  0.8466  1.5907  1.5723
17669TIP3   OH274497   2.563   2.594   3.024  0.4929  0.0109 -0.1952
17669TIP3    H174498   2.606   2.626   3.104  0.6332  0.3627 -0.4113
17669TIP3    H274499   2.474   2.573   3.052  0.6955 -0.3776  0.1738
17670TIP3   OH274500   4.404   6.102  17.069 -0.1989  0.2241 -0.8716
17670TIP3    H174501   4.380   6.107  16.976  0.1900  0.7549 -0.9476
17670TIP3    H274502   4.440   6.188  17.089 -1.2062  0.4579  0.0328
17671TIP3   OH274503   4.080   3.397  10.411  0.0105  0.1398  0.0271
17671TIP3    H174504   4.038   3.312  10.398 -0.1833  0.1117  0.7428
17671TIP3    H274505   4.141   3.407  10.338  0.5896 -0.9554  0.3465
17672TIP3   OH274506   2.658   5.883   2.586 -0.1709 -0.5422 -0.1327
17672TIP3    H174507   2.628   5.870   2.676 -0.0140 -0.9913 -0.1431
17672TIP3    H274508   2.753   5.880   2.592 -0.1500 -0.1069 -0.2466
17673TIP3   OH274509   0.767   4.679  13.842 -0.3643 -0.6717 -0.5751
17673TIP3    H174510   0.735   4.607  13.789 -2.7007  0.7310 -1.2141
17673TIP3    H274511   0.696   4.698  13.903 -1.1374  2.8127 -2.2737
17674TIP3   OH274512   3.929   4.705  16.524 -0.0590  0.5224 -0.6543
17674TIP3    H174513   3.859   4.721  16.587  1.0320 -2.3319  1.5475
17674TIP3    H274514   3.977   4.788  16.519 -1.7822  1.6090  0.1663
17675TIP3   OH274515   6.546   1.942   2.507 -0.3899 -0.5478  0.0374
17675TIP3    H174516   6.565   2.019   2.561 -0.5728 -1.0792  0.8787
17675TIP3    H274517   6.516   1.876   2.569  0.1717 -1.4422 -0.6175
17676TIP3   OH274518   3.592   5.215  15.128 -0.4152 -0.1486  0.0959
17676TIP3    H174519   3.611   5.306  15.104  0.4131  0.0900  1.5264
17676TIP3    H274520   3.503   5.200  15.095  0.1302  0.5503 -1.8275
17677TIP3   OH274521   2.464   5.131  11.606 -0.0175 -0.0876  0.1150
17677TIP3    H174522   2.403   5.151  11.535 -0.2937 -2.1274 -0.2803
17677TIP3    H274523   2.512   5.053  11.577  0.5413 -0.4181  1.7534
17678TIP3   OH274524   0.215   1.378   3.819  0.1447  0.7040 -0.4665
17678TIP3    H174525   0.277   1.439   3.859 -0.3645  0.5126  0.6729
17678TIP3    H274526   0.150   1.434   3.777  1.0898  0.9052 -1.7193
17679TIP3   OH274527   1.458   0.279  13.708  0.2320  0.3914 -0.2936
17679TIP3    H174528   1.486   0.207  13.764  1.1258  0.7186 -0.3014
17679TIP3    H274529   1.512   0.270  13.629 -1.5933 -0.5760 -1.4924
17680TIP3   OH274530   6.832   0.162   3.779 -0.4490  0.2379 -0.3695
17680TIP3    H174531   6.876   0.247   3.784  0.7764 -0.4086  0.2159
17680TIP3    H274532   6.866   0.123   3.698 -2.5029  1.0642 -1.7239
17681TIP3   OH274533   2.634   6.558   3.461  0.5191 -0.3154  0.5644
17681TIP3    H174534   2.553   6.594   3.498  0.4062 -0.4853  0.4791
17681TIP3    H274535   2.703   6.612   3.500  0.4719 -1.0717  1.7455
17682TIP3   OH274536   1.004   3.709   1.268  0.0990 -0.2848 -0.0680
17682TIP3    H174537   1.043   3.701   1.355  1.2279  0.1322 -0.5216
17682TIP3    H274538   1.026   3.797   1.240 -1.6332  0.1574 -0.1429
17683TIP3   OH274539   3.796   1.459  14.268  0.2584  0.7200  0.3203
17683TIP3    H174540   3.740   1.384  14.287 -0.6801  1.5917  1.1497
17683TIP3    H274541   3.746   1.511  14.206  0.5557  1.0456  0.3479
17684TIP3   OH274542   3.450   3.873  15.330 -0.3413  0.2515 -0.2863
17684TIP3    H174543   3.359   3.865  15.300 -0.0210  1.1729 -1.6223
17684TIP3    H274544   3.468   3.967  15.327  0.3547  0.1697  0.9511
17685TIP3   OH274545   2.924   0.169   3.573  0.3080 -0.5476 -0.9551
17685TIP3    H174546   2.984   0.168   3.647  0.5927  2.4727 -1.0267
17685TIP3    H274547   2.948   0.247   3.523 -0.6537 -1.8128 -3.6137
17686TIP3   OH274548   2.553   2.244  10.797  0.4811  0.1386  0.4081
17686TIP3    H174549   2.494   2.237  10.721 -0.5803  0.4138  1.1829
17686TIP3    H274550   2.620   2.177  10.781  0.5464  0.4979 -0.9900
17687TIP3   OH274551   5.447   1.627  13.677  0.3273  0.1319 -0.4677
17687TIP3    H174552   5.382   1.563  13.647 -1.2621  0.7335  1.4199
17687TIP3    H274553   5.494   1.582  13.747 -1.1323  1.0598  1.2141
17688TIP3   OH274554   4.377   2.859   5.305 -0.0446 -0.0209  0.2921
17688TIP3    H174555   4.318   2.929   5.331  1.3693  1.2776  0.1264
17688TIP3    H274556   4.326   2.779   5.318 -1.6599  1.0116  0.5823
17689TIP3   OH274557   6.007   0.263  16.707 -0.7774 -0.7146  0.3032
17689TIP3    H174558   6.088   0.309  16.727 -0.5529 -1.3399  0.8538
17689TIP3    H274559   6.020   0.175  16.741 -0.6052 -1.6659 -2.0266
17690TIP3   OH274560   5.624   3.069   5.958 -0.3765  0.7636 -0.0424
17690TIP3    H174561   5.540   3.035   5.928 -0.1811  1.3302 -1.2848
17690TIP3    H274562   5.687   3.003   5.931 -0.4869 -0.1057  1.6934
17691TIP3   OH274563   2.444   6.131  14.426 -0.4054  0.9347  0.0342
17691TIP3    H174564   2.520   6.104  14.374 -1.4446  0.3741 -1.2387
17691TIP3    H274565   2.458   6.089  14.511 -1.2301 -2.6241 -1.3977
17692TIP3   OH274566   6.166   0.204   5.669 -0.5210 -0.1112  0.0021
17692TIP3    H174567   6.151   0.239   5.757 -1.4448 -2.1235  0.6983
17692TIP3    H274568   6.088   0.228   5.620  0.1959  1.4224 -0.4618
17693TIP3   OH274569   1.197   4.077   5.068  0.1319  0.5029  0.1828
17693TIP3    H174570   1.293   4.076   5.074  0.2385 -1.0733 -1.1250
17693TIP3    H274571   1.170   4.145   5.130  1.9944 -0.2626  1.9588
17694TIP3   OH274572   3.324   2.579   1.163 -0.2249 -0.3032 -0.0423
17694TIP3    H174573   3.254   2.575   1.098  0.0011  0.5069 -0.3552
17694TIP3    H274574   3.283   2.614   1.241 -0.5101 -1.3302  0.2800
17695TIP3   OH274575   3.499   2.949  11.077  0.7732 -0.0692 -0.4616
17695TIP3    H174576   3.576   2.929  11.024  0.5316 -1.6527 -0.2514
17695TIP3    H274577   3.446   2.870  11.074  0.5172 -0.0444  1.7273
17696TIP3   OH274578   1.352   5.385   4.790  0.7779  0.6350 -0.0730
17696TIP3    H174579   1.312   5.468   4.816  0.2241  1.1878 -2.4848
17696TIP3    H274580   1.373   5.342   4.873 -0.2816  2.5127  1.2485
17697TIP3   OH274581   5.325   0.624   5.319  0.5827  0.2203 -0.6779
17697TIP3    H174582   5.377   0.685   5.266  0.8895  0.1461 -0.4658
17697TIP3    H274583   5.325   0.662   5.407 -0.5617  0.7360 -0.8874
17698TIP3   OH274584   5.858   2.904  12.142 -0.5002 -0.7682 -0.2318
17698TIP3    H174585   5.849   2.976  12.080  0.3408 -1.1613 -0.8331
17698TIP3    H274586   5.925   2.848  12.103  0.3820 -0.7925  1.2611
17699TIP3   OH274587   5.489   5.897   2.522  0.6676 -0.2036  0.2718
17699TIP3    H174588   5.531   5.898   2.436 -0.8863 -0.4106 -0.5116
17699TIP3    H274589   5.560   5.917   2.583  2.1480 -1.6485 -0.8814
17700TIP3   OH274590   0.193   4.641   4.543  0.0454  0.0037 -0.0454
17700TIP3    H174591   0.207   4.590   4.623  0.2324 -1.5697 -1.0274
17700TIP3    H274592   0.229   4.727   4.563  0.2890 -0.4187  1.4861
17701TIP3   OH274593   2.233   1.520  11.183  0.0878  0.2648  0.0633
17701TIP3    H174594   2.277   1.487  11.105 -0.6753  1.5345 -0.9407
17701TIP3    H274595   2.254   1.614  11.185 -0.7731  0.4602  0.7695
17702TIP3   OH274596   2.069   4.441   0.344 -0.0067  0.0102  0.5449
17702TIP3    H174597   2.133   4.497   0.300 -0.9093  0.8658  0.2873
17702TIP3    H274598   2.003   4.502   0.378 -0.2155 -0.7726  1.6107
17703TIP3   OH274599   6.614   4.296  11.252  0.1427 -0.0392  0.4118
17703TIP3    H174600   6.573   4.365  11.200  1.1286  1.7537  1.8937
17703TIP3    H274601   6.706   4.320  11.257  0.4589 -1.2929  1.2577
17704TIP3   OH274602   0.802   5.564  15.462  0.1088  0.4410  0.4951
17704TIP3    H174603   0.857   5.633  15.498  0.2601  1.6415 -1.8827
17704TIP3    H274604   0.717   5.577  15.505  0.4476  1.3985  0.9108
17705TIP3   OH274605   4.579   5.756   2.726  0.8891  0.0313  0.1699
17705TIP3    H174606   4.630   5.836   2.711 -1.9913  1.7381 -1.3513
17705TIP3    H274607   4.580   5.711   2.642  0.1706 -0.0387  0.1891
17706TIP3   OH274608   6.743   3.486   5.129 -0.2187 -0.0378  0.7511
17706TIP3    H174609   6.719   3.545   5.201 -0.7176  0.6629  0.0376
17706TIP3    H274610   6.665   3.433   5.115  0.7871 -2.1396  2.5343
17707TIP3   OH274611   0.260   0.895   0.837  0.0512  0.2641 -0.3149
17707TIP3    H174612   0.167   0.873   0.833  0.2131 -0.5335  0.0803
17707TIP3    H274613   0.275   0.951   0.761 -0.5988 -0.1787 -0.7790
17708TIP3   OH274614   4.928   1.068   2.561  0.1762  0.3600  0.1682
17708TIP3    H174615   4.909   1.011   2.486 -0.6286 -0.7252  1.1624
17708TIP3    H274616   5.023   1.064   2.570  0.2816  0.4522 -0.7424
17709TIP3   OH274617   0.899   5.698  16.435 -0.0910  0.1912  0.0955
17709TIP3    H174618   0.875   5.617  16.390 -1.2660  0.4934  0.1400
17709TIP3    H274619   0.836   5.763  16.403  1.0892  1.1977 -0.2448
17710TIP3   OH274620   1.285   2.829  12.820  0.5008 -0.3059  0.0592
17710TIP3    H174621   1.245   2.885  12.886 -0.3702 -2.4799  1.4945
17710TIP3    H274622   1.214   2.810  12.758  0.8822  0.4121 -0.6127
17711TIP3   OH274623   2.696   5.389   4.500  0.2024  0.0426 -0.8498
17711TIP3    H174624   2.629   5.429   4.445  0.1419  1.4565  0.1930
17711TIP3    H274625   2.770   5.449   4.497  0.9860 -0.8953 -1.0143
17712TIP3   OH274626   4.125   5.475   5.606  0.5552  0.1878  0.2141
17712TIP3    H174627   4.161   5.396   5.567 -2.2294 -1.2848  0.3707
17712TIP3    H274628   4.108   5.533   5.532  0.1003 -0.4803 -0.2130
17713TIP3   OH274629   1.889   3.795   6.684 -0.3598 -0.7680  0.2838
17713TIP3    H174630   1.908   3.881   6.722  1.0359 -1.5953  1.5393
17713TIP3    H274631   1.795   3.782   6.701 -0.2568 -0.1405  1.4290
17714TIP3   OH274632   3.911   3.139  12.559  0.3530  0.4281  0.4726
17714TIP3    H174633   3.908   3.045  12.541 -0.3642  0.7880 -1.4999
17714TIP3    H274634   3.979   3.148  12.626  0.7798 -1.4340  0.3421
17715TIP3   OH274635   1.582   1.080   2.722  0.2057  0.1630  0.1690
17715TIP3    H174636   1.618   1.152   2.774  0.7183 -0.0016  0.0527
17715TIP3    H274637   1.514   1.042   2.777  0.3113  0.3909  0.4612
17716TIP3   OH274638   4.723   0.145  13.347 -0.4578  0.1016 -0.4200
17716TIP3    H174639   4.692   0.208  13.283  0.2129 -0.0457 -0.9048
17716TIP3    H274640   4.650   0.084  13.359 -2.4788  2.7806  2.5961
17717TIP3   OH274641   6.488   2.781   6.198 -0.1002  0.2672 -0.4776
17717TIP3    H174642   6.414   2.775   6.138 -0.4590  1.0607 -0.1297
17717TIP3    H274643   6.493   2.695   6.239 -2.3102  0.8557  1.1894
17718TIP3   OH274644   1.210   2.639   4.877 -0.2753 -0.5232 -0.3148
17718TIP3    H174645   1.169   2.560   4.911  0.4688 -0.2569  1.2829
17718TIP3    H274646   1.288   2.651   4.931 -0.3870  1.3124 -0.4881
17719TIP3   OH274647   4.071   2.782  10.597  0.0445  0.6699  0.2276
17719TIP3    H174648   4.103   2.719  10.532 -2.1179 -0.2881  0.0240
17719TIP3    H274649   4.138   2.851  10.597  0.8075  0.0370 -2.0157
17720TIP3   OH274650   1.051   3.774  17.116  0.2590  0.1403 -0.2625
17720TIP3    H174651   1.024   3.864  17.096 -0.9239 -0.2149 -0.3425
17720TIP3    H274652   1.135   3.784  17.162 -0.3036  1.3422  0.5530
17721TIP3   OH274653   6.784   1.719  13.128  0.2917  0.1639 -0.4776
17721TIP3    H174654   6.736   1.652  13.177  0.0216  0.8426  0.2112
17721TIP3    H274655   6.824   1.773  13.196 -0.7598  1.6090 -0.9711
17722TIP3   OH274656   4.090   2.967  11.403 -0.0690  0.0074  0.9601
17722TIP3    H174657   4.000   2.987  11.429  0.3647  0.4096  2.2089
17722TIP3    H274658   4.143   2.984  11.481  1.0710 -0.4489  0.3224
17723TIP3   OH274659   4.613   3.448   1.758 -0.1624 -0.7105 -0.0389
17723TIP3    H174660   4.647   3.506   1.690  1.4549  0.4334  1.6401
17723TIP3    H274661   4.588   3.507   1.830  0.9549 -2.0111  1.4966
17724TIP3   OH274662   4.287   6.352   2.851 -0.1018  0.6458 -0.0003
17724TIP3    H174663   4.244   6.317   2.929 -1.2796  1.9532 -0.0191
17724TIP3    H274664   4.340   6.425   2.883  1.4756 -0.3922 -0.1097
17725TIP3   OH274665   3.461   3.717  12.131 -0.0979  0.2605  0.1211
17725TIP3    H174666   3.524   3.779  12.168 -1.4114  1.0218  1.1786
17725TIP3    H274667   3.482   3.634  12.172  2.1844 -0.2814 -1.8790
17726TIP3   OH274668   1.111   4.286  11.804 -0.4509  0.8597 -0.0719
17726TIP3    H174669   1.019   4.282  11.831 -1.1095 -0.3763 -2.2268
17726TIP3    H274670   1.111   4.247  11.716  2.2081  0.4624  0.0503
17727TIP3   OH274671   3.625   4.576  12.208 -0.3551 -0.1666  0.1735
17727TIP3    H174672   3.583   4.660  12.188  1.0745  0.3333 -0.8828
17727TIP3    H274673   3.700   4.598  12.261 -0.5297 -0.8989  0.7433
17728TIP3   OH274674   1.815   2.831  15.823 -0.3636  0.5757  0.2112
17728TIP3    H174675   1.737   2.867  15.781 -1.5483 -1.7048  0.3291
17728TIP3    H274676   1.782   2.767  15.886  1.6139 -1.5028 -0.7014
17729TIP3   OH274677   2.615   6.186  12.537  0.1976  0.1281 -0.3302
17729TIP3    H174678   2.689   6.197  12.477 -0.7799  0.4223 -1.5255
17729TIP3    H274679   2.649   6.128  12.606  1.5543  0.3230 -0.7958
17730TIP3   OH274680   3.079   1.553  12.454 -0.4178  0.3119 -0.3309
17730TIP3    H174681   3.131   1.532  12.377  0.0963  1.0793 -0.2049
17730TIP3    H274682   3.066   1.469  12.498  1.7585  0.2433  0.2676
17731TIP3   OH274683   2.871   4.207   4.313  0.6282  0.1029 -0.4587
17731TIP3    H174684   2.923   4.243   4.386 -0.9198  1.7546 -0.1121
17731TIP3    H274685   2.793   4.263   4.309 -0.7978 -1.8556 -1.4252
17732TIP3   OH274686   5.583   0.700  14.650 -0.4131  0.1263  0.7872
17732TIP3    H174687   5.653   0.707  14.715 -1.8047  0.8468  2.2780
17732TIP3    H274688   5.545   0.788  14.646 -0.7568 -0.0552 -0.5698
17733TIP3   OH274689   5.853   4.857  15.231 -0.4482  0.2403 -0.4502
17733TIP3    H174690   5.846   4.810  15.314  0.4226 -1.0383 -1.0701
17733TIP3    H274691   5.779   4.826  15.179 -0.2161  0.0184 -0.6466
17734TIP3   OH274692   5.432   2.116  15.963 -0.2879  0.5495 -0.1939
17734TIP3    H174693   5.386   2.075  15.889  0.5624  1.6363 -1.3717
17734TIP3    H274694   5.371   2.182  15.995  0.6535  2.5583 -2.2772
17735TIP3   OH274695   2.245   3.993  11.956  0.0444  0.4569  0.3657
17735TIP3    H174696   2.160   3.994  11.999  1.3340  0.8533  3.0855
17735TIP3    H274697   2.281   4.081  11.970  0.4327  0.7347 -1.8897
17736TIP3   OH274698   0.310   2.258  13.490 -0.1388  0.6409  0.4768
17736TIP3    H174699   0.221   2.281  13.464 -0.5138 -1.9286 -0.7539
17736TIP3    H274700   0.303   2.172  13.530  1.6979  0.7868  1.2521
17737TIP3   OH274701   0.349   0.623  13.621  0.0732 -0.1563 -0.1142
17737TIP3    H174702   0.289   0.580  13.682  1.4536 -1.0413  0.6759
17737TIP3    H274703   0.304   0.618  13.537 -1.7184  0.7786  0.7255
17738TIP3   OH274704   3.770   5.754  16.281  0.1249 -0.2438 -0.1571
17738TIP3    H174705   3.825   5.676  16.272  0.5335  0.0698 -0.3432
17738TIP3    H274706   3.693   5.734  16.227  0.7272 -0.0612 -1.1013
17739TIP3   OH274707   1.075   5.053   4.127 -0.2691  0.4624 -0.1794
17739TIP3    H174708   1.153   5.000   4.114 -0.4281 -0.0720  0.9066
17739TIP3    H274709   1.004   4.989   4.133 -0.6653  0.8879 -0.2944
17740TIP3   OH274710   2.659   1.914  15.927 -0.4606  0.1570 -0.3353
17740TIP3    H174711   2.711   1.993  15.916 -1.7637  1.2639  1.0251
17740TIP3    H274712   2.639   1.911  16.021 -0.0276 -2.0735 -0.2545
17741TIP3   OH274713   3.509   1.689   1.921  0.0515 -0.0997 -0.4552
17741TIP3    H174714   3.496   1.609   1.871  3.5456 -1.4238  0.4417
17741TIP3    H274715   3.591   1.725   1.889  1.5901 -0.1127  3.0054
17742TIP3   OH274716   5.070   0.546   0.505  0.0800  0.1190 -0.4204
17742TIP3    H174717   5.026   0.626   0.534  0.7813 -0.1399  1.4692
17742TIP3    H274718   5.013   0.475   0.535  1.1366 -0.1733  1.0374
17743TIP3   OH274719   3.952   5.579  16.532  0.2934 -0.3018  0.2752
17743TIP3    H174720   3.913   5.638  16.597  0.3181 -1.3899  1.3153
17743TIP3    H274721   4.020   5.630  16.490 -0.8078  0.9465 -0.0517
17744TIP3   OH274722   0.552   2.714  15.218 -0.1718 -0.1317 -0.3379
17744TIP3    H174723   0.458   2.721  15.204 -0.1178 -0.2346 -0.7965
17744TIP3    H274724   0.577   2.795  15.261 -0.8521 -1.1154  2.0367
17745TIP3   OH274725   2.788   2.474  14.259  0.0338  0.5563 -0.3657
17745TIP3    H174726   2.747   2.549  14.300 -1.6812 -0.9535  0.8447
17745TIP3    H274727   2.807   2.502  14.170 -0.0731  2.5571  0.2106
17746TIP3   OH274728   5.242   5.528   2.274 -0.6588  0.5291 -0.1188
17746TIP3    H174729   5.278   5.564   2.192  0.1532 -0.5964 -0.2908
17746TIP3    H274730   5.152   5.505   2.252 -0.4385  0.2056 -0.7314
17747TIP3   OH274731   3.180   4.019   3.780  0.4380 -0.1196  0.2280
17747TIP3    H174732   3.100   3.968   3.771 -0.9423  1.9744 -0.0799
17747TIP3    H274733   3.228   4.004   3.698 -0.3768 -0.2407 -0.2348
17748TIP3   OH274734   1.444   2.836   2.496 -0.2309  0.6778  0.5042
17748TIP3    H174735   1.382   2.827   2.424 -0.5631  0.5083  0.8052
17748TIP3    H274736   1.512   2.894   2.463  2.0604 -2.8378 -1.5814
17749TIP3   OH274737   2.736   2.628   2.607  0.2576 -0.0474 -0.4109
17749TIP3    H174738   2.816   2.607   2.654  0.8674  2.2349 -0.3101
17749TIP3    H274739   2.758   2.617   2.514  0.0453 -1.3705 -0.3198
17750TIP3   OH274740   6.210   0.418  11.603  0.3229  0.0466  0.2137
17750TIP3    H174741   6.189   0.337  11.556  0.4167  0.6381 -0.8938
17750TIP3    H274742   6.240   0.389  11.689  1.7601 -1.1808 -0.6551
17751TIP3   OH274743   2.917   4.231  11.275 -0.1513 -1.2486 -0.1738
17751TIP3    H174744   2.989   4.242  11.213 -1.3226 -1.2911 -1.5821
17751TIP3    H274745   2.838   4.231  11.221 -1.3980  0.7312  1.4934
17752TIP3   OH274746   6.210   3.001  16.193 -0.0676  0.4336 -0.5119
17752TIP3    H174747   6.233   2.999  16.100 -0.9021 -1.3219 -0.7265
17752TIP3    H274748   6.188   2.910  16.214  1.6143  0.4847  1.8201
17753TIP3   OH274749   4.187   4.380  13.924  0.0969  0.1210  0.3421
17753TIP3    H174750   4.198   4.290  13.953 -1.0663  0.1936  1.0826
17753TIP3    H274751   4.264   4.398  13.870  2.2214 -0.1212  3.1037
17754TIP3   OH274752   0.376   6.799   2.427 -0.2119  0.1321  0.1780
17754TIP3    H174753   0.374   6.843   2.342  1.5085  1.3132  0.6789
17754TIP3    H274754   0.302   6.835   2.475 -0.4428  0.4156 -0.3873
17755TIP3   OH274755   0.203   5.788  14.997  0.3926  0.1847  0.6246
17755TIP3    H174756   0.174   5.699  14.977 -1.5805  1.1682 -1.2412
17755TIP3    H274757   0.178   5.801  15.088  0.3755 -1.0312  0.8132
17756TIP3   OH274758   0.141   4.691  14.266 -0.0934 -0.4421 -0.2563
17756TIP3    H174759   0.097   4.716  14.347 -0.1074  0.0462 -0.4107
17756TIP3    H274760   0.071   4.692  14.200  0.1923  0.6232 -0.5612
17757TIP3   OH274761   2.632   5.906  16.368 -0.0570  0.1220 -0.0910
17757TIP3    H174762   2.696   5.840  16.393  1.4459  1.5966  0.0809
17757TIP3    H274763   2.616   5.890  16.275  2.2356  1.0466 -0.6984
17758TIP3   OH274764   4.808   4.482   4.639  0.6500 -0.1476  0.0915
17758TIP3    H174765   4.877   4.450   4.697  0.5026  1.7647  1.4209
17758TIP3    H274766   4.728   4.441   4.673  0.3974  1.8076  2.0608
17759TIP3   OH274767   1.862   5.328  10.387  0.5834  0.4686  0.5281
17759TIP3    H174768   1.942   5.281  10.411  0.4433 -0.7427 -1.1700
17759TIP3    H274769   1.879   5.358  10.297 -0.6319  0.7465  0.3777
17760TIP3   OH274770   6.027   0.166  11.239  0.0658  0.7932 -0.1042
17760TIP3    H174771   6.019   0.096  11.174 -0.3014 -0.2490  1.0050
17760TIP3    H274772   6.120   0.170  11.259  0.1392  0.8954 -0.4754
17761TIP3   OH274773   2.277   3.166  12.541 -0.0195  0.2742 -0.1231
17761TIP3    H174774   2.186   3.195  12.546 -0.4511 -1.0014 -0.3196
17761TIP3    H274775   2.292   3.147  12.449  0.3180  0.0861 -0.0329
17762TIP3   OH274776   4.187   2.617  11.997  0.5489 -0.1281 -0.0139
17762TIP3    H174777   4.133   2.540  12.015 -0.5140  0.0916 -2.0065
17762TIP3    H274778   4.144   2.659  11.922  3.3893  0.1803 -1.5785
17763TIP3   OH274779   5.584   2.511   2.140  0.1898  0.1838 -0.4202
17763TIP3    H174780   5.561   2.426   2.103 -0.7278  0.6411 -0.9394
17763TIP3    H274781   5.537   2.574   2.085  0.5474  0.9994  0.1981
17764TIP3   OH274782   0.325   0.930   5.107 -0.3294  0.6453 -0.6141
17764TIP3    H174783   0.302   0.922   5.199  0.7253 -1.1909 -0.4522
17764TIP3    H274784   0.421   0.926   5.106 -0.2969  1.2521 -1.7540
17765TIP3   OH274785   6.017   0.166  14.313 -0.3503 -0.3338 -0.4924
17765TIP3    H174786   5.944   0.202  14.263 -1.6636 -0.8262  0.9814
17765TIP3    H274787   5.977   0.099  14.368  1.4443 -1.5058 -0.5622
17766TIP3   OH274788   0.329   4.290   2.344 -0.0213 -0.0873  0.0620
17766TIP3    H174789   0.244   4.279   2.386  0.0017  0.0512  0.1468
17766TIP3    H274790   0.353   4.381   2.363 -0.0445 -0.0018 -0.3132
17767TIP3   OH274791   1.245   2.078   5.354 -0.0802  0.3216 -0.4168
17767TIP3    H174792   1.282   2.086   5.442  0.1631  1.2721 -0.5951
17767TIP3    H274793   1.318   2.100   5.296 -0.6801  1.4161 -0.7935
17768TIP3   OH274794   0.097   4.865  13.936 -0.2853  0.1226 -0.2792
17768TIP3    H174795   0.018   4.826  13.898  0.3481 -0.1118 -1.4060
17768TIP3    H274796   0.065   4.943  13.983 -1.0930  0.5837 -1.5385
17769TIP3   OH274797   1.046   4.101   5.558 -0.3304  0.1250  0.3456
17769TIP3    H174798   0.998   4.148   5.490  1.0408 -0.1243 -0.8433
17769TIP3    H274799   1.014   4.011   5.552 -0.7322  0.2563  0.5227
17770TIP3   OH274800   1.713   3.479  11.669  0.0122 -0.0930  0.0421
17770TIP3    H174801   1.693   3.454  11.579 -3.1389 -0.1217  0.6531
17770TIP3    H274802   1.752   3.400  11.707  0.1768 -0.4918 -0.9177
17771TIP3   OH274803   2.424   6.496   0.638  0.1664  0.1106  0.2210
17771TIP3    H174804   2.461   6.583   0.653 -2.2875  1.5359 -1.2856
17771TIP3    H274805   2.348   6.511   0.582 -1.7672 -2.7428  1.7884
17772TIP3   OH274806   2.555   1.898   5.680  0.0464 -0.5065 -0.4883
17772TIP3    H174807   2.500   1.875   5.755  0.8215 -1.2651 -0.1257
17772TIP3    H274808   2.621   1.957   5.717  1.3980 -2.1320 -0.1783
17773TIP3   OH274809   5.212   2.612   5.356 -0.5508  0.1320  0.2674
17773TIP3    H174810   5.162   2.628   5.436  1.0889  1.6016  1.0656
17773TIP3    H274811   5.304   2.614   5.385  0.0612 -2.8482 -1.0491
17774TIP3   OH274812   5.955   0.271  15.552  0.2425 -0.0503  0.4760
17774TIP3    H174813   5.933   0.178  15.542  0.4056 -0.0907  0.4796
17774TIP3    H274814   5.934   0.291  15.643  0.5575 -0.1808  0.5781
17775TIP3   OH274815   4.392   0.466  15.750  0.3048  0.2521  0.0566
17775TIP3    H174816   4.404   0.398  15.817 -0.3768  1.1130  1.1049
17775TIP3    H274817   4.480   0.493  15.727  0.5813 -0.7863 -0.1815
17776TIP3   OH274818   2.502   1.122  11.982 -0.0485 -0.1834 -0.1399
17776TIP3    H174819   2.517   1.183  12.054  0.6411 -1.2448  0.6502
17776TIP3    H274820   2.499   1.177  11.904  1.4123  0.7846  0.4503
17777TIP3   OH274821   3.534   4.149  11.828  0.3510  0.3473 -0.3077
17777TIP3    H174822   3.613   4.133  11.775 -1.0028 -1.0231 -2.0584
17777TIP3    H274823   3.478   4.202  11.771  0.0307  1.4565  0.9836
17778TIP3   OH274824   3.730   0.196   1.169  0.9663 -0.3466 -0.6511
17778TIP3    H174825   3.748   0.102   1.172 -0.3918 -0.6197  0.1774
17778TIP3    H274826   3.636   0.202   1.187  1.3223  1.2636  0.9884
17779TIP3   OH274827   3.283   2.578  11.654 -0.2837 -0.4311  0.1541
17779TIP3    H174828   3.297   2.497  11.705 -0.4191 -0.5977 -0.0718
17779TIP3    H274829   3.203   2.561  11.604 -0.0857 -0.3127 -0.2066
17780TIP3   OH274830   1.226   1.963  15.665 -0.8835 -0.6583  0.2058
17780TIP3    H174831   1.302   2.010  15.630 -0.8668 -0.8885 -0.0690
17780TIP3    H274832   1.155   2.027  15.662 -0.5252 -0.1972  1.1891
17781TIP3   OH274833   5.289   3.877   1.053 -0.1332  0.5903  0.7026
17781TIP3    H174834   5.218   3.931   1.017  0.8132  1.7045  0.4331
17781TIP3    H274835   5.327   3.834   0.977  0.2680  0.9852  0.6723
17782TIP3   OH274836   2.724   2.746   5.072 -0.1818 -0.0352 -0.2811
17782TIP3    H174837   2.661   2.814   5.047 -0.6537 -0.3048  0.1522
17782TIP3    H274838   2.702   2.725   5.162  0.9779  0.3518  0.1133
17783TIP3   OH274839   6.111   0.597  16.672  0.0949  0.3733 -0.3320
17783TIP3    H174840   6.073   0.537  16.607  1.0868  0.8652 -1.3896
17783TIP3    H274841   6.157   0.663  16.620 -0.7472  1.9235  0.8139
17784TIP3   OH274842   5.368   4.334   3.492  0.1076  0.2174  0.6805
17784TIP3    H174843   5.408   4.260   3.446  0.4945 -0.5201  2.1267
17784TIP3    H274844   5.293   4.358   3.439  1.6520  0.7371 -1.3876
17785TIP3   OH274845   5.735   5.345   5.410 -0.2704 -0.1508 -0.2612
17785TIP3    H174846   5.771   5.333   5.323 -1.7629 -2.8576 -0.6223
17785TIP3    H274847   5.645   5.374   5.395 -0.3722 -0.0936  0.4138
17786TIP3   OH274848   6.515   1.079  10.938 -0.1599 -0.3714  0.6443
17786TIP3    H174849   6.541   1.136  10.866 -0.8098 -0.8189  0.0453
17786TIP3    H274850   6.463   1.135  10.996  0.1036 -0.0915  0.6123
17787TIP3   OH274851   3.944   1.398   3.136  0.7331  0.8114 -0.8995
17787TIP3    H174852   3.958   1.357   3.051  1.2610 -1.6026  0.2673
17787TIP3    H274853   4.030   1.431   3.162  1.0622 -0.4223 -0.3710
17788TIP3   OH274854   6.722   4.148   3.696 -0.2064  0.3253  0.5538
17788TIP3    H174855   6.802   4.191   3.726  0.3042  2.5185 -3.3365
17788TIP3    H274856   6.750   4.090   3.626 -1.9033  0.3775 -0.2277
17789TIP3   OH274857   2.703   6.039  11.819  0.1591  0.2382  0.1318
17789TIP3    H174858   2.670   5.961  11.863  0.6635 -0.0077  0.0863
17789TIP3    H274859   2.632   6.067  11.762 -0.7115  0.8637  1.4620
17790TIP3   OH274860   1.809   2.914   5.545  0.0208 -0.1835  0.4845
17790TIP3    H174861   1.905   2.910   5.545  0.0685  0.6452  0.6852
17790TIP3    H274862   1.781   2.834   5.590  0.5677 -1.0911 -0.7304
17791TIP3   OH274863   1.151   0.997  14.645  0.0038 -0.5702  0.7333
17791TIP3    H174864   1.225   1.055  14.666  0.4820 -0.1977 -1.6287
17791TIP3    H274865   1.079   1.028  14.700  1.0436  0.3826  1.6056
17792TIP3   OH274866   1.893   5.112  16.777 -0.3495 -0.1313 -0.1162
17792TIP3    H174867   1.974   5.144  16.818 -0.7247  0.0123  0.5230
17792TIP3    H274868   1.831   5.184  16.787 -0.3203  0.0993 -1.3750
17793TIP3   OH274869   6.409   0.820  10.903 -0.4283 -0.4579 -0.8340
17793TIP3    H174870   6.462   0.891  10.940  1.3299 -2.6775  1.2911
17793TIP3    H274871   6.451   0.799  10.820  1.6400 -1.5860  0.4129
17794TIP3   OH274872   6.389   2.072  12.293 -0.3103  0.0405 -0.3789
17794TIP3    H174873   6.478   2.106  12.281 -0.2531 -0.1512 -0.5057
17794TIP3    H274874   6.390   2.035  12.381 -0.9810  2.2132  0.5973
17795TIP3   OH274875   5.236   2.505  14.793 -0.0512 -0.3677  0.3859
17795TIP3    H174876   5.148   2.537  14.814 -0.3343  0.1101 -1.3909
17795TIP3    H274877   5.273   2.572  14.735  1.2499 -0.8843  0.5833
17796TIP3   OH274878   3.430   3.486   1.934  0.7750  0.6828  0.2005
17796TIP3    H174879   3.501   3.457   1.991  0.7156 -4.2166 -1.6912
17796TIP3    H274880   3.465   3.476   1.846 -1.2658  1.2177 -0.7313
17797TIP3   OH274881   3.032   1.583   2.856  0.9431 -0.1655  0.2734
17797TIP3    H174882   3.065   1.584   2.947  0.8314 -1.0122  0.3287
17797TIP3    H274883   3.110   1.598   2.803  1.1093 -0.2525  0.4890
17798TIP3   OH274884   0.073   0.348   2.644  0.2227  0.3234  0.1097
17798TIP3    H174885   0.037   0.412   2.582 -1.3866 -1.9808 -1.5306
17798TIP3    H274886   0.159   0.326   2.608 -0.4102 -0.4770 -1.0129
17799TIP3   OH274887   6.349   2.730  12.451 -0.4215 -0.4020  0.4669
17799TIP3    H174888   6.366   2.760  12.361  1.9864 -0.9084  0.6991
17799TIP3    H274889   6.370   2.806  12.506  0.7227 -0.8934  0.7361
17800TIP3   OH274890   0.252   1.912   2.181  0.8987  0.0787  0.0885
17800TIP3    H174891   0.177   1.889   2.126  0.1147  0.5023  0.9628
17800TIP3    H274892   0.326   1.915   2.120  0.4054 -1.2954 -0.6319
17801TIP3   OH274893   5.154   1.690  11.660 -0.4365  0.3009 -0.9011
17801TIP3    H174894   5.080   1.740  11.695 -1.4832  0.1311 -2.7576
17801TIP3    H274895   5.147   1.700  11.565  1.1480 -0.8511 -1.1821
17802TIP3   OH274896   3.809   1.699  15.435 -0.3150 -0.0361 -0.1102
17802TIP3    H174897   3.716   1.719  15.423 -0.3343  0.0887  0.2424
17802TIP3    H274898   3.852   1.739  15.359 -0.4077  0.9855  0.3580
17803TIP3   OH274899   3.173   3.829  12.259  0.5030 -0.0487 -0.4195
17803TIP3    H174900   3.193   3.911  12.215 -1.3361  0.9887  0.5795
17803TIP3    H274901   3.238   3.767  12.226  2.2895  1.9269 -0.7780
17804TIP3   OH274902   6.223   1.913  14.215 -0.4776  0.1000 -0.4282
17804TIP3    H174903   6.237   1.979  14.283 -2.3663  0.5225 -0.3910
17804TIP3    H274904   6.150   1.948  14.163 -1.0523 -1.6409 -0.8365
17805TIP3   OH274905   6.777   3.317  12.452 -0.2715 -0.1691 -0.1915
17805TIP3    H174906   6.763   3.223  12.440 -0.6526 -0.5770  2.7102
17805TIP3    H274907   6.690   3.355  12.441 -0.4300 -0.3941  0.2476
17806TIP3   OH274908   1.795   5.330   5.889  0.1141  0.1192  0.3886
17806TIP3    H174909   1.794   5.237   5.864  0.3060 -0.7201  3.1387
17806TIP3    H274910   1.725   5.338   5.954  0.7346  1.6602  0.9046
17807TIP3   OH274911   1.896   4.854   5.259  0.1826  0.2316 -0.0602
17807TIP3    H174912   1.844   4.891   5.189 -0.5391  0.3259  0.5147
17807TIP3    H274913   1.836   4.795   5.305  0.2345  1.2117  1.3067
17808TIP3   OH274914   3.378   3.737   3.268  0.3687  0.1781  0.1958
17808TIP3    H174915   3.459   3.712   3.225 -0.3101 -1.8996  0.0215
17808TIP3    H274916   3.366   3.672   3.337 -1.4862 -0.0166 -0.2491
17809TIP3   OH274917   4.414   1.561   5.825 -0.6889 -0.0076  0.1217
17809TIP3    H174918   4.402   1.601   5.911  2.7944 -2.4220  1.9856
17809TIP3    H274919   4.493   1.603   5.790 -2.7362  1.8726 -2.6967
17810TIP3   OH274920   5.866   6.037  11.898 -0.5505  0.1759  0.0259
17810TIP3    H174921   5.958   6.010  11.894 -0.6623 -0.0703 -1.3429
17810TIP3    H274922   5.841   6.050  11.807 -1.8400  0.3783  0.3893
17811TIP3   OH274923   2.574   4.090   1.038 -0.0157 -0.2269 -0.0846
17811TIP3    H174924   2.556   3.996   1.043  1.5279 -0.5314  0.4502
17811TIP3    H274925   2.556   4.123   1.126  1.1725 -0.3937  0.2429
17812TIP3   OH274926   6.464   3.973  16.188  0.1914 -0.6811 -0.1248
17812TIP3    H174927   6.533   3.978  16.254 -0.1223 -0.9100  0.2245
17812TIP3    H274928   6.400   4.038  16.216  0.0600 -0.7755 -0.2067
17813TIP3   OH274929   1.499   5.944   2.138 -0.0832  0.0192 -0.6330
17813TIP3    H174930   1.533   5.855   2.131 -0.0661  0.1193 -2.0768
17813TIP3    H274931   1.576   5.997   2.159 -0.0924 -0.2951  0.2232
17814TIP3   OH274932   4.896   4.182   1.791  0.0020 -0.3151  0.3373
17814TIP3    H174933   4.930   4.211   1.875  2.8735 -0.1022 -0.7820
17814TIP3    H274934   4.829   4.246   1.769 -1.2523 -0.7191  2.6598
17815TIP3   OH274935   4.617   0.188  14.098 -0.4356  0.3635  0.1535
17815TIP3    H174936   4.650   0.151  14.016 -2.0052  2.0600 -1.3572
17815TIP3    H274937   4.567   0.117  14.138  0.3629 -0.4951 -0.3406
17816TIP3   OH274938   1.177   1.654  16.411  0.7107 -0.5347 -0.4976
17816TIP3    H174939   1.083   1.674  16.408  0.5609 -1.3089 -1.6987
17816TIP3    H274940   1.214   1.704  16.338  1.2114 -0.3264 -0.1015
17817TIP3   OH274941   6.653   2.472   2.821 -0.1026  0.6240 -0.0343
17817TIP3    H174942   6.647   2.384   2.860  1.5841  0.0562 -0.9785
17817TIP3    H274943   6.727   2.467   2.760 -2.0381  1.7423 -2.6642
17818TIP3   OH274944   5.415   3.389   2.200 -0.3831  0.1671 -0.3265
17818TIP3    H174945   5.503   3.360   2.176 -0.2484 -0.4438  0.8337
17818TIP3    H274946   5.360   3.313   2.186 -0.3156 -0.1803  1.1464
17819TIP3   OH274947   5.543   4.044  13.525 -0.2321 -0.1081  0.1199
17819TIP3    H174948   5.492   3.977  13.480 -0.8697  0.0944  0.5171
17819TIP3    H274949   5.489   4.068  13.601  1.4703 -1.5424  1.8878
17820TIP3   OH274950   6.634   1.815   5.451 -0.0735  0.1332 -0.5263
17820TIP3    H174951   6.728   1.811   5.431 -0.2335  0.7406 -1.4466
17820TIP3    H274952   6.615   1.731   5.494  0.9051  0.0443 -0.2532
17821TIP3   OH274953   1.621   5.909   4.662  0.3039  0.0890  0.2567
17821TIP3    H174954   1.627   5.892   4.568  0.7941 -0.1676  0.3340
17821TIP3    H274955   1.660   5.832   4.703  2.7231  1.4113  0.6225
17822TIP3   OH274956   6.011   3.583   3.789  0.4798 -0.4591  0.4260
17822TIP3    H174957   6.041   3.668   3.821 -1.0634 -0.3282  1.6100
17822TIP3    H274958   5.987   3.534   3.868 -0.2542 -1.3811 -0.3365
17823TIP3   OH274959   3.107   3.465  16.563  0.8672  0.5058 -0.4894
17823TIP3    H174960   3.149   3.468  16.477 -0.7875  1.4896 -1.3205
17823TIP3    H274961   3.130   3.549  16.603  0.9248  0.4043 -0.3053
17824TIP3   OH274962   4.792   4.901  12.163 -0.1441 -0.0884  0.1738
17824TIP3    H174963   4.799   4.899  12.259  0.5676  1.2245  0.1625
17824TIP3    H274964   4.827   4.986  12.138  0.8436 -0.9003 -1.3504
17825TIP3   OH274965   2.158   2.004   3.030 -0.4816  0.2661  0.3159
17825TIP3    H174966   2.130   1.913   3.016 -1.7604  0.6929 -0.0105
17825TIP3    H274967   2.104   2.036   3.102 -0.5916  1.0114 -0.0882
17826TIP3   OH274968   6.058   2.556   0.549 -0.6230  0.0166 -0.2770
17826TIP3    H174969   6.136   2.508   0.521  0.2765  1.0055  0.4636
17826TIP3    H274970   6.048   2.534   0.641 -0.7161  0.5387 -0.1575
17827TIP3   OH274971   6.728   3.948  11.376 -0.2118 -0.4096 -0.4014
17827TIP3    H174972   6.808   3.897  11.364 -0.2493 -0.9273  1.2283
17827TIP3    H274973   6.657   3.883  11.373 -0.3874 -0.2537  0.1123
17828TIP3   OH274974   1.244   3.178   1.105  0.1399  0.2643  0.1944
17828TIP3    H174975   1.177   3.216   1.162 -0.3197 -0.1076 -0.1004
17828TIP3    H274976   1.196   3.145   1.030  0.5298 -0.9665  0.4743
17829TIP3   OH274977   6.562   6.370   1.079 -0.2470 -0.0618 -0.1816
17829TIP3    H174978   6.487   6.360   1.137  0.3353  0.1297  0.6133
17829TIP3    H274979   6.548   6.304   1.011 -1.0951 -0.0764 -0.0105
17830TIP3   OH274980   2.150   6.707   2.788 -0.4362 -0.1803 -0.0519
17830TIP3    H174981   2.109   6.748   2.712 -1.0547 -1.6439 -0.5315
17830TIP3    H274982   2.099   6.740   2.862 -0.6300  0.2764 -0.3834
17831TIP3   OH274983   4.474   0.396   1.721 -0.0347 -0.1058  0.1140
17831TIP3    H174984   4.491   0.316   1.672 -0.1099  0.0440 -0.1592
17831TIP3    H274985   4.483   0.371   1.813  1.6172 -0.0513 -0.0007
17832TIP3   OH274986   6.300   6.184  12.812 -0.7383  0.0313 -0.3780
17832TIP3    H174987   6.352   6.263  12.821  0.7022 -0.6114 -2.4622
17832TIP3    H274988   6.234   6.205  12.746 -1.3359 -0.0489  0.1820
17833TIP3   OH274989   5.975   1.504  16.944 -0.1948  0.8530  0.3080
17833TIP3    H174990   5.941   1.484  17.031  0.4609  0.3059  0.4519
17833TIP3    H274991   6.037   1.576  16.958  0.1231  0.5760  0.3439
17834TIP3   OH274992   3.249   3.950   1.830  0.1495 -0.5228  0.3702
17834TIP3    H174993   3.190   3.993   1.768  1.1448 -2.2710 -1.9516
17834TIP3    H274994   3.268   4.017   1.895  0.7110  2.2183 -2.3451
17835TIP3   OH274995   4.179   5.643  13.458 -0.1118  0.1850  0.0929
17835TIP3    H174996   4.145   5.632  13.369  0.9532  1.0564 -0.4336
17835TIP3    H274997   4.102   5.668  13.510 -1.2363 -2.5066 -0.0581
17836TIP3   OH274998   3.435   4.907  14.773 -0.0489  0.5882  0.5976
17836TIP3    H174999   3.457   4.909  14.866  0.4025  1.0390  0.4849
17836TIP3    H275000   3.404   4.995  14.753  2.2431  1.2892 -0.2237
17837TIP3   OH275001   1.350   6.185   1.156  0.7226  0.1467 -0.2897
17837TIP3    H175002   1.352   6.158   1.064 -2.7169  0.5828 -0.6113
17837TIP3    H275003   1.399   6.116   1.202 -0.4361 -2.0113 -2.0854
17838TIP3   OH275004   2.052   1.517   3.662  0.5621 -0.5979 -0.0654
17838TIP3    H175005   1.987   1.586   3.673  0.3644 -0.4821 -1.6586
17838TIP3    H275006   2.136   1.563   3.661  0.5755 -0.6005  0.7170
17839TIP3   OH275007   0.244   3.002   2.666  0.8074 -0.3392  0.2525
17839TIP3    H175008   0.297   2.932   2.629 -0.7672 -1.7226  0.5070
17839TIP3    H275009   0.156   2.965   2.673  0.0073  1.5330  0.7769
17840TIP3   OH275010   1.858   5.855   0.674  0.3483 -0.3377 -0.3875
17840TIP3    H175011   1.824   5.926   0.728 -0.1681  0.0399 -1.1834
17840TIP3    H275012   1.938   5.891   0.635  1.0002 -0.7860  0.5013
17841TIP3   OH275013   5.342   1.381  14.577 -0.4405  0.8884 -0.0551
17841TIP3    H175014   5.303   1.416  14.497 -0.5178  1.5040  0.2445
17841TIP3    H275015   5.405   1.448  14.605  1.1027 -0.2366 -0.7069
17842TIP3   OH275016   0.298   3.033  15.112  0.1628 -0.2537 -0.5498
17842TIP3    H175017   0.315   2.939  15.121  0.2428 -0.1188  1.1606
17842TIP3    H275018   0.222   3.049  15.168 -0.1532  0.6218 -1.2128
17843TIP3   OH275019   1.588   5.425  12.985 -0.0549  0.2404 -0.6348
17843TIP3    H175020   1.669   5.472  13.008  0.5793 -0.0089 -2.2235
17843TIP3    H275021   1.561   5.465  12.902 -0.9813 -0.3985 -0.6460
17844TIP3   OH275022   3.288   1.139  16.141 -0.1373 -0.3443 -0.2029
17844TIP3    H175023   3.194   1.154  16.141 -0.1447 -0.3808  0.0359
17844TIP3    H275024   3.327   1.225  16.154 -0.1654 -0.4459  0.6227
17845TIP3   OH275025   3.936   3.983  12.945  0.1454 -0.1674 -0.7090
17845TIP3    H175026   3.949   4.071  12.909  0.6273  1.2429  2.5218
17845TIP3    H275027   4.023   3.954  12.972 -0.4030 -0.0916  1.3238
17846TIP3   OH275028   3.435   1.274  12.950 -0.2679 -0.2434 -0.5782
17846TIP3    H175029   3.369   1.290  12.883  0.3813 -2.8519 -1.9484
17846TIP3    H275030   3.392   1.217  13.014 -0.5645  1.4162  0.7982
17847TIP3   OH275031   1.985   4.051   4.429  0.3959 -0.0854  0.4766
17847TIP3    H175032   1.956   3.969   4.471  2.0822 -0.9676  0.0330
17847TIP3    H275033   2.016   4.105   4.501  0.4428 -0.3534  0.6584
17848TIP3   OH275034   3.539   4.255   4.412 -0.0076 -0.3138  0.4686
17848TIP3    H175035   3.544   4.213   4.326  1.2668  1.4553 -0.3891
17848TIP3    H275036   3.630   4.270   4.436 -0.3741  2.1512  0.5722
17849TIP3   OH275037   5.947   6.226   1.988 -0.3820  0.2271 -0.2316
17849TIP3    H175038   5.979   6.223   1.898  0.5844 -3.2062  0.0525
17849TIP3    H275039   6.024   6.246   2.041 -0.1108 -1.2678 -0.0037
17850TIP3   OH275040   3.804   5.527   5.805  0.5843 -0.6291 -0.4380
17850TIP3    H175041   3.894   5.553   5.782  0.5032  0.9887  0.8861
17850TIP3    H275042   3.779   5.586   5.875 -1.0580 -1.9427  0.1594
17851TIP3   OH275043   2.917   2.221   3.149  0.1647  0.0312 -0.3349
17851TIP3    H175044   2.897   2.128   3.156  0.5592 -0.1805 -1.6162
17851TIP3    H275045   2.866   2.251   3.074 -0.3015  0.9615  0.3376
17852TIP3   OH275046   3.734   6.241  14.174  0.2887 -0.3394  0.5319
17852TIP3    H175047   3.687   6.185  14.235 -0.7457 -1.4734 -1.2009
17852TIP3    H275048   3.672   6.311  14.152  0.6918  0.1240  0.8388
17853TIP3   OH275049   5.260   1.144   4.169  0.5517 -0.3286 -0.5143
17853TIP3    H175050   5.204   1.134   4.247  3.1203 -1.2745  1.3694
17853TIP3    H275051   5.289   1.235   4.172 -1.2156  0.3336 -1.8274
17854TIP3   OH275052   0.135   5.752   3.958  0.1343  0.6506 -0.6690
17854TIP3    H175053   0.064   5.696   3.927 -1.0203 -0.0127  2.7795
17854TIP3    H275054   0.092   5.832   3.988  1.1924  1.3447 -0.9347
17855TIP3   OH275055   2.858   0.395   2.163  0.6962  0.4792 -0.0324
17855TIP3    H175056   2.864   0.313   2.212  0.7509  0.3770 -0.2076
17855TIP3    H275057   2.805   0.452   2.217  0.8503  0.4051  0.1993
17856TIP3   OH275058   5.215   0.606  16.425 -0.5080  0.5990 -0.0490
17856TIP3    H175059   5.201   0.544  16.497 -2.3011  0.2809 -0.6311
17856TIP3    H275060   5.198   0.691  16.464  0.4533  0.6194  0.3651
17857TIP3   OH275061   4.604   2.056  13.142  0.3404  0.0364 -0.7621
17857TIP3    H175062   4.569   1.972  13.171  2.8270 -0.8368 -0.0083
17857TIP3    H275063   4.644   2.094  13.221  1.3937  0.7452 -1.6045
17858TIP3   OH275064   3.401   2.437   0.667 -0.2982  0.2047  0.5356
17858TIP3    H175065   3.349   2.365   0.704  1.8132 -1.9322 -0.4675
17858TIP3    H275066   3.415   2.413   0.576  0.5848  1.8478  0.2015
17859TIP3   OH275067   3.233   5.009   0.990 -0.1081  0.3114  0.1178
17859TIP3    H175068   3.262   5.036   1.077 -0.0618 -1.4228  0.6835
17859TIP3    H275069   3.311   5.015   0.935  0.3316 -0.4019  0.6541
17860TIP3   OH275070   6.473   4.730   0.460 -0.2997 -1.1651 -0.1323
17860TIP3    H175071   6.400   4.731   0.399 -0.0399 -1.9603 -0.4758
17860TIP3    H275072   6.472   4.816   0.501 -0.1699 -0.4293 -1.6197
17861TIP3   OH275073   5.797   6.190   3.228  0.1167  0.0273 -0.5063
17861TIP3    H175074   5.711   6.211   3.264  1.0821  0.4722  1.7269
17861TIP3    H275075   5.824   6.111   3.274  1.2801  0.4213 -0.4788
17862TIP3   OH275076   3.673   2.189  15.140 -0.1333 -0.1551  0.1397
17862TIP3    H175077   3.585   2.155  15.121  0.5664 -2.2677  0.3836
17862TIP3    H275078   3.703   2.137  15.215  2.7708 -2.3351 -2.2487
17863TIP3   OH275079   4.248   5.843  11.990  0.0998 -0.8857  0.0626
17863TIP3    H175080   4.246   5.918  12.050 -0.0639 -0.1040 -0.8980
17863TIP3    H275081   4.340   5.830  11.970  0.3827 -2.4751  2.0599
17864TIP3   OH275082   0.655   4.629   2.383  0.1594 -0.2286  0.3038
17864TIP3    H175083   0.622   4.701   2.329 -2.4853 -1.3824  0.2190
17864TIP3    H275084   0.700   4.571   2.322 -0.3660 -0.1297 -0.1824
17865TIP3   OH275085   1.235   1.028   1.327 -0.2047 -0.0511 -0.3236
17865TIP3    H175086   1.305   0.978   1.286  0.2669  0.2907  0.0554
17865TIP3    H275087   1.155   0.995   1.286  0.2309  0.1222 -1.3471
17866TIP3   OH275088   3.608   6.385  16.623  0.1868  0.3469 -0.1289
17866TIP3    H175089   3.590   6.435  16.543 -0.4418  1.0584  0.4490
17866TIP3    H275090   3.534   6.325  16.631  1.5991 -1.7437 -1.5825
17867TIP3   OH275091   4.251   6.020   4.964 -0.0079  0.1863  0.3641
17867TIP3    H175092   4.267   6.104   5.008 -0.3730  1.0144 -0.9988
17867TIP3    H275093   4.166   5.991   4.996 -1.9375  2.4849 -2.1684
17868TIP3   OH275094   3.029   6.635   0.957 -0.1212 -0.4562  0.0612
17868TIP3    H175095   3.077   6.717   0.957 -0.3393 -0.3293  0.1729
17868TIP3    H275096   3.028   6.607   1.049 -1.0554  0.0053  0.1981
17869TIP3   OH275097   4.115   2.409  16.389  0.4639  0.4665 -0.0515
17869TIP3    H175098   4.199   2.364  16.398 -0.1850 -1.5138 -2.5891
17869TIP3    H275099   4.138   2.495  16.354  1.5506  1.0845  2.0239
17870TIP3   OH275100   2.275   0.763   6.030  0.1880  0.3722 -0.1037
17870TIP3    H175101   2.348   0.702   6.034 -0.5127 -0.6505 -1.7132
17870TIP3    H275102   2.295   0.829   6.096  1.5609 -0.9518  0.8733
17871TIP3   OH275103   2.203   3.088   5.358  0.4314  0.3799  0.7421
17871TIP3    H175104   2.184   3.128   5.273  0.1264 -0.2477  0.5078
17871TIP3    H275105   2.264   3.149   5.400  2.0387 -0.1710 -0.6643
17872TIP3   OH275106   6.102   6.493  16.187  0.3724  0.3333  0.4440
17872TIP3    H175107   6.086   6.427  16.119  0.3022  0.6312  0.1719
17872TIP3    H275108   6.195   6.516  16.177 -0.4291  3.0212 -1.9513
17873TIP3   OH275109   2.115   6.109   1.814 -0.0022 -0.6126 -0.0085
17873TIP3    H175110   2.163   6.095   1.896  1.4753  0.4277 -0.6457
17873TIP3    H275111   2.110   6.022   1.774  0.2214 -0.9475  0.6761
17874TIP3   OH275112   3.782   6.577   2.474 -0.5503 -0.2023 -0.0302
17874TIP3    H175113   3.763   6.502   2.531 -0.9442  0.9461  1.4316
17874TIP3    H275114   3.875   6.569   2.455 -0.1409 -0.0524  1.7097
17875TIP3   OH275115   0.557   5.841  14.423  0.4921 -0.2233  0.3487
17875TIP3    H175116   0.565   5.746  14.429  0.0125 -0.3441 -0.7337
17875TIP3    H275117   0.478   5.855  14.371 -0.0616  0.7872  1.4128
17876TIP3   OH275118   0.056   4.289  12.425  0.6065  0.8139  0.6468
17876TIP3    H175119   0.072   4.196  12.437 -0.3899  0.8004  2.2364
17876TIP3    H275120  -0.027   4.294  12.378  1.8270  0.9297 -1.6353
17877TIP3   OH275121   1.668   0.814   2.953  0.0132  0.2290 -0.0224
17877TIP3    H175122   1.678   0.902   2.989 -0.1912  0.0299  0.5360
17877TIP3    H275123   1.585   0.817   2.904 -0.1104  0.2860  0.1887
17878TIP3   OH275124   4.833   2.402   5.373  0.3002  0.0727 -0.2124
17878TIP3    H175125   4.782   2.415   5.453 -0.0319 -1.4539 -0.1418
17878TIP3    H275126   4.833   2.487   5.330 -0.4333  0.6461  0.8813
17879TIP3   OH275127   3.571   0.771  11.418  0.0925  0.3738 -0.5884
17879TIP3    H175128   3.641   0.828  11.387  0.0661  0.8065  0.1130
17879TIP3    H275129   3.558   0.798  11.509 -0.6538 -0.0335 -0.5699
17880TIP3   OH275130   5.043   2.302   4.537 -0.0571  0.2401 -0.0469
17880TIP3    H175131   4.972   2.267   4.483 -0.7715  2.4039 -0.6214
17880TIP3    H275132   5.031   2.397   4.534  3.1069  0.7406 -0.4580
17881TIP3   OH275133   1.658   1.081  11.037 -0.3316 -0.1553  0.4225
17881TIP3    H175134   1.588   1.074  11.101  1.6853 -0.7881  2.6681
17881TIP3    H275135   1.660   0.996  10.993 -0.0559 -0.6326  1.3537
17882TIP3   OH275136   3.627   3.067   4.986 -0.6331  0.0151 -0.0222
17882TIP3    H175137   3.566   3.110   4.926 -1.7122  0.9450  1.6613
17882TIP3    H275138   3.585   2.983   5.005 -1.8010  0.9123  1.6309
17883TIP3   OH275139   6.422   4.847  11.884 -0.0478 -0.3058  0.1111
17883TIP3    H175140   6.339   4.823  11.844  0.0157 -0.2061 -0.0815
17883TIP3    H275141   6.402   4.853  11.978 -0.4455  0.5012 -0.0176
17884TIP3   OH275142   4.622   1.757  13.086 -0.0590 -0.0174  0.2460
17884TIP3    H175143   4.686   1.804  13.141  0.6067  0.0789 -0.5852
17884TIP3    H275144   4.553   1.821  13.071  0.4654  0.4530 -0.2266
17885TIP3   OH275145   5.430   2.269   5.388  0.1426  0.6794  0.0623
17885TIP3    H175146   5.362   2.286   5.323 -0.0876 -1.3693 -0.2897
17885TIP3    H275147   5.403   2.321   5.464 -1.3031  0.6398 -0.3869
17886TIP3   OH275148   2.418   3.116   4.116 -0.3011 -0.4821  0.0406
17886TIP3    H175149   2.462   3.141   4.035 -0.9648  2.1973  0.4338
17886TIP3    H275150   2.343   3.063   4.088  0.6586 -1.3900 -0.9084
17887TIP3   OH275151   4.607   0.896  12.785  0.4064  0.6948  0.0533
17887TIP3    H175152   4.630   0.804  12.800 -5.0867 -0.7742  1.7616
17887TIP3    H275153   4.621   0.939  12.869 -2.3525 -0.1836  1.0749
17888TIP3   OH275154   3.086   5.240   2.174 -0.4680  0.3497  0.7212
17888TIP3    H175155   3.094   5.331   2.145  0.3298  0.0332 -0.1029
17888TIP3    H275156   2.992   5.225   2.177 -0.6093  0.7040 -0.8143
17889TIP3   OH275157   4.908   4.307   6.107 -0.5047 -0.0969 -0.9031
17889TIP3    H175158   4.867   4.240   6.052  2.6945 -1.0671 -2.2803
17889TIP3    H275159   4.913   4.266   6.194 -0.3227 -0.8932 -1.2768
17890TIP3   OH275160   5.727   6.393  16.062 -0.4876  0.3194  0.2189
17890TIP3    H175161   5.648   6.344  16.039 -1.5771  1.8135  0.6507
17890TIP3    H275162   5.712   6.481  16.027  2.3052 -0.0772 -2.3820
17891TIP3   OH275163   0.819   3.649  11.034  0.1830 -0.0170  0.1535
17891TIP3    H175164   0.810   3.555  11.019 -1.6629  0.1995 -0.3710
17891TIP3    H275165   0.896   3.675  10.983  0.3160 -1.1190 -0.2246
17892TIP3   OH275166   5.177   5.689   0.116  0.0658 -0.3398  0.0834
17892TIP3    H175167   5.224   5.634   0.053 -0.3556 -0.4119 -0.1689
17892TIP3    H275168   5.117   5.741   0.063 -1.0600 -1.1600  0.5166
17893TIP3   OH275169   5.548   0.532   3.427  0.3167 -0.2374  0.1853
17893TIP3    H175170   5.455   0.551   3.418  0.2351 -0.7472 -0.0717
17893TIP3    H275171   5.552   0.439   3.447  0.6656  0.1493  2.1933
17894TIP3   OH275172   5.177   6.038  13.547  0.0489 -0.0919 -0.3974
17894TIP3    H175173   5.147   5.985  13.621  1.5770 -1.4645 -0.6908
17894TIP3    H275174   5.096   6.073  13.508 -1.1086 -2.5724 -0.4245
17895TIP3   OH275175   2.042   1.002  11.870  0.4588 -0.4687 -0.3588
17895TIP3    H175176   2.114   1.016  11.809 -1.0372 -2.6747 -2.8332
17895TIP3    H275177   2.038   0.907  11.882  0.3530 -0.1885  2.9405
17896TIP3   OH275178   0.048   1.801   5.352 -0.2458  0.0900 -0.0934
17896TIP3    H175179   0.063   1.763   5.265 -1.0226 -0.1897 -0.1129
17896TIP3    H275180   0.073   1.893   5.343  0.4877 -0.1262 -0.3784
17897TIP3   OH275181   3.874   3.481   6.035  0.0972  0.0734  0.0427
17897TIP3    H175182   3.874   3.488   5.940  1.0507  0.4284  0.0477
17897TIP3    H275183   3.938   3.412   6.054  0.1110  0.1903  0.4296
17898TIP3   OH275184   4.901   4.847   2.263  0.0902 -0.2828 -0.5678
17898TIP3    H175185   4.868   4.788   2.331 -0.4513  0.2533 -0.3621
17898TIP3    H275186   4.851   4.823   2.185 -0.0435 -0.1715 -0.5151
17899TIP3   OH275187   6.562   1.590  12.175  0.0679  0.5274 -0.1923
17899TIP3    H175188   6.616   1.560  12.103  0.8524 -0.3583  0.7394
17899TIP3    H275189   6.599   1.548  12.253 -3.3233 -2.0874  0.2628
17900TIP3   OH275190   4.828   4.985  14.945  0.4411 -0.4290 -0.0346
17900TIP3    H175191   4.763   4.928  14.988 -2.4713  1.3029 -1.8463
17900TIP3    H275192   4.876   5.024  15.017 -2.6964  0.5976  1.7004
17901TIP3   OH275193   6.340   6.189   1.587 -0.0099 -0.0042  0.0327
17901TIP3    H175194   6.331   6.106   1.540 -1.0366 -0.0981  0.3774
17901TIP3    H275195   6.417   6.177   1.642  0.0251 -0.6172 -0.1421
17902TIP3   OH275196   1.983   3.726   2.413  0.7822  0.5385 -0.4934
17902TIP3    H175197   1.999   3.688   2.499  0.3129 -0.0168 -0.6442
17902TIP3    H275198   1.928   3.802   2.430 -0.0327 -0.0630 -0.3677
17903TIP3   OH275199   6.484   3.805  11.337  0.0062  0.1025 -0.7101
17903TIP3    H175200   6.442   3.891  11.340 -0.8743 -0.2995  2.8636
17903TIP3    H275201   6.418   3.748  11.299 -1.1679  0.2469  1.0271
17904TIP3   OH275202   1.068   4.845  12.454  0.1458 -0.3434 -0.0237
17904TIP3    H175203   1.022   4.902  12.516 -0.1947  1.6027 -1.9536
17904TIP3    H275204   1.161   4.863  12.470  0.0582  0.2114 -0.1127
17905TIP3   OH275205   5.003   3.416  13.630 -0.1637 -0.1699  0.2715
17905TIP3    H175206   4.928   3.443  13.683 -1.4229 -1.3470 -0.8489
17905TIP3    H275207   4.976   3.334  13.589  1.8378 -0.7574  0.0160
17906TIP3   OH275208   0.378   6.349  13.093  0.8938  0.3874 -0.1005
17906TIP3    H175209   0.456   6.400  13.073  0.7496 -0.5489 -3.8958
17906TIP3    H275210   0.306   6.412  13.090  1.2570  0.9414  1.6411
17907TIP3   OH275211   4.641   6.032  12.882 -0.1594  0.4143  0.2874
17907TIP3    H175212   4.703   5.960  12.879 -0.8221 -0.1479 -0.2237
17907TIP3    H275213   4.683   6.103  12.833 -0.0867 -0.0898 -0.3912
17908TIP3   OH275214   6.106   4.844  12.047  0.0924  0.7894  0.1104
17908TIP3    H175215   6.196   4.864  12.075 -0.2963  0.4196  1.7436
17908TIP3    H275216   6.056   4.922  12.072 -0.4193  0.1100  1.2947
17909TIP3   OH275217   4.696   2.624  10.360 -0.1407 -0.0851  0.2723
17909TIP3    H175218   4.713   2.536  10.393 -1.5882 -0.0286  1.2861
17909TIP3    H275219   4.757   2.680  10.408  0.8571 -0.5285 -0.4497
17910TIP3   OH275220   1.897   2.790  11.320  0.5602  0.4832 -0.1139
17910TIP3    H175221   1.811   2.828  11.303 -0.6771 -1.3093  1.6612
17910TIP3    H275222   1.953   2.865  11.340 -0.7145  1.6556 -0.7500
17911TIP3   OH275223   6.265   2.536   0.003 -0.0003 -0.1449 -0.0320
17911TIP3    H175224   6.225   2.611   0.047 -1.2268 -0.0221 -1.2712
17911TIP3    H275225   6.207   2.519  -0.071  0.7400 -1.7694 -0.2795
17912TIP3   OH275226   4.586   3.760  12.512 -1.0868 -0.8267 -0.1665
17912TIP3    H175227   4.581   3.770  12.607 -0.8366 -1.9428 -0.0238
17912TIP3    H275228   4.495   3.747  12.484 -1.1105 -0.9522 -0.0290
17913TIP3   OH275229   3.088   2.997  15.318  0.0432  0.3017  0.0101
17913TIP3    H175230   3.004   3.041  15.306 -0.4570 -0.8612 -0.9937
17913TIP3    H275231   3.066   2.904  15.328  1.2207 -0.1729 -1.3281
17914TIP3   OH275232   1.375   1.201  12.807  0.0791  0.2352  0.2655
17914TIP3    H175233   1.461   1.205  12.849  0.9129 -1.9971 -1.0391
17914TIP3    H275234   1.316   1.170  12.875  0.2804  1.7931  1.1761
17915TIP3   OH275235   5.388   0.925  16.971  0.6638  0.0582 -0.0993
17915TIP3    H175236   5.309   0.941  16.921  0.6128 -0.6087 -0.2436
17915TIP3    H275237   5.389   0.994  17.038 -0.0342  0.0736 -0.0987
17916TIP3   OH275238   3.876   2.993  13.246 -0.5495  0.4529 -0.3855
17916TIP3    H175239   3.939   3.065  13.253 -0.3538  0.3386 -0.9203
17916TIP3    H275240   3.806   3.017  13.306 -0.2685  0.8632 -0.2138
17917TIP3   OH275241   3.869   0.864  12.207 -0.5080 -0.1429 -0.1889
17917TIP3    H175242   3.961   0.886  12.223 -0.0799 -0.8303 -1.5427
17917TIP3    H275243   3.860   0.773  12.238 -0.9575  0.1861  0.6875
17918TIP3   OH275244   3.525   4.663   0.169 -0.1775  0.1830  0.1073
17918TIP3    H175245   3.605   4.622   0.136 -0.4722 -0.7909  0.5722
17918TIP3    H275246   3.469   4.590   0.194 -0.7300  0.8738  0.9478
17919TIP3   OH275247   6.400   5.590   3.674  0.5542 -0.3114  0.2918
17919TIP3    H175248   6.338   5.525   3.641 -1.1960  1.0430  0.7974
17919TIP3    H275249   6.447   5.544   3.744 -0.0247 -1.2942  0.0579
17920TIP3   OH275250   5.916   1.293   0.827 -0.4970 -0.2615 -0.4788
17920TIP3    H175251   6.004   1.266   0.799  0.5228  1.4211  0.8958
17920TIP3    H275252   5.879   1.337   0.751  0.3777  0.1650 -0.6701
17921TIP3   OH275253   2.938   3.317  12.210  0.2699  0.5395  0.1347
17921TIP3    H175254   2.983   3.338  12.128 -1.7661 -1.4021 -1.6085
17921TIP3    H275255   2.945   3.397  12.262  2.0065  1.7104 -1.7322
17922TIP3   OH275256   2.047   3.656   1.941 -0.2980  0.4072 -0.1116
17922TIP3    H175257   2.047   3.643   2.036 -0.7376 -1.2314 -0.3141
17922TIP3    H275258   1.958   3.683   1.921 -0.3173  0.3341 -0.1219
17923TIP3   OH275259   5.694   1.001   3.462  0.3821 -0.5970  0.2056
17923TIP3    H175260   5.717   0.966   3.548  1.5468  2.2323  1.1436
17923TIP3    H275261   5.680   1.094   3.477  4.0010  0.7532 -3.1735
17924TIP3   OH275262   4.432   6.791  14.185 -0.6676 -0.4612 -0.4167
17924TIP3    H175263   4.406   6.708  14.226  0.2171 -1.5397 -1.9497
17924TIP3    H275264   4.375   6.856  14.226 -1.2123 -1.7698  1.0202
17925TIP3   OH275265   1.973   6.690   4.791  0.6217 -0.1976 -0.4805
17925TIP3    H175266   1.913   6.763   4.803  0.0281 -0.4813 -1.5418
17925TIP3    H275267   1.931   6.616   4.836  2.0608  0.4657  2.1273
17926TIP3   OH275268   3.714   1.150   0.730 -0.0886 -0.1222 -0.1720
17926TIP3    H175269   3.732   1.184   0.818 -0.8384 -0.8449  0.2803
17926TIP3    H275270   3.619   1.158   0.721 -0.6582 -3.9275  0.8177
17927TIP3   OH275271   4.672   4.678  15.332 -0.1765  0.2884 -0.7012
17927TIP3    H175272   4.659   4.584  15.314  0.1135 -0.0895  0.8789
17927TIP3    H275273   4.632   4.691  15.418 -1.5216  1.9637 -1.5507
17928TIP3   OH275274   2.434   2.169  11.198 -0.4790  0.5385 -0.1832
17928TIP3    H175275   2.513   2.126  11.164  0.2257  2.1342 -0.7169
17928TIP3    H275276   2.368   2.101  11.200  0.2363 -0.3060 -2.1255
17929TIP3   OH275277   0.984   2.296   4.556  0.0039  0.4604  0.4801
17929TIP3    H175278   1.076   2.284   4.579  0.0808 -0.3308 -0.1735
17929TIP3    H275279   0.979   2.384   4.520  0.7361  0.1380 -0.4714
17930TIP3   OH275280   6.266   6.291   0.518 -0.0298  0.3413 -0.7132
17930TIP3    H175281   6.232   6.214   0.565 -0.6192 -0.0295 -1.7306
17930TIP3    H275282   6.217   6.364   0.554  0.4728  0.2444  0.2043
17931TIP3   OH275283   2.321   0.162   6.181 -0.2699  0.0225  0.5709
17931TIP3    H175284   2.240   0.195   6.144  0.7454  0.3399 -1.4791
17931TIP3    H275285   2.310   0.173   6.276 -2.1492  1.0885  0.2786
17932TIP3   OH275286   6.083   4.224  15.696  0.1508 -0.4950  0.6379
17932TIP3    H175287   6.084   4.234  15.601 -1.5141  0.2139  0.6507
17932TIP3    H275288   6.143   4.291  15.728  0.2600 -0.3387  0.1143
17933TIP3   OH275289   4.703   5.539  12.150  0.1380 -0.1174 -0.0642
17933TIP3    H175290   4.669   5.594  12.221  1.6678  0.0456  0.5825
17933TIP3    H275291   4.748   5.467  12.195  1.5816  0.2622 -0.8353
17934TIP3   OH275292   4.138   6.123   0.510  0.2552 -0.2195 -0.1672
17934TIP3    H175293   4.081   6.075   0.571 -0.2884  1.7217  0.9298
17934TIP3    H275294   4.078   6.166   0.450  0.7593 -1.3183 -1.4937
17935TIP3   OH275295   2.638   0.527   0.736 -0.1625  0.0997 -0.0326
17935TIP3    H175296   2.611   0.616   0.717  0.6650  0.3685 -0.0064
17935TIP3    H275297   2.719   0.515   0.686 -1.1411 -1.2151 -1.4158
17936TIP3   OH275298   6.107   3.977  12.065  0.2117  0.3158 -0.2534
17936TIP3    H175299   6.101   4.019  12.150  2.0002 -0.2593  0.2082
17936TIP3    H275300   6.035   4.014  12.014 -0.3809  1.2816  1.2354
17937TIP3   OH275301   5.417   1.299  11.966 -0.6012  0.5101 -0.1146
17937TIP3    H175302   5.338   1.275  12.014 -0.7803  1.2168 -0.0507
17937TIP3    H275303   5.390   1.371  11.909  0.0811  1.0185  0.1814
17938TIP3   OH275304   6.303   4.485  11.359  0.0951  0.4713  0.0469
17938TIP3    H175305   6.287   4.485  11.453  2.3233  2.2545  0.5113
17938TIP3    H275306   6.246   4.554  11.325  0.8630  1.3201  0.4488
17939TIP3   OH275307   5.311   1.502  11.806  0.4120 -0.0888 -0.6349
17939TIP3    H175308   5.244   1.445  11.767 -0.6691 -0.1664  1.2216
17939TIP3    H275309   5.269   1.587  11.816  0.8316  0.0735 -0.1605
17940TIP3   OH275310   2.619   1.558  14.708  0.7812 -0.9611  0.0100
17940TIP3    H175311   2.568   1.514  14.775  0.4182  1.1815  1.2483
17940TIP3    H275312   2.667   1.627  14.755  0.5078  0.6374 -1.8923
17941TIP3   OH275313   5.307   3.681  15.261 -0.1740  0.9003  0.2724
17941TIP3    H175314   5.249   3.754  15.240 -1.3905  0.3937  1.7149
17941TIP3    H275315   5.358   3.711  15.337 -0.9946  0.1250  1.1548
17942TIP3   OH275316   0.850   4.561  14.797  0.0732 -0.6121 -0.4925
17942TIP3    H175317   0.819   4.652  14.797 -1.4663 -1.1010 -0.5569
17942TIP3    H275318   0.841   4.533  14.706  0.7679 -0.7576 -0.5167
17943TIP3   OH275319   2.788   6.841  16.239 -0.2990 -0.4394 -0.3291
17943TIP3    H175320   2.730   6.897  16.187  0.7887  1.5838  0.5067
17943TIP3    H275321   2.874   6.853  16.198  0.3310  0.1658  1.1214
17944TIP3   OH275322   0.263   0.539   4.150 -0.2216 -0.1727  0.2884
17944TIP3    H175323   0.171   0.536   4.177 -0.3712 -2.2677 -0.2252
17944TIP3    H275324   0.277   0.456   4.105  1.9857  0.0067  0.5164
17945TIP3   OH275325   0.740   0.886   5.555  0.1035 -0.0936  0.0580
17945TIP3    H175326   0.746   0.815   5.491  0.9198 -0.2106  0.2619
17945TIP3    H275327   0.740   0.966   5.503  0.0103 -0.2102 -0.1222
17946TIP3   OH275328   0.833   5.013  14.909  0.3598  0.0947 -0.2391
17946TIP3    H175329   0.895   5.082  14.933 -0.0431  0.9074 -1.4184
17946TIP3    H275330   0.772   5.056  14.849  0.7512 -1.5526 -1.8950
17947TIP3   OH275331   5.208   6.618  15.562 -0.1352  0.1113  0.0306
17947TIP3    H175332   5.274   6.604  15.630  0.1583 -1.4904 -0.5311
17947TIP3    H275333   5.259   6.642  15.485 -0.2727 -0.3221 -0.1961
17948TIP3   OH275334   0.393   1.510   2.950 -0.0348 -0.7027  0.9938
17948TIP3    H175335   0.443   1.444   2.999 -0.2247 -0.6791  1.2231
17948TIP3    H275336   0.415   1.593   2.992  1.3187 -0.4207 -0.1907
17949TIP3   OH275337   2.763   3.781   5.436 -0.2904 -0.0313 -0.1274
17949TIP3    H175338   2.724   3.862   5.467 -1.1619 -1.5686  3.3732
17949TIP3    H275339   2.844   3.807   5.393 -0.8235  2.6895  0.3762
17950TIP3   OH275340   1.201   3.267  16.773 -0.1929 -0.0334 -0.2406
17950TIP3    H175341   1.106   3.276  16.778 -0.3432 -0.3113 -1.9184
17950TIP3    H275342   1.230   3.269  16.864 -1.5288  2.6726  0.2192
17951TIP3   OH275343   2.391   6.306   1.575  0.8422  0.3188 -0.1456
17951TIP3    H175344   2.397   6.366   1.500  0.1106 -0.8622 -1.1820
17951TIP3    H275345   2.297   6.292   1.588  0.9922 -1.6881 -0.8554
17952TIP3   OH275346   0.165   5.721   0.926  0.0297  0.0718  0.6760
17952TIP3    H175347   0.119   5.713   0.842 -0.1045  1.5499  0.5873
17952TIP3    H275348   0.207   5.636   0.938  0.3743 -0.0471 -1.0799
17953TIP3   OH275349   2.512   3.443  11.419 -0.3278 -0.7564 -0.7147
17953TIP3    H175350   2.550   3.372  11.470  0.8892 -0.6378 -1.4164
17953TIP3    H275351   2.449   3.485  11.478  2.4819  0.7102  1.4801
17954TIP3   OH275352   1.348   1.382   2.433 -0.1080  1.1236 -0.3918
17954TIP3    H175353   1.414   1.449   2.451 -0.1898  1.6429 -1.8509
17954TIP3    H275354   1.273   1.431   2.399 -1.8820  0.7161  2.5940
17955TIP3   OH275355   0.305   1.565   2.248  0.6046 -0.2949  0.0044
17955TIP3    H175356   0.213   1.592   2.250  0.1663 -1.7314  0.5233
17955TIP3    H275357   0.309   1.498   2.180  1.1443 -0.6302  0.3593
17956TIP3   OH275358   2.352   2.234  16.431 -0.1732  0.4501 -0.2554
17956TIP3    H175359   2.416   2.269  16.369 -1.5744  0.9300 -1.5147
17956TIP3    H275360   2.289   2.188  16.375 -1.2251  0.4882  0.8713
17957TIP3   OH275361   6.721   3.275   4.406 -0.0099  0.0690  0.5115
17957TIP3    H175362   6.646   3.329   4.433 -0.4188  0.2571 -0.9145
17957TIP3    H275363   6.793   3.337   4.397 -0.5844  0.4970 -1.5392
17958TIP3   OH275364   4.293   3.201   4.196  0.7385  0.2387 -0.5568
17958TIP3    H175365   4.337   3.270   4.147  0.3481 -1.4030 -3.5017
17958TIP3    H275366   4.348   3.124   4.185  0.3744 -0.3373  1.2845
17959TIP3   OH275367   2.490   5.598  15.805 -0.0937  0.0198  0.6381
17959TIP3    H175368   2.418   5.613  15.867 -1.3832  0.9679 -0.9857
17959TIP3    H275369   2.487   5.504  15.787 -0.4777 -0.0631  1.1119
17960TIP3   OH275370   3.542   6.707  11.736 -0.0102  0.0730  0.8316
17960TIP3    H175371   3.551   6.779  11.673  0.3610  1.4294  2.3661
17960TIP3    H275372   3.615   6.649  11.716  0.3285  0.6705  0.2663
17961TIP3   OH275373   3.192   3.075  12.075 -1.1623 -0.6396 -0.2392
17961TIP3    H175374   3.251   3.106  12.143 -0.8917 -0.2780 -0.6327
17961TIP3    H275375   3.182   3.150  12.016 -1.3305 -0.9730 -0.6387
17962TIP3   OH275376   0.074   2.743   3.603 -0.1289  0.0036 -0.0165
17962TIP3    H175377  -0.013   2.781   3.600 -1.1791 -2.2008  0.2321
17962TIP3    H275378   0.099   2.747   3.696  0.5786  1.7093 -0.2586
17963TIP3   OH275379   5.650   1.070  13.191 -0.3522  0.2843  0.3337
17963TIP3    H175380   5.709   1.020  13.248  0.5002  0.4266 -0.3947
17963TIP3    H275381   5.705   1.140  13.155 -0.8122  0.0948 -0.7930
17964TIP3   OH275382   3.303   0.795   1.702 -0.4727  0.3213  0.5133
17964TIP3    H175383   3.259   0.787   1.786 -0.0391 -1.1324  0.6317
17964TIP3    H275384   3.256   0.734   1.644  2.1429 -2.4165  1.0211
17965TIP3   OH275385   2.746   5.396  10.906  0.2610  0.6475  0.0234
17965TIP3    H175386   2.817   5.377  10.967  0.2358 -1.1467 -0.4297
17965TIP3    H275387   2.784   5.456  10.842  1.2914 -0.0446 -0.0377
17966TIP3   OH275388   4.719   0.598   0.394 -0.0392 -0.4633  0.1975
17966TIP3    H175389   4.799   0.615   0.443  1.2362 -3.6977 -0.5324
17966TIP3    H275390   4.655   0.573   0.460  0.3989 -0.6585  0.5486
17967TIP3   OH275391   3.104   0.402  11.072  0.2422 -0.0793  0.1870
17967TIP3    H175392   3.090   0.351  10.992 -1.0298  0.1541  0.2424
17967TIP3    H275393   3.187   0.448  11.057  0.4604 -0.7024 -0.6234
17968TIP3   OH275394   4.158   1.768   3.989 -0.3355  0.0955  0.4090
17968TIP3    H175395   4.180   1.805   3.904 -0.2864 -0.3642  0.2173
17968TIP3    H275396   4.068   1.737   3.980  0.4902 -2.3608 -0.3551
17969TIP3   OH275397   1.390   3.477  11.546 -0.2352 -0.2400  0.2578
17969TIP3    H175398   1.351   3.560  11.574 -3.0289  0.6550 -5.0190
17969TIP3    H275399   1.477   3.501  11.514 -0.5847  0.5196 -0.1706
17970TIP3   OH275400   5.216   5.035   6.312  0.3328  0.1588  1.0028
17970TIP3    H175401   5.130   5.076   6.305  1.1400  1.7465 -0.5227
17970TIP3    H275402   5.275   5.097   6.269  2.0037 -1.6119  0.6302
17971TIP3   OH275403   4.227   3.505   4.286 -0.6096 -0.1623 -0.0376
17971TIP3    H175404   4.290   3.518   4.357 -0.6317  0.2788 -0.0975
17971TIP3    H275405   4.279   3.471   4.214 -0.3563  0.6126 -0.2299
17972TIP3   OH275406   6.654   4.629  12.395 -0.3946 -0.5261  0.2639
17972TIP3    H175407   6.739   4.599  12.430 -1.1441 -2.0351  0.8833
17972TIP3    H275408   6.677   4.698  12.333  1.1742  0.2973  1.6769
17973TIP3   OH275409   3.937   1.582   1.769  0.1236  0.2687 -0.2966
17973TIP3    H175410   3.867   1.647   1.770  1.0306  1.2748  0.6872
17973TIP3    H275411   4.017   1.633   1.755  0.7945 -0.7218 -0.2212
17974TIP3   OH275412   0.781   6.223  13.973 -0.8899 -0.0563 -0.3076
17974TIP3    H175413   0.834   6.288  13.928 -0.6063 -0.1825 -0.1574
17974TIP3    H275414   0.840   6.182  14.036 -1.0911 -0.3874 -0.3276
17975TIP3   OH275415   4.101   1.234  13.446  0.0701  0.3883  0.2739
17975TIP3    H175416   4.071   1.278  13.526  0.3391 -0.1216  0.6628
17975TIP3    H275417   4.117   1.305  13.384 -1.1134  0.7314  0.3283
17976TIP3   OH275418   0.169   4.631  16.651  0.1438 -0.3194  0.4410
17976TIP3    H175419   0.196   4.612  16.561  0.0303  2.0145 -0.1633
17976TIP3    H275420   0.097   4.570  16.667 -0.1522 -0.4828 -1.2420
17977TIP3   OH275421   3.134   6.139  10.960  0.1594 -0.1871 -0.5455
17977TIP3    H175422   3.066   6.111  11.021  1.3788 -0.9851  0.4927
17977TIP3    H275423   3.092   6.137  10.874 -0.7305 -2.0713 -0.1086
17978TIP3   OH275424   0.391   3.445   3.682  0.1772  0.0879 -0.3939
17978TIP3    H175425   0.475   3.473   3.719  0.1216 -0.1547 -0.0786
17978TIP3    H275426   0.414   3.371   3.625  0.0906 -0.4682  0.2796
17979TIP3   OH275427   6.805   1.297   2.340  0.3263 -0.1310 -0.5055
17979TIP3    H175428   6.887   1.340   2.365  0.6563  0.4444 -2.4515
17979TIP3    H275429   6.740   1.335   2.400  1.3924 -0.4142  0.8994
17980TIP3   OH275430   0.146   1.259   2.767 -0.1910 -0.0029  0.0468
17980TIP3    H175431   0.096   1.182   2.795 -1.0374 -0.0693 -1.5143
17980TIP3    H275432   0.081   1.330   2.765  0.2440  0.3969  0.0447
17981TIP3   OH275433   1.837   1.773  16.985 -0.4214  0.2443  0.3988
17981TIP3    H175434   1.885   1.836  17.039 -0.7702  0.4251  0.5067
17981TIP3    H275435   1.763   1.824  16.950 -0.8112 -0.1509  0.6350
17982TIP3   OH275436   0.215   2.229   2.328 -0.8005  0.1705  0.0702
17982TIP3    H175437   0.238   2.205   2.418 -1.4576 -0.1491  0.1579
17982TIP3    H275438   0.228   2.148   2.278 -0.6792  0.2815 -0.0774
17983TIP3   OH275439   5.301   5.274  11.613  0.2917  0.4181  0.0924
17983TIP3    H175440   5.282   5.349  11.558  3.2276  0.4748 -1.0051
17983TIP3    H275441   5.301   5.199  11.553  1.0155  0.1103  0.4609
17984TIP3   OH275442   2.536   4.965   2.096 -0.2665  0.0227 -0.8517
17984TIP3    H175443   2.477   4.890   2.104 -1.1595  0.7450 -0.4800
17984TIP3    H275444   2.618   4.935   2.136 -1.0629 -0.2996  0.6352
17985TIP3   OH275445   4.146   5.922   6.370  0.3889  0.5911  0.1685
17985TIP3    H175446   4.217   5.937   6.432  0.2831  0.6877  0.2642
17985TIP3    H275447   4.073   5.974   6.403  0.2986  0.5561  0.0247
17986TIP3   OH275448   6.348   5.251  13.379  0.6035 -0.0404 -0.5729
17986TIP3    H175449   6.413   5.292  13.322 -0.3871  0.8357 -1.0913
17986TIP3    H275450   6.287   5.208  13.319 -0.1867  0.4917 -0.1700
17987TIP3   OH275451   1.705   1.865   0.993 -0.0843  0.2977 -0.0833
17987TIP3    H175452   1.631   1.923   1.012 -0.0135  0.5339 -0.5111
17987TIP3    H275453   1.770   1.886   1.060 -0.1025  0.6378 -0.1704
17988TIP3   OH275454   5.360   3.423   4.891 -0.2267 -0.1340  0.4157
17988TIP3    H175455   5.374   3.450   4.982  0.9534  0.6301  0.0257
17988TIP3    H275456   5.342   3.504   4.844 -1.6191 -0.6119  0.0839
17989TIP3   OH275457   4.972   5.215   5.206  0.3435  0.4859  0.4285
17989TIP3    H175458   5.003   5.174   5.287  0.7965 -0.8616 -0.3938
17989TIP3    H275459   4.896   5.267   5.233  0.2914 -0.1982  1.6729
17990TIP3   OH275460   6.160   3.564  16.926 -0.7853  0.1332 -0.2833
17990TIP3    H175461   6.221   3.522  16.986 -0.7659  0.2141 -0.2455
17990TIP3    H275462   6.085   3.504  16.921 -0.4350 -0.2724 -0.8118
17991TIP3   OH275463   1.727   5.341  16.367  0.1775  0.1448  0.8697
17991TIP3    H175464   1.701   5.340  16.275  1.4705 -1.4542  0.4989
17991TIP3    H275465   1.651   5.304  16.413  0.3001 -0.9840  0.2041
17992TIP3   OH275466   2.513   3.974  12.435  0.2719  0.6918 -0.1165
17992TIP3    H175467   2.493   3.935  12.350 -0.5837  1.7243 -0.4115
17992TIP3    H275468   2.608   3.963  12.445  0.1107 -1.0529 -0.3614
17993TIP3   OH275469   3.672   1.624   6.195  0.3798 -0.2980 -0.4088
17993TIP3    H175470   3.583   1.648   6.172  0.1942 -0.7645 -0.2045
17993TIP3    H275471   3.669   1.528   6.205  0.1273 -0.0852  2.6910
17994TIP3   OH275472   2.476   3.392   3.479 -0.5860 -0.3718  0.1357
17994TIP3    H175473   2.518   3.320   3.433  2.4386  0.3713  1.4881
17994TIP3    H275474   2.488   3.372   3.572 -0.5009  1.4015  0.5492
17995TIP3   OH275475   3.251   4.939  10.879 -0.7218  0.0952 -0.1046
17995TIP3    H175476   3.301   4.993  10.818 -0.0478  0.2916  0.5994
17995TIP3    H275477   3.318   4.895  10.931 -1.2824  0.3126  0.8154
17996TIP3   OH275478   5.750   5.537  12.084  0.2616 -0.1032  0.3935
17996TIP3    H175479   5.757   5.628  12.057 -0.6222  0.1593  0.9912
17996TIP3    H275480   5.825   5.523  12.142 -0.3268  0.6618  1.3892
17997TIP3   OH275481   2.184   5.119  11.486 -0.2037 -0.5926 -0.2896
17997TIP3    H175482   2.111   5.104  11.427  0.7750 -0.4621 -1.5844
17997TIP3    H275483   2.146   5.164  11.561 -1.4199 -0.4158 -0.9882
17998TIP3   OH275484   1.855   0.738   3.556  0.0159  0.1286 -0.1264
17998TIP3    H175485   1.806   0.661   3.586  0.0959 -0.9164 -2.4559
17998TIP3    H275486   1.807   0.812   3.593 -1.9607 -0.9432 -0.4095
17999TIP3   OH275487   6.517   0.215  14.799  0.5454 -0.4404  0.3350
17999TIP3    H175488   6.507   0.284  14.865  1.2112  0.0945 -0.1118
17999TIP3    H275489   6.446   0.154  14.818 -1.0394  1.1390 -0.1996
18000TIP3   OH275490   0.071   6.022  14.860  0.1986 -0.3997  0.1480
18000TIP3    H175491   0.076   5.993  14.769  1.6961 -0.8036  0.3397
18000TIP3    H275492   0.158   6.055  14.880 -0.2489  0.1515  1.2903
18001TIP3   OH275493   2.587   5.143   1.027 -0.1181  0.1166 -0.2484
18001TIP3    H175494   2.613   5.089   1.102 -0.9479  1.3993  1.0312
18001TIP3    H275495   2.553   5.081   0.963  0.5786 -1.0211  0.4466
18002TIP3   OH275496   5.198   0.986  12.721 -0.1686 -0.0576  0.3354
18002TIP3    H175497   5.205   0.929  12.645  2.0031 -1.5162  1.5079
18002TIP3    H275498   5.141   1.058  12.693 -1.9072 -2.0908 -1.6358
18003TIP3   OH275499   6.330   1.929  16.548  0.0445  0.5653 -0.8453
18003TIP3    H175500   6.379   1.852  16.575  0.9412  0.6316 -2.1804
18003TIP3    H275501   6.284   1.957  16.627  2.2297  0.5643  0.5023
18004TIP3   OH275502   0.152   0.836  11.586  0.9363 -0.0654  0.2153
18004TIP3    H175503   0.196   0.910  11.543  0.1842  0.6720  0.6736
18004TIP3    H275504   0.077   0.876  11.631  1.7558 -0.7584  2.3319
18005TIP3   OH275505   3.608   4.261  15.710 -0.1373 -0.8499  0.4599
18005TIP3    H175506   3.545   4.306  15.765 -0.4723 -0.4983 -0.1984
18005TIP3    H275507   3.691   4.307  15.725 -0.2756 -0.6162  0.5101
18006TIP3   OH275508   0.999   2.914  12.666  0.4468  0.0242  0.1924
18006TIP3    H175509   0.926   2.865  12.629 -0.5632  1.1319  0.6504
18006TIP3    H275510   0.969   2.939  12.754  0.8265  1.6509 -0.1106
18007TIP3   OH275511   4.551   3.576   1.135 -0.5998  0.5081 -0.4314
18007TIP3    H175512   4.585   3.486   1.133 -0.0903  0.6993 -2.1281
18007TIP3    H275513   4.604   3.620   1.201  0.7855  0.1466 -1.2533
18008TIP3   OH275514   6.694   0.802  11.659  0.0188 -0.3633  0.2030
18008TIP3    H175515   6.599   0.809  11.669 -0.2926 -2.2001 -0.9729
18008TIP3    H275516   6.714   0.711  11.681  1.5728  0.0777  0.7488
18009TIP3   OH275517   6.703   3.759  14.650  0.1930 -0.3708  0.3596
18009TIP3    H175518   6.655   3.722  14.724  1.2344 -1.3879  0.5471
18009TIP3    H275519   6.650   3.834  14.622 -0.7857 -0.6482  1.4161
18010TIP3   OH275520   3.485   1.088  13.606  0.0575 -0.1323  0.5078
18010TIP3    H175521   3.486   1.096  13.701  0.5004 -0.3323  0.5260
18010TIP3    H275522   3.409   1.035  13.587 -0.4565  0.5220  0.6943
18011TIP3   OH275523   1.696   4.658   5.332 -0.0098 -0.3423 -0.1195
18011TIP3    H175524   1.630   4.664   5.263  0.2474 -0.9011 -0.4269
18011TIP3    H275525   1.649   4.622   5.407 -0.2776  0.2099 -0.0207
18012TIP3   OH275526   5.552   0.830  14.319  0.8113  0.4313 -0.6540
18012TIP3    H175527   5.475   0.881  14.344 -0.9067 -1.5745 -1.5164
18012TIP3    H275528   5.622   0.894  14.312 -1.6512  3.0883 -3.7958
18013TIP3   OH275529   5.255   5.419   2.537  0.1586 -0.8967 -0.2554
18013TIP3    H175530   5.281   5.468   2.615  0.6142 -0.7699 -0.4840
18013TIP3    H275531   5.222   5.486   2.477 -1.0295 -1.0907  0.1570
18014TIP3   OH275532   5.810   1.998  12.227 -0.0134  0.2634 -0.2485
18014TIP3    H175533   5.723   2.016  12.261  0.5218  0.8660  0.8538
18014TIP3    H275534   5.860   1.966  12.302  0.4945 -0.8946 -1.0444
18015TIP3   OH275535   1.167   5.244   1.648 -0.5114  0.1545  0.1955
18015TIP3    H175536   1.132   5.267   1.734 -2.1762  0.4793 -0.5197
18015TIP3    H275537   1.174   5.149   1.648 -2.8023 -0.0599 -0.0896
18016TIP3   OH275538   5.919   2.716  16.953 -0.0273 -0.7662  0.5206
18016TIP3    H175539   5.862   2.793  16.965  0.6550 -0.3574  1.3129
18016TIP3    H275540   5.983   2.744  16.887  0.5864 -0.4165  1.2434
18017TIP3   OH275541   4.516   5.850   2.134 -0.1338  0.2759 -0.1341
18017TIP3    H175542   4.456   5.824   2.064 -0.0296 -1.0885  0.2553
18017TIP3    H275543   4.528   5.944   2.122 -1.8149  0.4516 -0.6327
18018TIP3   OH275544   1.337   6.264  11.921 -0.0724 -0.1207  0.2300
18018TIP3    H175545   1.263   6.209  11.947  0.4210 -0.5415  0.7458
18018TIP3    H275546   1.351   6.322  11.996  0.4798 -0.4158  0.3552
18019TIP3   OH275547   5.362   0.455  12.360  0.2094 -0.2515 -0.4754
18019TIP3    H175548   5.449   0.488  12.338  0.1639  0.0980 -0.1545
18019TIP3    H275549   5.302   0.523  12.328  0.1179  0.0425  0.2802
18020TIP3   OH275550   6.366   5.615  16.006  0.5484 -0.3061 -0.1648
18020TIP3    H175551   6.302   5.547  15.983 -0.6254  0.3002  1.1228
18020TIP3    H275552   6.446   5.588  15.962 -0.6989 -0.8369 -2.3067
18021TIP3   OH275553   5.431   4.118  14.082 -0.4293  0.0053  0.3729
18021TIP3    H175554   5.403   4.129  14.173  0.0207  1.9025  0.3161
18021TIP3    H275555   5.461   4.204  14.055  0.8140 -0.8422 -1.1384
18022TIP3   OH275556   4.028   3.872   5.866  0.8307  0.0965  0.0613
18022TIP3    H175557   4.081   3.802   5.905  1.1925  0.3340  0.0028
18022TIP3    H275558   4.013   3.842   5.776  2.4737  0.8774 -0.5268
18023TIP3   OH275559   0.737   5.747  12.520 -0.2663  0.2935  0.2636
18023TIP3    H175560   0.704   5.730  12.432 -0.4057 -0.0854  0.3894
18023TIP3    H275561   0.833   5.743  12.512 -0.1149  3.1533 -0.4843
18024TIP3   OH275562   1.214   4.687  12.072 -0.6708  0.3627 -0.4724
18024TIP3    H175563   1.232   4.623  12.003 -0.9103  0.6494 -0.8003
18024TIP3    H275564   1.289   4.680  12.131 -0.0729  0.6903 -1.1913
18025TIP3   OH275565   0.580   6.436  11.496 -0.6579 -0.2799  0.2991
18025TIP3    H175566   0.637   6.486  11.554 -0.2963  0.2693 -0.5268
18025TIP3    H275567   0.513   6.400  11.555 -1.0684  1.3472  0.8874
18026TIP3   OH275568   1.706   3.182   0.629 -0.5127 -0.1512  0.6541
18026TIP3    H175569   1.773   3.159   0.694 -0.4139  0.6516  0.8448
18026TIP3    H275570   1.747   3.248   0.574 -1.5930  1.4356  1.6584
18027TIP3   OH275571   2.712   0.972   0.866  0.3089 -0.1481 -0.1655
18027TIP3    H175572   2.703   0.913   0.941  3.1660 -1.4266 -0.7013
18027TIP3    H275573   2.726   1.058   0.904  0.0338 -0.4899  0.7250
18028TIP3   OH275574   4.121   4.781  10.967  0.1812 -0.3823  0.0474
18028TIP3    H175575   4.066   4.788  11.045 -0.4993  1.1722 -0.5328
18028TIP3    H275576   4.105   4.692  10.935 -0.7081 -0.5263  0.8307
18029TIP3   OH275577   6.074   5.981   2.201 -0.0965 -0.4339  0.1091
18029TIP3    H175578   6.099   5.949   2.114  1.0370  1.4832 -0.3229
18029TIP3    H275579   6.149   5.958   2.257 -0.5046 -1.0063  0.4296
18030TIP3   OH275580   3.240   6.476  13.575  0.2628 -0.1179 -0.3668
18030TIP3    H175581   3.218   6.460  13.667  1.0457 -1.3948 -0.3822
18030TIP3    H275582   3.216   6.395  13.530  2.5149 -0.6097 -0.7998
18031TIP3   OH275583   2.974   3.915  17.044 -0.5294 -0.2565  1.0919
18031TIP3    H175584   2.913   3.862  16.993  0.2359 -0.7704  0.6894
18031TIP3    H275585   3.033   3.954  16.978 -1.4178  1.5824  1.3122
18032TIP3   OH275586   4.209   5.304   1.911  0.1811 -0.1542 -0.1020
18032TIP3    H175587   4.204   5.384   1.963  0.1094 -1.7055  2.4364
18032TIP3    H275588   4.302   5.279   1.915  0.0037 -0.7949  0.1041
18033TIP3   OH275589   2.822   0.462  12.275  0.0124  0.1423 -0.6035
18033TIP3    H175590   2.857   0.403  12.341 -1.9410 -0.2440  0.1482
18033TIP3    H275591   2.735   0.427  12.254 -0.4903  1.7523 -1.4373
18034TIP3   OH275592   5.745   6.186  12.087 -0.1393  0.2343  0.2341
18034TIP3    H175593   5.780   6.141  12.010 -3.9288 -1.1661 -0.9419
18034TIP3    H275594   5.770   6.131  12.161  1.1928  0.0697 -0.3111
18035TIP3   OH275595   2.918   3.041  12.190 -0.3865 -0.8501  0.4555
18035TIP3    H175596   2.881   3.128  12.198 -0.6225 -0.8771 -0.2689
18035TIP3    H275597   3.009   3.055  12.167 -0.1803 -0.7948  1.2613
18036TIP3   OH275598   6.100   6.597  13.369  0.8317 -0.1050 -0.0432
18036TIP3    H175599   6.183   6.565  13.404  0.8083  0.9065  1.0214
18036TIP3    H275600   6.057   6.640  13.444 -0.6705 -0.6338 -0.5509
18037TIP3   OH275601   6.821   3.786   5.014  0.3113 -0.5510 -0.0948
18037TIP3    H175602   6.833   3.767   4.921 -0.0852 -1.0551 -0.0473
18037TIP3    H275603   6.856   3.709   5.059 -2.2130 -1.7237  0.0721
18038TIP3   OH275604   2.604   3.810   5.180 -0.5407 -0.3583 -0.3690
18038TIP3    H175605   2.562   3.744   5.234 -0.3931 -0.1558 -0.0001
18038TIP3    H275606   2.657   3.761   5.117 -0.6968 -0.5952 -0.3139
18039TIP3   OH275607   1.734   1.369   4.874 -0.4884 -0.2008  0.5925
18039TIP3    H175608   1.693   1.412   4.950 -1.5989 -0.6461  0.2746
18039TIP3    H275609   1.807   1.319   4.911 -0.2784  0.5273  1.2028
18040TIP3   OH275610   3.130   1.333  11.867  0.8477 -0.2975  0.1599
18040TIP3    H175611   3.037   1.310  11.857  0.1358  1.6640  1.5909
18040TIP3    H275612   3.148   1.391  11.793  0.9410 -0.6952 -0.1297
18041TIP3   OH275613   0.160   3.243  15.996 -0.0950  0.0101  0.0281
18041TIP3    H175614   0.108   3.192  15.934  0.0155 -0.1997  0.1092
18041TIP3    H275615   0.174   3.327  15.953  0.3138 -0.2724 -0.3885
18042TIP3   OH275616   3.517   5.953   0.708  0.2155  0.0075 -0.2730
18042TIP3    H175617   3.597   6.005   0.718 -0.9625  2.3274 -1.9663
18042TIP3    H275618   3.451   6.002   0.757 -0.2283 -1.9140  1.1714
18043TIP3   OH275619   6.595   1.455  10.896  0.6101 -0.1319 -0.0628
18043TIP3    H175620   6.505   1.483  10.911  0.6301 -0.6867  1.2367
18043TIP3    H275621   6.595   1.417  10.808  0.0351  1.6157 -0.8627
18044TIP3   OH275622   3.748   3.987  13.931  0.4263 -0.5908 -0.1197
18044TIP3    H175623   3.754   4.023  13.842  2.4218 -0.6936 -0.0886
18044TIP3    H275624   3.655   3.981  13.949 -0.0117  1.0679 -1.5465
18045TIP3   OH275625   2.340   5.125   2.490  0.3105 -0.1210  0.4207
18045TIP3    H175626   2.281   5.169   2.429 -0.3776  1.4264  2.1433
18045TIP3    H275627   2.425   5.167   2.476  0.5720 -0.9308 -0.5969
18046TIP3   OH275628   6.241   0.139   3.491  0.1951 -0.1853  0.0086
18046TIP3    H175629   6.177   0.210   3.499  0.7367  0.4039 -0.6585
18046TIP3    H275630   6.314   0.166   3.548  0.1825 -0.4643  0.1574
18047TIP3   OH275631   1.534   5.106   2.414 -0.3163  0.3362 -0.4584
18047TIP3    H175632   1.563   5.188   2.372 -0.5862  1.0220  0.6490
18047TIP3    H275633   1.599   5.041   2.386  0.3050  1.0831 -0.7974
18048TIP3   OH275634   5.872   6.168   2.409 -0.1992  0.1925  0.3145
18048TIP3    H175635   5.952   6.127   2.377  0.3853  0.7978  0.9563
18048TIP3    H275636   5.902   6.244   2.459 -1.0435 -0.5912  2.1326
18049TIP3   OH275637   1.577   5.445  10.730 -0.0780  0.4342  0.1686
18049TIP3    H175638   1.558   5.481  10.644  3.0112  1.2119 -0.2981
18049TIP3    H275639   1.672   5.432  10.731 -0.3330 -2.4353  2.3897
18050TIP3   OH275640   2.701   4.381  14.916 -0.1155  0.6973  0.0767
18050TIP3    H175641   2.788   4.401  14.951  0.1162  0.1525 -0.1745
18050TIP3    H275642   2.643   4.391  14.991  0.3054  0.0433  0.5012
18051TIP3   OH275643   2.374   2.871  12.374  0.3131 -0.6488 -0.2387
18051TIP3    H175644   2.327   2.792  12.346  0.6455 -0.7126 -0.6256
18051TIP3    H275645   2.330   2.943  12.330 -0.6728 -0.4871  0.9432
18052TIP3   OH275646   5.413   5.705  16.859  0.4407  0.7441 -0.4320
18052TIP3    H175647   5.454   5.619  16.866  0.1788  0.6369 -0.2026
18052TIP3    H275648   5.454   5.745  16.782  1.1284  0.7197 -0.0913
18053TIP3   OH275649   1.265   5.087   1.420 -0.0654  0.0476 -0.1483
18053TIP3    H175650   1.258   5.059   1.329 -0.7703  1.1921 -0.4697
18053TIP3    H275651   1.217   5.170   1.423 -1.2881 -0.6732  1.5676
18054TIP3   OH275652   6.568   1.009  14.062 -0.4453  0.3025  0.7421
18054TIP3    H175653   6.551   0.946  13.993 -0.2194  1.0412  0.0018
18054TIP3    H275654   6.552   1.094  14.022  0.1462  0.7641  1.4593
18055TIP3   OH275655   1.261   6.445   1.225 -0.7128 -0.3439 -0.4220
18055TIP3    H175656   1.170   6.423   1.242 -0.7614 -0.2513 -0.5643
18055TIP3    H275657   1.305   6.360   1.218 -0.3355 -0.4340  2.0036
18056TIP3   OH275658   5.501   5.222  13.846 -0.3756 -0.4721  0.3368
18056TIP3    H175659   5.588   5.208  13.811 -1.0488 -1.5438 -1.0036
18056TIP3    H275660   5.515   5.257  13.934  1.3819 -0.4341  0.0595
18057TIP3   OH275661   6.595   0.113   1.045  0.0563 -0.1250 -0.2803
18057TIP3    H175662   6.637   0.198   1.029  0.3093 -0.4361 -1.3624
18057TIP3    H275663   6.502   0.132   1.038 -0.0707  0.6170  2.3682
18058TIP3   OH275664   3.189   1.350  16.472  0.1018 -0.0548  0.2280
18058TIP3    H175665   3.261   1.412  16.477  0.1775 -0.0258 -0.8951
18058TIP3    H275666   3.111   1.403  16.488  0.2932 -0.0099  1.0294
18059TIP3   OH275667   3.870   2.986  14.899  0.5159 -0.0063  0.2964
18059TIP3    H175668   3.958   2.970  14.865  0.4489  0.2354  0.0121
18059TIP3    H275669   3.872   3.077  14.928  0.3862 -0.0275  0.3722
18060TIP3   OH275670   4.794   1.724   1.724 -1.0568 -0.6007  0.3135
18060TIP3    H175671   4.851   1.718   1.801 -0.5171 -2.9604 -0.1942
18060TIP3    H275672   4.776   1.818   1.716  1.6283  0.1268  1.3233
18061TIP3   OH275673   5.354   1.569   5.367  0.3900 -0.2969 -0.5525
18061TIP3    H175674   5.280   1.559   5.426  0.9571  0.3321  0.2902
18061TIP3    H275675   5.322   1.537   5.282 -0.3577 -1.4457  0.1395
18062TIP3   OH275676   4.445   3.883  16.135 -0.6585  0.2151 -0.1159
18062TIP3    H175677   4.409   3.878  16.047 -1.1755  0.6333  0.0648
18062TIP3    H275678   4.426   3.973  16.163 -1.8318 -0.3361  0.9800
18063TIP3   OH275679   6.330   1.166   5.177  0.2505 -0.3088 -0.0370
18063TIP3    H175680   6.378   1.233   5.225 -0.2762 -1.2592  1.9242
18063TIP3    H275681   6.316   1.096   5.241  0.6085 -2.2231 -1.9464
18064TIP3   OH275682   5.223   3.029   0.603  0.8820 -0.0958 -0.0665
18064TIP3    H175683   5.187   3.117   0.601  0.2386 -0.3557 -1.4802
18064TIP3    H275684   5.317   3.042   0.616  0.7778  0.7883 -0.1538
18065TIP3   OH275685   5.499   6.506  16.590 -0.2955  0.0167  1.1504
18065TIP3    H175686   5.418   6.514  16.541 -0.2050 -0.9761  0.8181
18065TIP3    H275687   5.547   6.435  16.547  1.7565  1.9940 -0.0511
18066TIP3   OH275688   1.820   1.290  16.373 -0.3504  0.3834 -0.1722
18066TIP3    H175689   1.792   1.248  16.455 -0.7497  1.3324  0.1879
18066TIP3    H275690   1.739   1.317  16.331 -0.1032  0.5822 -0.5257
18067TIP3   OH275691   1.345   5.720  11.313  0.5271 -0.0061 -0.3130
18067TIP3    H175692   1.285   5.723  11.387 -0.1337 -1.2354 -0.7694
18067TIP3    H275693   1.329   5.801  11.265 -2.3831 -1.2115 -1.6027
18068TIP3   OH275694   6.068   4.973   4.402  0.0119  0.8745  0.0370
18068TIP3    H175695   6.121   4.929   4.468 -1.5181  0.9972  1.4267
18068TIP3    H275696   6.025   4.902   4.354 -0.8558  0.7746  0.9161
18069TIP3   OH275697   5.528   2.567  15.614 -0.1379 -0.1023 -0.1247
18069TIP3    H175698   5.489   2.556  15.701  0.0176  0.6162  0.0392
18069TIP3    H275699   5.477   2.509  15.558 -1.6139  0.9847  0.0366
18070TIP3   OH275700   1.909   2.174   5.616  0.1598 -0.2296 -0.3802
18070TIP3    H175701   1.939   2.263   5.635  1.7973 -0.9608  0.6890
18070TIP3    H275702   1.939   2.158   5.526 -2.4266  1.1446 -1.6100
18071TIP3   OH275703   0.302   0.815  17.059  0.2581  0.6876 -0.3233
18071TIP3    H175704   0.393   0.814  17.030  0.6290  1.7760  0.6929
18071TIP3    H275705   0.301   0.760  17.137 -0.1534 -0.0541 -0.8470
18072TIP3   OH275706   6.812   5.094  14.463 -0.5088 -0.2971 -0.2934
18072TIP3    H175707   6.802   5.043  14.383 -1.3128 -1.1587  0.3382
18072TIP3    H275708   6.727   5.136  14.476 -0.4048 -0.2092  0.1381
18073TIP3   OH275709   5.495   6.476   4.597  0.3870  0.2753 -0.0097
18073TIP3    H175710   5.514   6.391   4.636 -1.7915 -0.2770 -0.0002
18073TIP3    H275711   5.577   6.524   4.602  1.6370 -1.7504  0.1596
18074TIP3   OH275712   0.408   3.478   2.459  0.0224  0.0914 -0.2589
18074TIP3    H175713   0.377   3.555   2.506  1.9255  1.3188 -0.9060
18074TIP3    H275714   0.408   3.408   2.525  0.1266  1.1232  0.8761
18075TIP3   OH275715   2.405   1.052  11.269 -0.1378 -0.1668  0.0537
18075TIP3    H175716   2.415   1.064  11.175 -0.3195  1.3984  0.1991
18075TIP3    H275717   2.495   1.051  11.302 -0.0427 -1.4669 -0.1887
18076TIP3   OH275718   4.578   2.765   0.812 -0.1574 -0.2733 -0.6836
18076TIP3    H175719   4.496   2.727   0.778 -0.7728  0.4811 -0.0729
18076TIP3    H275720   4.621   2.692   0.856 -1.6190 -0.1985  1.0101
18077TIP3   OH275721   6.297   4.476   1.165  0.5702 -0.1086  0.4657
18077TIP3    H175722   6.319   4.389   1.132  0.2852  0.4759 -1.3612
18077TIP3    H275723   6.362   4.493   1.233 -0.2972 -2.3311  1.9444
18078TIP3   OH275724   1.578   1.989  17.025  0.1726  0.3616 -0.1823
18078TIP3    H175725   1.581   2.085  17.014  2.3190  0.6233  1.8529
18078TIP3    H275726   1.490   1.971  17.056  0.3743  2.0080  1.5462
18079TIP3   OH275727   5.226   1.780  10.567 -0.1979  0.1026 -0.5732
18079TIP3    H175728   5.154   1.781  10.504  2.9201 -0.9296 -4.5943
18079TIP3    H275729   5.252   1.872  10.575 -1.8118  0.4858  0.9264
18080TIP3   OH275730   2.806   4.655   0.933  0.3086 -0.1651 -0.3180
18080TIP3    H175731   2.711   4.651   0.939  0.2511 -1.4204 -1.4436
18080TIP3    H275732   2.837   4.661   1.023 -0.7708 -2.1338  0.2247
18081TIP3   OH275733   2.748   0.863   2.058  0.0881  0.1924 -0.1508
18081TIP3    H175734   2.836   0.828   2.049  0.2927  0.5974  0.2311
18081TIP3    H275735   2.700   0.828   1.983  0.2580 -0.9746  0.2741
18082TIP3   OH275736   4.723   0.846  16.882  0.0674 -0.4356 -0.3286
18082TIP3    H175737   4.733   0.807  16.968  1.9274 -1.5764 -1.0222
18082TIP3    H275738   4.720   0.940  16.898  2.3132 -0.5247  0.8513
18083TIP3   OH275739   6.519   6.117   0.961 -0.6018 -0.5575 -0.1539
18083TIP3    H175740   6.449   6.104   1.025 -0.7142  1.2397  0.1425
18083TIP3    H275741   6.572   6.037   0.966 -1.4847 -1.0955  1.0605
18084TIP3   OH275742   2.679   0.124   3.481  0.0025 -0.0739  0.3757
18084TIP3    H175743   2.741   0.088   3.417 -0.2847  0.2343 -0.0848
18084TIP3    H275744   2.731   0.183   3.534  0.3403 -0.6712  0.7190
18085TIP3   OH275745   2.080   6.537   3.189  0.0290 -0.0282 -0.1163
18085TIP3    H175746   1.995   6.544   3.233  0.1885  0.2029  0.1601
18085TIP3    H275747   2.061   6.489   3.109 -0.7266  1.7129 -1.0430
18086TIP3   OH275748   1.557   3.471  13.888 -0.1584 -0.3541  0.2459
18086TIP3    H175749   1.648   3.496  13.876  0.1854 -1.1650  1.0616
18086TIP3    H275750   1.512   3.553  13.908  0.0854  0.2930 -1.7059
18087TIP3   OH275751   4.523   5.820  11.871 -0.1720 -0.2145  0.1492
18087TIP3    H175752   4.583   5.746  11.880 -1.2763 -1.1372  0.1199
18087TIP3    H275753   4.500   5.822  11.778  1.5240  1.5566 -0.3097
18088TIP3   OH275754   3.691   0.072  13.270  0.4914 -0.0212  0.1287
18088TIP3    H175755   3.596   0.068  13.256  0.0988  1.7892  1.8567
18088TIP3    H275756   3.701   0.115  13.355  2.8709 -0.8117  0.3120
18089TIP3   OH275757   4.046   3.020  10.920 -0.4443 -0.1096 -0.0437
18089TIP3    H175758   4.130   3.028  10.875  0.4967 -0.3070  1.6029
18089TIP3    H275759   3.991   3.087  10.880  0.9312  0.9572 -0.2199
18090TIP3   OH275760   0.890   0.814   4.958  0.0277  0.9650  0.3620
18090TIP3    H175761   0.962   0.856   4.911 -1.3943  0.1749 -2.7733
18090TIP3    H275762   0.871   0.736   4.908 -4.1010  1.9863 -0.0008
18091TIP3   OH275763   2.979   0.367  13.911  0.0794  0.4628 -0.3947
18091TIP3    H175764   3.008   0.449  13.952  1.1568  1.8818 -3.6390
18091TIP3    H275765   3.058   0.331  13.870 -0.5982 -1.6968  0.0830
18092TIP3   OH275766   3.354   6.532  12.475  0.2468  0.2292  0.1979
18092TIP3    H175767   3.305   6.610  12.450 -0.1125 -0.2819 -0.7465
18092TIP3    H275768   3.343   6.471  12.402  0.7145 -0.6261  0.8049
18093TIP3   OH275769   1.620   0.916   3.588  0.0296  0.7375 -0.1768
18093TIP3    H175770   1.553   0.882   3.528  0.2185  2.2316 -1.3002
18093TIP3    H275771   1.610   1.011   3.583  0.7009  0.9231  1.4626
18094TIP3   OH275772   3.066   1.437   0.363 -0.4382 -0.3466 -0.2727
18094TIP3    H175773   3.058   1.532   0.366 -0.5260 -0.3282  3.0694
18094TIP3    H275774   3.132   1.420   0.296 -0.9826  1.9777 -1.4877
18095TIP3   OH275775   1.031   1.749  15.811 -0.0322  0.3686 -0.2984
18095TIP3    H175776   0.986   1.676  15.771 -1.1330  0.8375  0.0512
18095TIP3    H275777   1.122   1.741  15.780  0.2340 -1.9402  0.8658
18096TIP3   OH275778   2.364   1.769   4.410  0.5246  0.3032  0.2944
18096TIP3    H175779   2.447   1.813   4.426  0.7036  0.5750 -1.2148
18096TIP3    H275780   2.317   1.827   4.350 -0.1240 -0.5573 -0.0562
18097TIP3   OH275781   0.093   1.665  16.892  1.5383  0.1847  0.2384
18097TIP3    H175782   0.157   1.593  16.900  1.2319 -0.1165 -0.0214
18097TIP3    H275783   0.049   1.649  16.809 -0.7883 -1.1742  1.6557
18098TIP3   OH275784   6.419   2.500   3.338  0.4912  0.8557 -0.1050
18098TIP3    H175785   6.460   2.551   3.409 -2.6668  0.2655  2.3418
18098TIP3    H275786   6.333   2.540   3.327  0.2013 -0.2816 -2.3873
18099TIP3   OH275787   2.764   2.311   0.667  0.4028 -0.3408  0.6264
18099TIP3    H175788   2.743   2.264   0.587 -0.6763 -0.7286  1.1054
18099TIP3    H275789   2.682   2.355   0.690  0.7631 -0.0525  1.3891
18100TIP3   OH275790   2.521   0.258  12.458 -0.1651  0.3178  0.5254
18100TIP3    H175791   2.576   0.250  12.536  0.6700  1.7384  0.1014
18100TIP3    H275792   2.522   0.170  12.420 -0.9135 -0.5103  2.3015
18101TIP3   OH275793   0.290   4.841  13.754 -0.1904  0.5126 -0.1995
18101TIP3    H175794   0.237   4.837  13.834  0.9230 -0.5431  0.5169
18101TIP3    H275795   0.379   4.856  13.785  1.2092 -4.6689 -0.6939
18102TIP3   OH275796   4.623   6.644  15.947 -0.1826 -0.1267 -0.5316
18102TIP3    H175797   4.592   6.725  15.986  0.0541 -0.3967  0.2338
18102TIP3    H275798   4.613   6.657  15.853  0.1485  0.9069 -0.4282
18103TIP3   OH275799   4.242   4.633  15.573  0.5764  1.0789 -0.1838
18103TIP3    H175800   4.202   4.617  15.659  0.5124 -1.2007 -0.5837
18103TIP3    H275801   4.227   4.552  15.524  1.6076  1.9119 -1.9687
18104TIP3   OH275802   4.157   0.591  15.760 -0.4639 -0.3037  0.2234
18104TIP3    H175803   4.096   0.555  15.696 -2.1453 -1.9652  2.5961
18104TIP3    H275804   4.243   0.557  15.734 -1.2142 -1.5705 -0.6908
18105TIP3   OH275805   2.682   5.812   0.076 -0.2326  0.0942 -0.6307
18105TIP3    H175806   2.755   5.871   0.095  0.1846 -0.9311  1.2346
18105TIP3    H275807   2.699   5.735   0.130 -2.8835 -0.0401  0.1624
18106TIP3   OH275808   2.135   0.145   3.410  0.0496  0.1865  0.0044
18106TIP3    H175809   2.124   0.240   3.402 -1.2859 -0.0225 -0.8701
18106TIP3    H275810   2.216   0.127   3.361  0.8752  0.9679  1.0217
18107TIP3   OH275811   3.609   3.344   1.217  0.0376  0.2541 -0.1620
18107TIP3    H175812   3.521   3.379   1.200 -0.2551 -0.5579 -0.3669
18107TIP3    H275813   3.639   3.312   1.132 -1.0895 -3.0577  0.5212
18108TIP3   OH275814   0.415   5.812   1.912  0.3099 -0.8342 -0.0560
18108TIP3    H175815   0.490   5.788   1.857 -0.7475 -2.0503 -1.0323
18108TIP3    H275816   0.397   5.733   1.963 -1.3467 -1.1581 -1.0814
18109TIP3   OH275817   0.109   0.962   2.222 -0.2642  0.0748 -0.5391
18109TIP3    H175818   0.171   0.943   2.292 -2.3215 -2.1659  0.8539
18109TIP3    H275819   0.077   1.050   2.242 -2.3529 -1.2071  2.8330
18110TIP3   OH275820   1.634   2.889   3.394  0.2832 -0.2003  0.5085
18110TIP3    H175821   1.666   2.799   3.387 -0.3691 -0.3255 -1.5634
18110TIP3    H275822   1.549   2.881   3.438  1.3962 -0.2388  2.8141
18111TIP3   OH275823   3.032   2.556   3.510  0.5325 -1.0584 -0.3791
18111TIP3    H175824   3.050   2.645   3.479 -0.8718 -0.5033  0.3206
18111TIP3    H275825   3.111   2.506   3.487  0.4292 -0.1979 -2.8863
18112TIP3   OH275826   4.514   5.588  13.999 -0.1665 -0.0342  0.7549
18112TIP3    H175827   4.474   5.662  14.044  1.7578  0.9515  0.9502
18112TIP3    H275828   4.479   5.511  14.044 -0.8709  0.8150  1.7067
18113TIP3   OH275829   0.036   6.369  17.127 -0.2478  0.0229  0.5520
18113TIP3    H175830   0.053   6.355  17.034 -0.8511  2.2094  0.0422
18113TIP3    H275831   0.056   6.285  17.168 -0.2001 -1.0810 -1.5700
18114TIP3   OH275832   0.025   1.219  13.432 -0.6322 -0.0022 -0.6097
18114TIP3    H175833   0.117   1.211  13.408  0.1252  0.4633  1.8429
18114TIP3    H275834  -0.021   1.161  13.372  1.4100 -1.2443 -1.0698
18115TIP3   OH275835   3.820   2.990   0.965 -0.2109 -0.2224  0.1798
18115TIP3    H175836   3.866   2.970   0.884  0.7860 -1.0002  0.9095
18115TIP3    H275837   3.882   2.968   1.034 -1.7887 -1.6663  1.2279
18116TIP3   OH275838   4.142   6.321   6.309  0.2930 -0.1239  0.1657
18116TIP3    H175839   4.141   6.365   6.395 -0.5067  0.1522  0.0202
18116TIP3    H275840   4.227   6.278   6.306  0.0910 -0.6427  1.3578
18117TIP3   OH275841   4.373   5.804   2.359 -0.8123  0.6275 -0.0492
18117TIP3    H175842   4.330   5.889   2.367  0.2519  1.2699 -0.9023
18117TIP3    H275843   4.420   5.809   2.276  0.5899 -0.1900  0.6700
18118TIP3   OH275844   3.896   6.803   1.416 -0.6230  0.2978 -0.1241
18118TIP3    H175845   3.893   6.822   1.509  0.3651 -1.5531  0.3320
18118TIP3    H275846   3.806   6.782   1.393 -0.8126  0.3906  0.5169
18119TIP3   OH275847   2.113   6.344   1.175 -0.3913 -0.2615 -0.1062
18119TIP3    H175848   2.091   6.251   1.172  0.3975 -0.4628 -0.0140
18119TIP3    H275849   2.193   6.348   1.227 -0.5001  0.4906  0.0270
18120TIP3   OH275850   2.171   0.818  12.155  0.2900  0.0885  0.1325
18120TIP3    H175851   2.110   0.777  12.094 -0.8904 -0.2469  1.4870
18120TIP3    H275852   2.148   0.910  12.155  2.5969  0.7786 -2.5105
18121TIP3   OH275853   2.836   4.415   4.498 -0.2877  0.6265  0.0349
18121TIP3    H175854   2.857   4.344   4.559  1.2870 -0.6524 -1.8905
18121TIP3    H275855   2.744   4.434   4.515 -0.7745 -1.8891  0.6357
18122TIP3   OH275856   0.853   0.695   3.336  0.3180 -0.5278  0.0715
18122TIP3    H175857   0.823   0.751   3.264 -0.4864 -0.2339  0.6168
18122TIP3    H275858   0.839   0.606   3.304  0.1996 -0.4029 -0.2308
18123TIP3   OH275859   5.058   0.932  14.094  0.0695  0.3124  0.3980
18123TIP3    H175860   5.004   1.007  14.070 -0.8705 -1.0434 -2.0255
18123TIP3    H275861   4.997   0.868  14.130  0.6651  0.1872  1.2137
18124TIP3   OH275862   5.372   1.154   0.317  0.4925 -0.0608  0.1830
18124TIP3    H175863   5.381   1.059   0.329 -0.5582 -0.2510 -0.4523
18124TIP3    H275864   5.450   1.191   0.359 -0.2189 -1.0571  2.5414
18125TIP3   OH275865   4.153   2.735   2.948 -0.1834  0.1869 -0.0811
18125TIP3    H175866   4.232   2.686   2.970  0.0949 -0.2625 -1.8702
18125TIP3    H275867   4.147   2.803   3.015  0.3726 -1.2420  1.4726
18126TIP3   OH275868   0.673   4.917   3.368 -0.0933  0.4818 -0.7923
18126TIP3    H175869   0.712   4.847   3.317  0.6028  0.5899 -0.4263
18126TIP3    H275870   0.712   4.908   3.455 -2.0624 -0.3559  0.0354
18127TIP3   OH275871   2.761   3.333   0.865  0.1562 -0.1493  0.2452
18127TIP3    H175872   2.725   3.279   0.795  1.6395 -1.8929  0.7558
18127TIP3    H275873   2.856   3.324   0.855  0.4022  0.2428  1.9828
18128TIP3   OH275874   2.779   4.837   4.046 -0.0589  0.2696 -0.1200
18128TIP3    H175875   2.687   4.849   4.022  0.5836  2.0464 -1.9225
18128TIP3    H275876   2.797   4.907   4.109  0.6158  1.4037 -1.5262
18129TIP3   OH275877   1.758   1.974   3.136  0.2907  0.3194 -0.2517
18129TIP3    H175878   1.708   1.940   3.210  0.6313 -0.5868 -0.4199
18129TIP3    H275879   1.714   1.939   3.058  0.6373  0.2763 -0.4325
18130TIP3   OH275880   3.581   2.542   4.520 -0.4081  0.8107 -0.1791
18130TIP3    H175881   3.504   2.571   4.472 -0.4521  2.0743  0.6023
18130TIP3    H275882   3.554   2.540   4.611  0.0330 -0.3342 -0.0532
18131TIP3   OH275883   4.332   2.530   3.033  0.0233 -0.6274  0.4072
18131TIP3    H175884   4.373   2.495   2.954 -0.0593 -1.8853  0.8983
18131TIP3    H275885   4.250   2.480   3.041 -0.2832 -0.0572  0.9334
18132TIP3   OH275886   5.744   1.463  14.595  0.3561  0.7125  0.1979
18132TIP3    H175887   5.763   1.381  14.548 -1.9327  1.1960 -1.8173
18132TIP3    H275888   5.829   1.494  14.625  1.5046 -1.5285 -0.5106
18133TIP3   OH275889   3.529   2.230  14.182  0.2017  0.2108  0.2118
18133TIP3    H175890   3.435   2.227  14.199  0.1337  0.0322 -0.1780
18133TIP3    H275891   3.559   2.310  14.225  0.1602 -0.5629  1.7504
18134TIP3   OH275892   5.431   3.780  16.426  0.1981 -0.0761  0.4608
18134TIP3    H175893   5.337   3.761  16.422  0.5881 -2.5360  1.0159
18134TIP3    H275894   5.452   3.815  16.340 -1.4639  2.1057  0.8418
18135TIP3   OH275895   6.269   0.539  11.931 -0.5907 -0.2941  0.3395
18135TIP3    H175896   6.292   0.626  11.961  0.4559 -0.7253  0.8314
18135TIP3    H275897   6.345   0.508  11.882  0.7655 -2.4187  3.4604
18136TIP3   OH275898   0.337   2.967  13.317  0.0640  0.4713  0.1891
18136TIP3    H175899   0.425   3.003  13.330  0.1250 -0.6483  4.2881
18136TIP3    H275900   0.351   2.886  13.270  1.2674  0.3269  0.7506
18137TIP3   OH275901   6.714   5.797  10.703  0.4450  0.1839 -0.1079
18137TIP3    H175902   6.727   5.830  10.614 -1.4913 -0.4282 -0.6616
18137TIP3    H275903   6.619   5.794  10.714  0.6366 -0.8267  1.5808
18138TIP3   OH275904   4.145   5.427   2.793 -0.1618  0.2972 -0.1177
18138TIP3    H175905   4.079   5.456   2.855 -0.6430  0.3301 -0.6299
18138TIP3    H275906   4.130   5.481   2.715  0.3445  0.1708 -0.3104
18139TIP3   OH275907   0.305   5.485   0.918 -0.3218  0.8752 -0.1807
18139TIP3    H175908   0.332   5.531   0.998 -0.0150 -0.0901  0.2951
18139TIP3    H275909   0.367   5.413   0.911  0.2081  1.4507 -1.7975
18140TIP3   OH275910   2.364   5.553  11.673 -0.3257 -0.6469 -0.2892
18140TIP3    H175911   2.366   5.636  11.625 -1.5860 -0.1456  0.5021
18140TIP3    H275912   2.360   5.486  11.604 -2.0893  0.0592 -0.9112
18141TIP3   OH275913   6.483   1.304  15.288  0.2717 -0.4973 -0.6325
18141TIP3    H175914   6.480   1.214  15.258 -1.0998 -0.7383  0.1496
18141TIP3    H275915   6.429   1.305  15.367 -0.1584  1.0971 -0.9097
18142TIP3   OH275916   4.581   5.780  16.424 -0.3137  0.0556 -0.6302
18142TIP3    H175917   4.510   5.814  16.369 -0.4103  0.0036 -0.5387
18142TIP3    H275918   4.653   5.843  16.412 -1.7793  2.6964  2.6612
18143TIP3   OH275919   0.581   3.118  13.351 -0.2887  0.1993 -0.1496
18143TIP3    H175920   0.643   3.069  13.404  0.1094  1.5224  0.6462
18143TIP3    H275921   0.551   3.190  13.407  0.7808  2.1510 -1.9163
18144TIP3   OH275922   5.576   4.447  10.755 -0.7999 -0.6681  0.5503
18144TIP3    H175923   5.661   4.408  10.773 -0.0555 -0.0020 -1.2809
18144TIP3    H275924   5.542   4.399  10.680 -1.4693 -0.1011  0.4738
18145TIP3   OH275925   6.676   2.874   3.722 -0.2088 -0.3557  0.1927
18145TIP3    H175926   6.586   2.867   3.753  0.0059  0.5981  1.0887
18145TIP3    H275927   6.698   2.967   3.731  0.5515 -0.3960 -0.9274
18146TIP3   OH275928   0.094   4.816  15.425 -0.1891 -0.4338  0.0945
18146TIP3    H175929   0.116   4.764  15.348 -3.6071 -0.2429 -1.2113
18146TIP3    H275930   0.137   4.900  15.410 -0.1648 -0.6622 -1.2579
18147TIP3   OH275931   0.835   3.970  13.905  0.2144  0.4824 -0.4365
18147TIP3    H175932   0.822   3.878  13.880  0.8959  0.5768 -1.1844
18147TIP3    H275933   0.823   4.019  13.825 -1.1006  1.1636  0.1562
18148TIP3   OH275934   1.267   6.418  15.526 -0.2897 -0.0896 -0.0618
18148TIP3    H175935   1.348   6.439  15.480  0.4645 -0.2564  1.1651
18148TIP3    H275936   1.217   6.365  15.463  0.7955 -0.4631 -0.6260
18149TIP3   OH275937   1.737   3.368  15.944 -0.2694 -0.2767 -0.0737
18149TIP3    H175938   1.779   3.446  15.907  1.6608 -0.6710  1.1131
18149TIP3    H275939   1.699   3.323  15.870 -0.2902  1.1429 -0.9622
18150TIP3   OH275940   4.120   1.423   0.202 -0.1767  0.1469 -0.7240
18150TIP3    H175941   4.025   1.424   0.184 -0.8153 -1.5418  1.9092
18150TIP3    H275942   4.160   1.403   0.117 -2.3811 -1.1983 -1.5497
18151TIP3   OH275943   6.106   0.751   1.929  0.5532  0.7388 -0.4197
18151TIP3    H175944   6.130   0.669   1.974 -1.6586  0.3578  0.1841
18151TIP3    H275945   6.140   0.820   1.987  1.6798  0.2637 -0.4916
18152TIP3   OH275946   4.840   3.333  14.981  0.1160 -0.4848  0.4999
18152TIP3    H175947   4.918   3.366  15.023  0.6763  0.4498 -1.1909
18152TIP3    H275948   4.778   3.317  15.053  0.7901  1.6184  1.6050
18153TIP3   OH275949   0.368   0.896  13.715 -0.4241  0.0262 -0.1557
18153TIP3    H175950   0.371   0.817  13.661 -0.9707 -0.6674  0.7843
18153TIP3    H275951   0.304   0.875  13.783 -0.6114  1.3081  0.0854
18154TIP3   OH275952   6.547   6.560  15.729  0.2211  0.2171 -0.6894
18154TIP3    H175953   6.462   6.522  15.750  0.4994  1.1643  2.6629
18154TIP3    H275954   6.609   6.488  15.738 -0.0277 -0.1548 -1.7770
18155TIP3   OH275955   4.181   6.348  13.097  0.3427  0.6482 -0.2444
18155TIP3    H175956   4.216   6.354  13.008 -0.4980 -0.5293 -0.6769
18155TIP3    H275957   4.105   6.406  13.096 -0.8769 -0.9007 -0.9331
18156TIP3   OH275958   2.332   4.776   3.347  0.1292 -0.0202  0.1255
18156TIP3    H175959   2.367   4.826   3.273  0.7558 -1.5881 -0.6814
18156TIP3    H275960   2.264   4.833   3.384  1.3765  1.7775 -0.2000
18157TIP3   OH275961   4.651   4.447  10.967 -0.1417 -0.3446 -0.1041
18157TIP3    H175962   4.596   4.392  10.911 -1.8110 -0.0787  1.1579
18157TIP3    H275963   4.640   4.535  10.932  1.2494 -0.5567 -1.1508
18158TIP3   OH275964   2.606   0.589   1.010  0.0910 -1.0174  0.2202
18158TIP3    H175965   2.604   0.547   0.924  1.3539  0.5521 -0.6286
18158TIP3    H275966   2.516   0.580   1.043 -0.2302 -2.3135 -0.9158
18159TIP3   OH275967   3.703   0.343   3.872  0.6351  0.2857  0.7065
18159TIP3    H175968   3.667   0.284   3.805  0.0993  0.4752  0.8281
18159TIP3    H275969   3.669   0.309   3.955 -0.1242  1.0945  0.7307
18160TIP3   OH275970   5.360   3.362   0.843  0.9028 -0.1238  0.3594
18160TIP3    H175971   5.351   3.456   0.826 -0.7706 -0.2123  0.6525
18160TIP3    H275972   5.431   3.334   0.785  3.8063  1.8969  2.5774
18161TIP3   OH275973   5.461   1.709   3.950 -0.0831  0.0570  0.2075
18161TIP3    H175974   5.473   1.803   3.945 -0.8619  0.1798  0.4892
18161TIP3    H275975   5.488   1.685   4.039  1.2943 -0.1856 -0.2448
18162TIP3   OH275976   1.082   2.992   0.937 -0.9087 -0.4787 -0.3585
18162TIP3    H175977   1.114   2.979   0.848 -1.6648  2.0687 -1.0999
18162TIP3    H275978   1.006   2.933   0.944 -0.4111 -1.2349 -1.1189
18163TIP3   OH275979   4.394   2.489  16.509  0.6565  0.1988  0.3052
18163TIP3    H175980   4.361   2.493  16.599  1.4224  0.0672  0.5972
18163TIP3    H275981   4.485   2.461  16.518  0.7106  0.0937 -0.5186
18164TIP3   OH275982   0.256   1.237  11.703  0.6019 -0.1423  0.3749
18164TIP3    H175983   0.317   1.310  11.692 -0.5813  0.5813 -2.1856
18164TIP3    H275984   0.312   1.159  11.698  1.5336  0.5294 -0.1378
18165TIP3   OH275985   0.239   6.346  16.646  0.0446  0.1444  0.0051
18165TIP3    H175986   0.330   6.318  16.636  0.1070  0.6911 -1.0491
18165TIP3    H275987   0.200   6.333  16.560 -0.4988  1.2467  0.0677
18166TIP3   OH275988   5.651   6.278  15.658 -0.7424  0.9209 -0.0379
18166TIP3    H175989   5.591   6.210  15.627  0.0092  1.0245 -1.8781
18166TIP3    H275990   5.734   6.257  15.615 -0.5372  3.0861 -0.7961
18167TIP3   OH275991   0.815   5.776   0.993 -0.5064  0.2021  0.0082
18167TIP3    H175992   0.888   5.755   0.935  1.8539  2.3081  1.9983
18167TIP3    H275993   0.797   5.695   1.040 -0.4642 -0.7162 -1.4783
18168TIP3   OH275994   4.766   2.634   1.238  0.1397 -0.2656 -0.4615
18168TIP3    H175995   4.772   2.729   1.229 -0.2387 -0.3438 -1.6827
18168TIP3    H275996   4.678   2.612   1.207  0.3978 -1.0676 -0.6555
18169TIP3   OH275997   0.285   6.089  15.056  0.4872 -0.0311 -0.1292
18169TIP3    H175998   0.240   6.115  15.137  0.2229  0.5077 -0.4432
18169TIP3    H275999   0.327   6.006  15.078  2.8185  1.4382  1.4781
18170TIP3   OH276000   6.071   0.814   2.251  0.1241  0.6230 -1.2273
18170TIP3    H176001   6.139   0.831   2.316 -1.8214  2.2059  0.5450
18170TIP3    H276002   6.055   0.720   2.258  2.0200  0.2214 -1.6464
18171TIP3   OH276003   0.609   6.678  12.401 -0.2289 -0.2292 -0.5376
18171TIP3    H176004   0.612   6.762  12.446 -1.0544 -0.0129 -0.8611
18171TIP3    H276005   0.648   6.694  12.315  1.9948 -0.8082  0.3066
18172TIP3   OH276006   5.650   0.225   1.013  0.5084 -0.1874  0.5119
18172TIP3    H176007   5.581   0.275   1.056  0.2381 -0.4519  0.3800
18172TIP3    H276008   5.649   0.140   1.057  2.3750  0.5906  2.2305
18173TIP3   OH276009   5.526   1.375  11.068  0.2979  0.3421  0.1113
18173TIP3    H176010   5.462   1.306  11.052  1.0290 -0.1517 -0.7771
18173TIP3    H276011   5.510   1.402  11.159 -1.6304  0.7492 -0.3091
18174TIP3   OH276012   3.753   5.810   0.129 -0.1880 -0.1422  0.4452
18174TIP3    H176013   3.800   5.740   0.083 -0.7936 -0.3546  0.1504
18174TIP3    H276014   3.817   5.882   0.133  0.7808 -1.0243  1.6084
18175TIP3   OH276015   3.800   5.566  11.807 -0.3109  0.8794 -0.2439
18175TIP3    H176016   3.862   5.638  11.818 -0.2578  0.9684 -1.0231
18175TIP3    H276017   3.809   5.541  11.715 -0.5962  0.1183 -0.0755
18176TIP3   OH276018   2.322   6.680  13.737 -0.1987  0.4225 -0.7173
18176TIP3    H176019   2.246   6.729  13.769 -0.9569 -0.0546 -1.7032
18176TIP3    H276020   2.284   6.614  13.678  1.0938  1.0961 -2.3670
18177TIP3   OH276021   1.000   3.083   2.708 -0.4074 -0.3957 -0.4142
18177TIP3    H176022   0.980   3.165   2.753 -4.3598  0.2013 -2.7319
18177TIP3    H276023   0.950   3.017   2.756 -0.4915 -0.6691 -0.8651
18178TIP3   OH276024   5.284   1.996   3.458  0.6054 -0.2445  0.2883
18178TIP3    H176025   5.335   1.972   3.381 -0.2681 -2.2501  0.2531
18178TIP3    H276026   5.317   1.939   3.528  0.4591  0.5642  1.0335
18179TIP3   OH276027   6.335   4.023   1.983  0.0744 -0.8181  0.3871
18179TIP3    H176028   6.307   3.979   1.902  1.6921 -1.3414  0.0741
18179TIP3    H276029   6.298   3.969   2.053 -0.5007 -0.9377 -0.0014
18180TIP3   OH276030   1.465   4.805   1.646  0.0515 -0.1674  0.0467
18180TIP3    H176031   1.404   4.761   1.705 -0.4438  2.6524  1.8367
18180TIP3    H276032   1.517   4.861   1.703  2.0067  0.0851 -1.8528
18181TIP3   OH276033   4.204   4.003  14.592 -0.1951  0.5143  0.0272
18181TIP3    H176034   4.187   4.061  14.519  0.3062  1.1940  0.4438
18181TIP3    H276035   4.130   4.016  14.651 -0.9472 -0.5345 -0.6557
18182TIP3   OH276036   1.840   6.066   5.205 -0.0970 -0.2167  0.0412
18182TIP3    H176037   1.770   6.107   5.156  0.2744 -1.5669 -1.7254
18182TIP3    H276038   1.815   6.077   5.297 -2.2437 -0.0284 -0.5184
18183TIP3   OH276039   4.112   6.707   0.419  0.0647 -0.0382  0.3985
18183TIP3    H176040   4.115   6.795   0.382  0.7111 -0.0476  0.4126
18183TIP3    H276041   4.150   6.716   0.506 -1.7213  0.0350  1.2021
18184TIP3   OH276042   3.503   0.970  12.949  0.0264 -0.3082 -0.3594
18184TIP3    H176043   3.547   1.054  12.936 -0.1127  0.1559  1.8125
18184TIP3    H276044   3.562   0.921  13.006  0.2556 -1.8567 -1.8471
18185TIP3   OH276045   6.833   4.606   1.520  0.3726  0.0704 -0.1100
18185TIP3    H176046   6.819   4.542   1.451  0.1345  0.3032 -0.2784
18185TIP3    H276047   6.872   4.556   1.592  1.8081  0.0758 -0.8684
18186TIP3   OH276048   1.059   5.478  14.170 -0.1686  0.1887  0.1983
18186TIP3    H176049   1.021   5.416  14.232  1.6583 -0.7133  0.4866
18186TIP3    H276050   1.141   5.505  14.211  0.1323  1.0946 -0.9506
18187TIP3   OH276051   1.592   0.551   2.987  0.1795 -0.2717  0.5030
18187TIP3    H176052   1.598   0.562   3.082 -1.3744  1.7286  0.4417
18187TIP3    H276053   1.613   0.638   2.952  0.6279 -0.9586 -0.9795
18188TIP3   OH276054   4.173   4.540  12.959  0.4988 -0.2798 -0.0347
18188TIP3    H176055   4.207   4.484  12.889  1.3475  0.2532 -0.0649
18188TIP3    H276056   4.132   4.613  12.913  0.4124 -0.2927  0.0209
18189TIP3   OH276057   3.956   0.667  11.439 -0.0057 -0.8067  0.2178
18189TIP3    H176058   4.028   0.669  11.502  1.5184 -0.2988 -1.4621
18189TIP3    H276059   3.939   0.759  11.420  0.4783 -0.9602 -1.0720
18190TIP3   OH276060   2.372   0.965  12.296  0.3178  0.1515 -0.2456
18190TIP3    H176061   2.309   0.916  12.242 -0.2431 -0.0883  0.6049
18190TIP3    H276062   2.375   1.052  12.255 -0.8723  0.2888 -0.0833
18191TIP3   OH276063   6.769   2.524  16.738  0.0908  0.9029 -0.5736
18191TIP3    H176064   6.852   2.482  16.718 -0.3531 -0.1549 -0.2689
18191TIP3    H276065   6.792   2.599  16.793  0.8688  0.8725 -0.8499
18192TIP3   OH276066   2.051   0.639  12.645 -0.4684 -0.7531  0.1622
18192TIP3    H176067   2.028   0.570  12.581 -2.2117 -0.6758  0.6438
18192TIP3    H276068   2.131   0.678  12.610  0.4431 -2.8367 -0.2702
18193TIP3   OH276069   0.773   1.745   5.559  0.8499 -0.4114 -0.0486
18193TIP3    H176070   0.709   1.710   5.621 -0.5411 -0.5795 -1.4933
18193TIP3    H276071   0.768   1.686   5.484  1.5010  0.5104 -0.8465
18194TIP3   OH276072   0.971   0.026  11.017 -0.3423 -0.0896 -0.0329
18194TIP3    H176073   0.876   0.017  11.008 -0.1165 -0.4212 -2.8680
18194TIP3    H276074   0.999   0.071  10.938  2.0821 -1.6998 -0.1995
18195TIP3   OH276075   6.485   5.778   2.390 -0.0857 -0.4684 -0.4450
18195TIP3    H176076   6.529   5.836   2.452  0.8064 -0.2553 -1.2548
18195TIP3    H276077   6.517   5.691   2.411  0.4480 -0.3595 -0.7938
18196TIP3   OH276078   5.102   0.148   0.992  0.1233 -0.0043  0.4628
18196TIP3    H176079   5.157   0.143   0.914 -0.1067 -1.8760  0.3791
18196TIP3    H276080   5.075   0.058   1.009 -5.0871  0.9284 -1.0044
18197TIP3   OH276081   0.375   1.173   4.573 -0.6253  0.1345  0.0493
18197TIP3    H176082   0.381   1.268   4.587 -0.0501 -0.1013  1.4861
18197TIP3    H276083   0.449   1.136   4.621  0.5803 -0.8903 -2.4240
18198TIP3   OH276084   1.718   4.421  16.605  0.1428  0.2085 -0.2085
18198TIP3    H176085   1.771   4.482  16.555  2.6587 -1.1830  0.6244
18198TIP3    H276086   1.708   4.463  16.691 -0.1340  0.4878 -0.3771
18199TIP3   OH276087   3.704   1.516   3.506  0.1686 -0.5015  0.0419
18199TIP3    H176088   3.649   1.447   3.542  0.2652 -0.4295  0.3284
18199TIP3    H276089   3.685   1.515   3.412  0.0244 -0.7853  0.0730
18200TIP3   OH276090   2.622   4.475  16.804 -0.2739 -0.3896  1.2069
18200TIP3    H176091   2.618   4.474  16.900  0.5049 -0.9646  1.2491
18200TIP3    H276092   2.699   4.421  16.783 -0.4065 -0.2283  0.2614
18201TIP3   OH276093   4.481   1.415   1.549 -0.1291  0.1631 -0.6298
18201TIP3    H176094   4.460   1.433   1.457 -0.4845 -2.5234 -1.1555
18201TIP3    H276095   4.576   1.405   1.551 -0.1117  0.3201 -0.6890
18202TIP3   OH276096   3.268   0.177  14.015  0.2955  0.3334 -0.2674
18202TIP3    H176097   3.206   0.165  14.087  2.0678 -2.0823  0.9647
18202TIP3    H276098   3.213   0.175  13.936 -1.4560  1.1090  0.8621
18203TIP3   OH276099   6.567   5.118   2.233 -0.0822  0.9868  0.2488
18203TIP3    H176100   6.485   5.119   2.282  1.2297  1.1232  2.5867
18203TIP3    H276101   6.605   5.206   2.246  1.6784  0.1038  1.5707
18204TIP3   OH276102   2.601   6.337  13.001  0.0674  0.0827 -0.8442
18204TIP3    H176103   2.563   6.422  12.980  0.5489  0.3128 -0.8144
18204TIP3    H276104   2.625   6.343  13.094  0.2219 -0.0375 -0.8741
18205TIP3   OH276105   3.163   2.309   2.736 -0.8341 -0.4270  0.6842
18205TIP3    H176106   3.186   2.233   2.789 -0.6495 -0.1722  0.9719
18205TIP3    H276107   3.234   2.371   2.751  0.3220 -1.1337 -1.4614
18206TIP3   OH276108   4.132   1.718  12.265  0.5477  0.1198 -0.2945
18206TIP3    H176109   4.125   1.813  12.263 -1.3514  0.0130 -0.1290
18206TIP3    H276110   4.154   1.697  12.356  0.2079  0.3687 -0.1528
18207TIP3   OH276111   3.210   3.160   3.708  0.3906 -0.5897 -0.5632
18207TIP3    H176112   3.209   3.213   3.628 -0.2679  0.8659  0.3870
18207TIP3    H276113   3.145   3.091   3.692  0.0255 -0.1180 -1.1570
18208TIP3   OH276114   3.020   6.079  13.029  0.2315 -0.0938  0.7284
18208TIP3    H176115   2.950   6.143  13.032 -1.4917 -1.8393  4.5090
18208TIP3    H276116   3.100   6.131  13.025 -1.1005  2.0049 -1.6715
18209TIP3   OH276117   1.420   2.230  16.053 -0.4365 -0.5916  0.2273
18209TIP3    H176118   1.455   2.285  15.983  0.2779 -1.3648 -0.0369
18209TIP3    H276119   1.343   2.188  16.013 -1.0031  0.2164  0.4399
18210TIP3   OH276120   2.621   2.441   1.811  0.7038 -0.0677  0.1872
18210TIP3    H176121   2.617   2.354   1.850  2.2103 -0.5342 -0.6244
18210TIP3    H276122   2.590   2.428   1.721  2.3145 -0.0986 -0.3951
18211TIP3   OH276123   2.539   2.038  11.726  0.0617  0.8883  0.3937
18211TIP3    H176124   2.455   2.077  11.704  0.0022  2.0414  2.4350
18211TIP3    H276125   2.568   2.084  11.805  0.3742 -2.6431  2.5875
18212TIP3   OH276126   4.228   0.939   2.379  0.5389 -0.0374 -0.1905
18212TIP3    H176127   4.196   0.875   2.443  1.2691 -0.7912 -0.5534
18212TIP3    H276128   4.307   0.975   2.418 -0.0546  0.9184  0.1633
18213TIP3   OH276129   6.405   2.721   4.959 -0.4155  0.5781 -0.0859
18213TIP3    H176130   6.414   2.777   5.036 -0.1821 -0.2431  0.4900
18213TIP3    H276131   6.311   2.705   4.952 -0.3423 -0.2738  0.7113
18214TIP3   OH276132   6.824   5.524  15.244  0.5838 -0.1414 -0.0133
18214TIP3    H176133   6.885   5.582  15.290 -0.3956  0.1352  0.9812
18214TIP3    H276134   6.742   5.533  15.291 -0.0958 -0.9245 -0.9967
18215TIP3   OH276135   1.376   2.894   3.466  0.0600  0.0373 -0.3880
18215TIP3    H176136   1.328   2.971   3.434  0.1131  0.7982  1.2519
18215TIP3    H276137   1.318   2.855   3.531  1.6339  1.1227  1.8355
18216TIP3   OH276138   4.500   5.149   2.631  0.3134 -0.0287  0.0133
18216TIP3    H176139   4.550   5.192   2.701  2.8933  0.6246 -2.0816
18216TIP3    H276140   4.446   5.218   2.594 -1.8203 -0.5930  1.8725
18217TIP3   OH276141   1.243   6.243  17.081  0.6598 -0.4704  0.0571
18217TIP3    H176142   1.302   6.318  17.087 -0.3262  0.3352 -0.0929
18217TIP3    H276143   1.176   6.259  17.147 -1.2306  0.3320 -1.9197
18218TIP3   OH276144   0.383   5.220  12.840  0.0394  0.1012 -0.6566
18218TIP3    H176145   0.357   5.166  12.765 -1.5330  0.3666 -0.3364
18218TIP3    H276146   0.305   5.227  12.894 -0.0338  3.1155 -0.9453
18219TIP3   OH276147   4.235   3.090  10.457  0.2741  0.2566 -0.3276
18219TIP3    H176148   4.228   3.051  10.370  1.2823  0.5774 -0.5601
18219TIP3    H276149   4.319   3.058  10.490 -0.8774 -1.3336  1.2650
18220TIP3   OH276150   1.378   0.103   0.628  0.6034 -0.5363  0.1822
18220TIP3    H176151   1.423   0.186   0.643  3.2446 -1.6497 -0.8250
18220TIP3    H276152   1.286   0.126   0.615  1.2580  2.1902 -0.0673
18221TIP3   OH276153   0.796   1.561   1.425  0.0539  0.0498  0.4883
18221TIP3    H176154   0.855   1.510   1.370  1.6924 -0.2292  2.4021
18221TIP3    H276155   0.830   1.651   1.419 -0.7857  0.3303 -0.2387
18222TIP3   OH276156   6.039   1.432  10.460  0.1660 -0.1353  0.3478
18222TIP3    H176157   6.133   1.443  10.444 -0.1061  4.5971  0.7425
18222TIP3    H276158   6.000   1.435  10.372  0.2432  1.2358  0.3364
18223TIP3   OH276159   4.772   2.453   1.842  0.1959  0.3952  0.6938
18223TIP3    H176160   4.796   2.482   1.930 -2.1461 -0.8922  1.8454
18223TIP3    H276161   4.763   2.534   1.792 -0.5739  1.3183  2.2463
18224TIP3   OH276162   6.494   6.006  16.132 -0.1047  0.4039  0.2510
18224TIP3    H176163   6.525   6.060  16.059 -2.6655  1.0307 -0.4667
18224TIP3    H276164   6.514   6.058  16.210  1.0375  0.5361 -0.1026
18225TIP3   OH276165   6.810   4.948   3.646 -0.0695 -0.3875 -0.6163
18225TIP3    H176166   6.829   4.991   3.562 -0.8199 -0.8999 -1.0564
18225TIP3    H276167   6.896   4.929   3.683  0.2689  0.3464 -1.0098
18226TIP3   OH276168   4.837   3.979   3.698 -0.1745 -0.8312 -0.0816
18226TIP3    H176169   4.882   4.032   3.632  0.8086 -0.1561  1.0723
18226TIP3    H276170   4.869   3.891   3.684 -0.7518 -0.8943 -1.1296
18227TIP3   OH276171   0.244   5.920  12.216  0.1682 -0.0039  0.3102
18227TIP3    H176172   0.154   5.954  12.221 -0.0218 -0.2435 -1.0290
18227TIP3    H276173   0.233   5.829  12.188  0.8292  0.0739 -0.2291
18228TIP3   OH276174   0.081   2.065  10.151  0.0042  0.4372  0.7371
18228TIP3    H176175   0.070   2.084  10.244 -0.9868  0.7420  0.5763
18228TIP3    H276176   0.090   1.970  10.147  0.8642  0.4902  1.2050
18229TIP3   OH276177   4.117   5.752  10.404  0.3216  0.2838 -0.1422
18229TIP3    H176178   4.184   5.757  10.473 -0.8684  2.2244  0.9788
18229TIP3    H276179   4.103   5.843  10.378 -0.8495 -0.2208 -1.3889
18230TIP3   OH276180   0.886   3.595  16.188  0.0874  0.4838  0.7383
18230TIP3    H176181   0.879   3.552  16.274 -0.1891 -0.1755  0.4003
18230TIP3    H276182   0.937   3.534  16.135 -1.5736 -0.1748 -0.1908
18231TIP3   OH276183   5.544   2.651  15.224  0.0897 -0.2085 -0.0441
18231TIP3    H176184   5.520   2.561  15.202 -1.5250  0.0168  0.6334
18231TIP3    H276185   5.479   2.705  15.178  0.6863  0.5727  0.0142
18232TIP3   OH276186   5.716   5.014  14.178  0.4983 -0.0636 -0.3684
18232TIP3    H176187   5.714   4.948  14.247 -0.5193 -0.3196 -0.6237
18232TIP3    H276188   5.809   5.036  14.168  0.7791 -0.9446  0.1965
18233TIP3   OH276189   4.740   3.297  13.404  0.1072  0.1218 -0.2884
18233TIP3    H176190   4.685   3.264  13.476 -0.6827  0.9081 -0.5115
18233TIP3    H276191   4.827   3.263  13.423  0.2411  1.4330  1.8291
18234TIP3   OH276192   1.985   2.998   1.249  0.5515  0.1832 -0.5151
18234TIP3    H176193   2.057   2.995   1.313 -0.4071  0.9572  0.6233
18234TIP3    H276194   1.995   3.082   1.206 -1.8948  2.1651  2.3932
18235TIP3   OH276195   3.089   3.234   2.969  0.0883 -0.0721 -0.1286
18235TIP3    H176196   3.099   3.140   2.985 -2.2254  0.0298  2.6195
18235TIP3    H276197   3.063   3.239   2.877 -0.6435 -2.2318 -0.1058
18236TIP3   OH276198   4.478   6.359  17.144  0.1563  0.1779 -0.0295
18236TIP3    H176199   4.398   6.397  17.109  1.0621  0.7804 -1.5530
18236TIP3    H276200   4.509   6.422  17.209  0.1619  0.6814 -0.5146
18237TIP3   OH276201   3.931   1.205   0.170  0.5779  0.0339  0.1023
18237TIP3    H176202   3.886   1.131   0.130 -0.1342  0.2029  0.5868
18237TIP3    H276203   3.917   1.277   0.108 -0.2318  0.2058  0.4677
18238TIP3   OH276204   1.089   2.622  16.230  0.3693 -0.2329 -0.1327
18238TIP3    H176205   1.034   2.596  16.304  2.4666  0.9826  1.9683
18238TIP3    H276206   1.156   2.553  16.225  0.8455  0.2345 -0.2196
18239TIP3   OH276207   1.232   3.979  11.436 -0.0560 -0.2792  0.5422
18239TIP3    H176208   1.231   3.993  11.341  1.0083  1.1374  0.7025
18239TIP3    H276209   1.321   4.004  11.462  0.4685 -2.9264  1.6112
18240TIP3   OH276210   1.365   1.408  12.568  0.2299 -0.2047  0.1789
18240TIP3    H176211   1.288   1.352  12.554  0.9002 -0.9447 -0.6316
18240TIP3    H276212   1.329   1.497  12.576 -0.7076 -0.5443 -0.1282
18241TIP3   OH276213   1.026   1.083   5.856  0.6592  0.0738 -0.3704
18241TIP3    H176214   0.966   1.021   5.815  0.5449 -0.3606  0.4253
18241TIP3    H276215   1.030   1.055   5.948  1.4673  0.5710 -0.2428
18242TIP3   OH276216   5.663   6.145  12.711  0.2852  0.5573 -0.0360
18242TIP3    H176217   5.603   6.072  12.723  2.4331 -1.3390 -0.0288
18242TIP3    H276218   5.675   6.151  12.616  0.7913  0.2585  0.0007
18243TIP3   OH276219   6.150   0.826   4.959  0.1133 -0.0664  0.0680
18243TIP3    H176220   6.194   0.851   4.878 -1.0806  0.1337 -0.5395
18243TIP3    H276221   6.094   0.901   4.979  0.4350 -0.0937  1.1169
18244TIP3   OH276222   6.096   1.636  14.335 -0.0144 -0.0578  0.0677
18244TIP3    H176223   6.141   1.587  14.266  2.1569  1.3133  0.4040
18244TIP3    H276224   6.024   1.681  14.290 -0.6350 -1.6919 -0.6491
18245TIP3   OH276225   6.330   5.626   5.410 -0.5677 -0.0459 -0.6058
18245TIP3    H176226   6.414   5.581   5.402 -0.4712  0.0570 -0.1887
18245TIP3    H276227   6.287   5.612   5.325 -1.1739 -2.1837 -0.0177
18246TIP3   OH276228   1.955   0.795   2.883 -0.4049 -0.1270  0.2666
18246TIP3    H176229   1.929   0.717   2.834 -0.6359  0.9631 -1.3938
18246TIP3    H276230   1.873   0.842   2.899 -0.2172 -0.0087  0.8963
18247TIP3   OH276231   4.852   0.484   4.470  0.1894 -0.2696  0.0936
18247TIP3    H176232   4.765   0.510   4.441 -0.0237 -0.9420  0.1136
18247TIP3    H276233   4.883   0.558   4.523 -0.9168 -0.5639  1.2044
18248TIP3   OH276234   4.368   3.236  13.345 -0.2689  0.6839 -0.3973
18248TIP3    H176235   4.365   3.212  13.437  1.1765  0.5312 -0.3555
18248TIP3    H276236   4.428   3.173  13.306 -0.8960  0.7196 -1.4580
18249TIP3   OH276237   3.443   3.783  12.881  0.2524  1.0952 -0.0473
18249TIP3    H176238   3.397   3.748  12.957 -0.2108  0.7196 -0.4958
18249TIP3    H276239   3.460   3.874  12.903  0.3045  0.9362  0.5912
18250TIP3   OH276240   0.356   4.134  12.790 -0.0952 -0.0307  0.9126
18250TIP3    H176241   0.433   4.125  12.845  0.5448  0.9917  0.2292
18250TIP3    H276242   0.285   4.096  12.841  0.9783 -1.6465  1.2557
18251TIP3   OH276243   2.636   1.028  13.953  0.1116 -0.1198 -0.0054
18251TIP3    H176244   2.601   1.096  13.896 -1.1759 -1.1367 -0.4624
18251TIP3    H276245   2.560   0.976  13.979  0.8291 -0.3881  1.7121
18252TIP3   OH276246   5.392   4.991   2.897 -0.5387 -0.1604  0.0451
18252TIP3    H176247   5.300   4.983   2.872 -0.4862  0.1339 -0.2548
18252TIP3    H276248   5.440   4.960   2.820 -0.3577  1.6600 -0.6205
18253TIP3   OH276249   4.044   1.163   0.396  0.6547  0.5947 -0.0192
18253TIP3    H176250   4.096   1.243   0.388  0.3692  0.7906  0.0634
18253TIP3    H276251   4.029   1.134   0.306  0.7030  0.6732 -0.0522
18254TIP3   OH276252   5.500   2.134  13.590  0.3168  0.1962  0.8931
18254TIP3    H176253   5.410   2.165  13.600 -0.3384 -1.2131 -0.2692
18254TIP3    H276254   5.492   2.039  13.585  1.7223  0.1282 -0.6557
18255TIP3   OH276255   5.286   3.925   1.324  0.2996  0.4481 -0.0651
18255TIP3    H176256   5.324   3.838   1.337 -3.5196 -1.4957 -0.4364
18255TIP3    H276257   5.279   3.934   1.229  0.2989  1.0077 -0.0134
18256TIP3   OH276258   2.487   0.699  11.514 -0.1309 -0.5770  0.0519
18256TIP3    H176259   2.556   0.757  11.548  1.0650 -1.9583  0.0678
18256TIP3    H276260   2.414   0.710  11.575  0.2169  0.5909  0.2828
18257TIP3   OH276261   5.612   2.671  14.911 -0.2932 -0.7027  0.2741
18257TIP3    H176262   5.679   2.732  14.940 -0.6371  0.0501 -0.4910
18257TIP3    H276263   5.636   2.588  14.953  1.2715 -0.5193 -0.2011
18258TIP3   OH276264   0.727   0.245   5.457  0.2342  0.6745 -0.3673
18258TIP3    H176265   0.745   0.314   5.521 -0.2764  0.8423 -0.3959
18258TIP3    H276266   0.809   0.234   5.409  1.6277 -1.5559  2.2448
18259TIP3   OH276267   3.161   4.444   3.410 -0.4742 -0.1734 -0.4024
18259TIP3    H176268   3.147   4.532   3.445  1.3403  0.0747 -0.2326
18259TIP3    H276269   3.135   4.451   3.318 -0.1130  0.5961 -0.4500
18260TIP3   OH276270   2.011   4.049  15.515  0.2319 -0.1906  0.1612
18260TIP3    H176271   1.921   4.068  15.490 -0.0685 -2.1092 -0.3415
18260TIP3    H276272   2.016   4.070  15.608 -1.2031 -1.5798  0.5903
18261TIP3   OH276273   3.045   2.494  10.919 -0.4247 -0.4731  0.1821
18261TIP3    H176274   2.966   2.532  10.881 -0.4066 -0.6353 -0.0218
18261TIP3    H276275   3.051   2.407  10.879 -1.4970 -1.4487  2.0598
18262TIP3   OH276276   1.099   0.806   4.061  0.2643  0.2514 -0.3254
18262TIP3    H176277   1.144   0.735   4.015 -0.3274 -0.9352  0.8483
18262TIP3    H276278   1.023   0.825   4.007  0.4450  0.0211 -0.6673
18263TIP3   OH276279   3.393   4.236  14.677 -0.4402  0.0442  0.0179
18263TIP3    H176280   3.333   4.162  14.666 -0.5359  0.2595 -1.0435
18263TIP3    H276281   3.429   4.250  14.590 -0.8638  1.6071  0.0684
18264TIP3   OH276282   0.683   4.302   6.235  0.3644 -0.2376  0.1399
18264TIP3    H176283   0.760   4.245   6.238  1.3395  0.9331 -1.2993
18264TIP3    H276284   0.692   4.360   6.310  0.5874 -0.4629  0.2875
18265TIP3   OH276285   6.223   4.175  11.735 -0.2274  0.0168  0.5453
18265TIP3    H176286   6.148   4.152  11.790 -0.6329  0.9087  0.3788
18265TIP3    H276287   6.239   4.267  11.753 -0.4532  0.3620 -0.9239
18266TIP3   OH276288   1.686   5.356  12.071 -0.1789  0.5271  0.5536
18266TIP3    H176289   1.751   5.361  12.001 -0.2709  0.3860  0.4574
18266TIP3    H276290   1.667   5.263  12.079  0.8770  0.3844  1.7275
18267TIP3   OH276291   4.351   5.382   4.206  0.0103 -0.5806  0.2565
18267TIP3    H176292   4.322   5.384   4.115 -0.9615 -0.7930  0.5519
18267TIP3    H276293   4.333   5.293   4.236  0.5697 -0.5906  0.5815
18268TIP3   OH276294   5.017   2.376   0.740  0.2045  0.2866  0.2177
18268TIP3    H176295   4.926   2.393   0.761  0.2538  0.5774  0.1941
18268TIP3    H276296   5.014   2.338   0.652  0.1445  0.7458  0.0210
18269TIP3   OH276297   0.755   2.548   0.513  0.1203  0.4295  0.3653
18269TIP3    H176298   0.674   2.569   0.466  1.8937 -0.6244 -3.6062
18269TIP3    H276299   0.822   2.602   0.471  2.0047 -1.1115  1.2300
18270TIP3   OH276300   6.165   1.269  13.224  0.4796 -0.2599  0.3261
18270TIP3    H176301   6.149   1.357  13.258  0.9769 -0.0355 -0.0102
18270TIP3    H276302   6.160   1.213  13.301 -1.4245 -0.1525  0.3200
18271TIP3   OH276303   2.975   6.760  14.765  0.1129 -0.2147 -0.5872
18271TIP3    H176304   3.011   6.792  14.848 -1.1124 -0.6437  0.1284
18271TIP3    H276305   2.881   6.754  14.780 -0.2430  0.5684 -2.3165
18272TIP3   OH276306   1.589   4.380   4.974 -0.6792 -0.5248  0.2140
18272TIP3    H176307   1.543   4.429   4.906  0.6083  1.9653  1.0267
18272TIP3    H276308   1.543   4.296   4.978 -2.5804  0.3342 -1.7257
18273TIP3   OH276309   3.592   3.525   0.408 -1.0028 -0.0934 -0.2493
18273TIP3    H176310   3.662   3.510   0.344 -1.5557 -0.3056 -0.8096
18273TIP3    H276311   3.588   3.621   0.415  1.0264 -0.0589  1.6818
18274TIP3   OH276312   0.639   2.120  15.622 -0.9425  0.1263 -0.4141
18274TIP3    H176313   0.670   2.132  15.532 -1.0145 -1.5748 -0.6931
18274TIP3    H276314   0.694   2.050  15.657 -2.2478 -0.6253  0.1892
18275TIP3   OH276315   1.595   0.244  10.237  0.2395  0.3137  0.2448
18275TIP3    H176316   1.574   0.186  10.163 -0.6703 -0.4938  1.0982
18275TIP3    H276317   1.685   0.272  10.221  0.0428  0.2186 -1.2050
18276TIP3   OH276318   5.324   6.051  11.480 -0.3303  0.6690  0.0390
18276TIP3    H176319   5.343   6.145  11.491 -0.5936  0.9840 -1.8942
18276TIP3    H276320   5.277   6.027  11.560  1.9047  1.5505  1.7307
18277TIP3   OH276321   5.474   5.108   3.436 -0.1198 -0.3345  0.7685
18277TIP3    H176322   5.509   5.069   3.356 -0.9667  1.4679 -0.5628
18277TIP3    H276323   5.482   5.039   3.502  1.4139 -1.5920 -0.6325
18278TIP3   OH276324   1.767   0.369   4.351  0.6667  0.0918  0.1628
18278TIP3    H176325   1.791   0.305   4.418 -0.2176 -0.0200  0.3802
18278TIP3    H276326   1.696   0.327   4.302  0.8510  0.4492 -0.4184
18279TIP3   OH276327   2.038   1.084   1.006 -0.2991 -0.1978  0.4466
18279TIP3    H176328   2.115   1.107   1.057 -0.3225  1.0909 -0.0656
18279TIP3    H276329   1.967   1.078   1.071  0.1122 -0.8675  0.8469
18280TIP3   OH276330   2.467   3.640   4.223 -0.1489  0.6127  0.5096
18280TIP3    H176331   2.543   3.691   4.193  0.9292 -1.7730 -1.2003
18280TIP3    H276332   2.488   3.616   4.313  0.3263  1.4025  0.6169
18281TIP3   OH276333   3.580   3.650  13.971 -0.0126  0.1951  0.4337
18281TIP3    H176334   3.675   3.651  13.961 -0.0499  0.2045  0.0835
18281TIP3    H276335   3.554   3.562  13.942 -0.0277 -0.1021  1.3054
18282TIP3   OH276336   2.776   3.720  15.150  0.0083 -0.0331 -0.1219
18282TIP3    H176337   2.748   3.656  15.084 -0.4636 -0.1587  0.1990
18282TIP3    H276338   2.723   3.798  15.131  0.9631  0.4628 -0.8558
18283TIP3   OH276339   1.420   0.145  14.385 -0.4177  0.0854  0.2653
18283TIP3    H176340   1.438   0.180  14.472 -0.0850 -0.8032  0.5609
18283TIP3    H276341   1.407   0.223  14.330  1.2589  0.7099  0.7005
18284TIP3   OH276342   4.637   1.341   1.261 -0.2791 -0.3235 -0.3101
18284TIP3    H176343   4.716   1.293   1.239 -0.3737  0.9957 -4.4381
18284TIP3    H276344   4.668   1.428   1.287 -0.3234 -0.6149  0.7499
18285TIP3   OH276345   6.163   0.498   4.113  0.7217 -0.2913  0.3139
18285TIP3    H176346   6.103   0.474   4.043  0.9161 -0.9634  0.3762
18285TIP3    H276347   6.205   0.416   4.138  1.5751  0.1510  0.3555
18286TIP3   OH276348   0.847   3.707  12.650  0.2061  0.2638  0.0630
18286TIP3    H176349   0.929   3.715  12.699 -0.1987  0.2307  0.7685
18286TIP3    H276350   0.873   3.675  12.564  0.7825 -1.4519  0.8325
18287TIP3   OH276351   4.955   3.148  13.479  0.0817  0.0093  0.6866
18287TIP3    H176352   4.997   3.091  13.544  0.8434 -1.7385 -1.2088
18287TIP3    H276353   5.024   3.168  13.416 -0.5198  2.0215  0.6021
18288TIP3   OH276354   3.231   4.213  17.140  0.2710 -0.2234 -0.1419
18288TIP3    H176355   3.203   4.122  17.150  0.5452 -0.4308 -1.1617
18288TIP3    H276356   3.309   4.221  17.193  1.1396 -1.0193 -1.2558
18289TIP3   OH276357   3.641   3.472  15.116  0.0941  0.5390 -0.1128
18289TIP3    H176358   3.725   3.447  15.156  0.4031  0.7542 -0.6090
18289TIP3    H276359   3.604   3.536  15.177 -0.8881 -1.3305  1.3641
18290TIP3   OH276360   0.646   3.081   3.123 -0.0644  0.3757  0.2225
18290TIP3    H176361   0.560   3.038   3.123  1.1917 -2.2915 -0.0499
18290TIP3    H276362   0.709   3.010   3.125  2.2162  2.2157 -0.9913
18291TIP3   OH276363   1.813   4.460   4.840  0.5133 -0.4336  0.5897
18291TIP3    H176364   1.903   4.464   4.871  0.3659 -0.2343  0.9839
18291TIP3    H276365   1.767   4.408   4.905 -0.2540  1.6627  1.8057
18292TIP3   OH276366   6.236   6.353  14.065  0.0565  0.7771  0.1652
18292TIP3    H176367   6.167   6.418  14.085 -2.7056 -1.5865 -0.9598
18292TIP3    H276368   6.297   6.400  14.009 -2.0944  2.3240 -1.0247
18293TIP3   OH276369   3.913   0.605  16.212  0.4177  0.4994  0.3949
18293TIP3    H176370   3.894   0.526  16.262  0.0162  0.2675 -0.1167
18293TIP3    H276371   3.999   0.589  16.174 -0.3262 -0.3648 -0.9906
18294TIP3   OH276372   1.586   6.050  12.129  0.3877  0.1308  0.2994
18294TIP3    H176373   1.606   5.970  12.178 -0.3583 -0.4640 -0.3382
18294TIP3    H276374   1.575   6.020  12.039 -0.2192  0.9093  0.1058
18295TIP3   OH276375   3.230   2.268  16.394  0.9800  0.3292 -0.9152
18295TIP3    H176376   3.154   2.325  16.404  0.1386 -0.8801 -0.2490
18295TIP3    H276377   3.284   2.287  16.471  0.3373 -0.3077 -0.3022
18296TIP3   OH276378   0.569   1.274  10.516  0.0047 -0.2991 -0.4596
18296TIP3    H176379   0.539   1.359  10.483  1.2086 -0.1096 -1.1006
18296TIP3    H276380   0.606   1.293  10.602 -0.1566 -0.2583 -0.3976
18297TIP3   OH276381   1.345   0.244  11.888  0.1489 -0.3563  0.1626
18297TIP3    H176382   1.326   0.275  11.976  1.5736 -1.3370  0.8633
18297TIP3    H276383   1.437   0.217  11.891  0.1928 -0.5615 -1.5853
18298TIP3   OH276384   3.431   5.402   0.840 -0.1885 -0.0817 -0.1589
18298TIP3    H176385   3.506   5.446   0.798 -0.8348  2.9028  1.5291
18298TIP3    H276386   3.439   5.425   0.933 -3.4300  0.7745  0.0121
18299TIP3   OH276387   5.323   0.171  16.905 -0.3061 -0.2474 -0.1269
18299TIP3    H176388   5.333   0.249  16.960 -2.1322 -0.7986  1.0791
18299TIP3    H276389   5.235   0.140  16.923 -1.6519  0.3518 -4.5113
18300TIP3   OH276390   0.798   1.513   3.662 -0.6584  0.0622  0.2095
18300TIP3    H176391   0.755   1.574   3.602  0.1355  0.3916 -0.0349
18300TIP3    H276392   0.761   1.428   3.640 -1.7524  0.4365  0.5294
18301TIP3   OH276393   1.926   4.273  16.704  0.6007 -0.0106 -0.4796
18301TIP3    H176394   1.862   4.343  16.693  0.5357  0.1413  0.7749
18301TIP3    H276395   2.008   4.310  16.672  0.6682  0.8236  0.6079
18302TIP3   OH276396   2.551   6.093  11.279  0.2073  0.6073  0.2547
18302TIP3    H176397   2.461   6.105  11.309  0.9012 -0.2977  2.9668
18302TIP3    H276398   2.545   6.096  11.183 -2.6733  0.5666  0.3531
18303TIP3   OH276399   4.052   6.141   1.469  0.1547 -0.5431  0.1829
18303TIP3    H176400   3.994   6.182   1.533 -0.7201  0.3226 -1.0940
18303TIP3    H276401   4.080   6.060   1.510  0.2592  0.3390  1.9644
18304TIP3   OH276402   0.791   3.451   1.004 -0.3206 -0.1454  0.1282
18304TIP3    H176403   0.862   3.499   0.962 -0.3741  0.1501  0.3745
18304TIP3    H276404   0.809   3.359   0.984 -0.5645  0.0203 -0.8693
18305TIP3   OH276405   3.823   4.677  13.403  0.2874 -0.1557 -0.3412
18305TIP3    H176406   3.807   4.714  13.489 -0.2249 -1.4009  0.1271
18305TIP3    H276407   3.736   4.648  13.373  0.4837  0.1092 -1.2004
18306TIP3   OH276408   2.822   4.529   1.750  0.3051  0.0344 -0.0898
18306TIP3    H176409   2.798   4.537   1.658 -0.0890  0.5561  0.0517
18306TIP3    H276410   2.748   4.483   1.790  0.5096 -0.2592 -0.0465
18307TIP3   OH276411   1.933   0.099  12.776  0.0499  0.3300 -0.5060
18307TIP3    H176412   1.857   0.123  12.830 -0.6442 -3.3056  0.4312
18307TIP3    H276413   1.897   0.088  12.688  0.2565  1.9425 -0.8130
18308TIP3   OH276414   5.673   1.165  12.285  0.1623 -0.4869 -0.1912
18308TIP3    H176415   5.726   1.216  12.223 -1.5686  1.6683 -0.0126
18308TIP3    H276416   5.733   1.144  12.356  1.2779  0.1286 -0.9170
18309TIP3   OH276417   6.829   4.871  11.038 -0.0207  0.1658 -0.2527
18309TIP3    H176418   6.772   4.901  10.968 -0.4650  0.5592  0.2646
18309TIP3    H276419   6.879   4.798  11.000 -0.3027  0.3304 -0.9442
18310TIP3   OH276420   4.459   0.326  11.575  0.5942  0.5873  0.2143
18310TIP3    H176421   4.447   0.313  11.669 -0.6943 -1.7997 -0.1921
18310TIP3    H276422   4.393   0.391  11.551  1.7762  2.1833  1.1028
18311TIP3   OH276423   5.668   3.304  16.228 -0.1940  0.4852 -0.1504
18311TIP3    H176424   5.653   3.313  16.322 -1.1184  2.3420 -0.4281
18311TIP3    H276425   5.752   3.258  16.222 -0.7512 -0.8616  1.5427
18312TIP3   OH276426   0.120   6.393  15.748 -0.6706 -0.6499  0.3508
18312TIP3    H176427   0.208   6.394  15.785 -0.3277 -3.4521 -0.1207
18312TIP3    H276428   0.133   6.416  15.656 -0.7134  0.6590  0.6561
18313TIP3   OH276429   5.997   1.019   1.055 -0.5024  0.0513 -0.1548
18313TIP3    H176430   5.916   0.983   1.091 -1.5523  1.5123 -0.9112
18313TIP3    H276431   6.023   1.087   1.117 -0.7062  0.5982 -0.6538
18314TIP3   OH276432   5.696   5.817  13.237  0.3163  0.1728 -0.1126
18314TIP3    H176433   5.632   5.766  13.187  0.8842 -0.5460 -0.1221
18314TIP3    H276434   5.780   5.773  13.220  0.6060  0.2875  0.9823
18315TIP3   OH276435   4.855   3.282   6.033 -0.9112 -0.5244  0.3294
18315TIP3    H176436   4.902   3.258   6.113  0.4342 -0.9241 -0.5542
18315TIP3    H276437   4.794   3.351   6.061  1.2632  1.1408  1.2791
18316TIP3   OH276438   6.235   3.835   2.238  0.1265  0.0852  0.5068
18316TIP3    H176439   6.308   3.855   2.296 -0.3068  2.4153  0.3445
18316TIP3    H276440   6.164   3.892   2.268 -0.0845  1.4860 -2.3102
18317TIP3   OH276441   6.293   1.963   3.698  0.3681 -0.1649 -0.4234
18317TIP3    H176442   6.235   1.989   3.627  0.5520  1.3123 -0.0781
18317TIP3    H276443   6.251   1.996   3.777  1.2894  0.2863 -0.0970
18318TIP3   OH276444   3.183   1.516  10.987  0.1380  0.4061  0.0931
18318TIP3    H176445   3.170   1.428  10.954 -0.3490  0.1621  0.8890
18318TIP3    H276446   3.242   1.557  10.925 -1.5000  0.3046 -1.6240
18319TIP3   OH276447   0.169   5.042   3.454 -0.1868 -0.6308 -0.0363
18319TIP3    H176448   0.151   5.066   3.363 -1.8671 -1.1924  0.1178
18319TIP3    H276449   0.231   4.969   3.448  0.5106  0.0094 -0.6900
18320TIP3   OH276450   0.946   0.402  12.103  0.1967  0.5686 -0.5945
18320TIP3    H176451   1.005   0.347  12.155 -0.1370  0.2491 -0.5485
18320TIP3    H276452   0.995   0.420  12.022  0.7440  1.1219 -0.1499
18321TIP3   OH276453   6.516   1.068   6.198  0.3741 -0.5975 -0.1477
18321TIP3    H176454   6.449   1.044   6.262 -1.1098  0.3278 -1.2924
18321TIP3    H276455   6.531   1.161   6.212 -0.6862 -0.1431 -1.7233
18322TIP3   OH276456   3.166   6.666  14.056 -0.4209 -0.1354  0.0839
18322TIP3    H176457   3.153   6.696  13.966  1.7427 -0.7771 -0.5070
18322TIP3    H276458   3.090   6.611  14.074 -0.8479 -0.0820 -1.3855
18323TIP3   OH276459   2.733   1.336  15.872 -0.3873  0.0592  0.2715
18323TIP3    H176460   2.666   1.304  15.933 -1.4311  0.7224 -0.5061
18323TIP3    H276461   2.749   1.262  15.814 -0.6364 -0.0234  0.3060
18324TIP3   OH276462   4.741   1.189  12.762  0.7605  0.1983  0.3462
18324TIP3    H176463   4.689   1.139  12.699 -0.2418  1.7021 -0.0859
18324TIP3    H276464   4.718   1.152  12.847  1.3821 -1.2019 -0.0628
18325TIP3   OH276465   3.814   0.469   2.291 -0.4141 -0.5705  0.2461
18325TIP3    H176466   3.831   0.401   2.226  0.4281 -0.7910  0.6800
18325TIP3    H276467   3.739   0.517   2.257  0.1041 -0.5898 -0.9501
18326TIP3   OH276468   0.186   6.685  16.520 -0.1146 -0.3892 -0.6387
18326TIP3    H176469   0.244   6.750  16.481 -0.3355  0.6451  0.6865
18326TIP3    H276470   0.245   6.621  16.561  0.1037 -1.0884 -1.9986
18327TIP3   OH276471   0.022   2.356  16.144 -0.1692  0.4635 -0.2049
18327TIP3    H176472   0.057   2.267  16.149 -0.6264  0.3408  2.7118
18327TIP3    H276473  -0.072   2.344  16.132 -0.3960  0.4551  1.3548
18328TIP3   OH276474   2.866   1.624  13.811  0.2523 -0.6458 -0.0323
18328TIP3    H176475   2.810   1.696  13.840 -0.9009 -0.4869 -2.4148
18328TIP3    H276476   2.806   1.551  13.794  0.7911 -0.7427 -1.8089
18329TIP3   OH276477   0.225   1.275  10.132  0.0307 -0.2294 -0.2647
18329TIP3    H176478   0.241   1.198  10.187 -0.0101  1.1074  1.7094
18329TIP3    H276479   0.311   1.316  10.124  0.7482 -2.0358 -3.9862
18330TIP3   OH276480   0.964   0.221   5.339 -0.1170 -0.1626 -0.1764
18330TIP3    H176481   1.050   0.237   5.300 -0.3110  0.3749 -0.3899
18330TIP3    H276482   0.954   0.126   5.334  0.3839 -0.2159 -0.3189
18331TIP3   OH276483   3.982   1.220   4.836 -0.0174 -0.1185 -0.5887
18331TIP3    H176484   3.975   1.315   4.823  0.1999  0.1079  0.8343
18331TIP3    H276485   3.901   1.195   4.880  1.7506  0.2308  3.2656
18332TIP3   OH276486   5.200   2.998  11.613 -0.0463 -0.2114 -0.1613
18332TIP3    H176487   5.204   3.094  11.614  1.1485 -0.2344  0.4097
18332TIP3    H276488   5.116   2.977  11.574  0.1739  1.0657 -1.4140
18333TIP3   OH276489   4.806   3.457   0.134  0.2403 -0.0242  0.1744
18333TIP3    H176490   4.786   3.512   0.059 -1.2566 -0.4206  0.2530
18333TIP3    H276491   4.816   3.518   0.207  2.3172  0.4211 -0.4030
18334TIP3   OH276492   5.201   0.802   3.112 -0.1938 -0.4066  0.4654
18334TIP3    H176493   5.283   0.778   3.155  0.6911  1.9261  0.1916
18334TIP3    H276494   5.154   0.854   3.177 -0.3416  0.3401 -0.2258
18335TIP3   OH276495   3.365   1.984  14.832  0.3710 -0.2236 -0.2103
18335TIP3    H176496   3.412   1.901  14.824  1.7672  0.2724  1.9594
18335TIP3    H276497   3.273   1.961  14.821  0.8526 -1.7981 -1.1683
18336TIP3   OH276498   4.599   0.429  11.038  0.1913  0.1950 -0.3707
18336TIP3    H176499   4.624   0.507  10.989  1.1706  0.7231  0.9157
18336TIP3    H276500   4.681   0.390  11.065 -0.3130 -0.0720  0.8468
18337TIP3   OH276501   1.836   6.377   4.212  1.0345  1.1285  0.1635
18337TIP3    H176502   1.875   6.293   4.235 -0.0417  1.1673  2.4129
18337TIP3    H276503   1.803   6.365   4.123 -0.7152 -1.4902  1.0563
18338TIP3   OH276504   6.679   5.090  13.787  0.1092  0.0280  0.7461
18338TIP3    H176505   6.700   5.047  13.869 -0.7511  0.3618  1.1528
18338TIP3    H276506   6.751   5.153  13.773 -0.9141  1.6970  2.4849
18339TIP3   OH276507   0.747   4.472   2.181  0.4216  0.3672 -0.3536
18339TIP3    H176508   0.680   4.438   2.123  0.0396  1.9655 -0.9051
18339TIP3    H276509   0.805   4.398   2.198 -0.3503 -0.5194 -1.4837
18340TIP3   OH276510   0.145   1.883  16.232  0.0420  0.2767 -0.0967
18340TIP3    H176511   0.197   1.913  16.307 -0.3145  1.1998 -0.2117
18340TIP3    H276512   0.161   1.788  16.228  0.2216  0.2488  1.0214
18341TIP3   OH276513   3.068   5.403  11.318 -0.0535  0.2405 -0.0932
18341TIP3    H176514   3.161   5.426  11.318 -0.2416  1.0949  1.3609
18341TIP3    H276515   3.033   5.440  11.399 -1.7080  0.0824 -0.6799
18342TIP3   OH276516   6.609   0.730   2.440 -0.2286 -0.2060 -0.1654
18342TIP3    H176517   6.616   0.644   2.398  3.0745  0.0302 -0.3995
18342TIP3    H276518   6.618   0.792   2.368 -0.1765  0.2762  0.2505
18343TIP3   OH276519   5.873   2.463   5.529 -0.2003 -0.3297  0.6290
18343TIP3    H176520   5.901   2.515   5.604  0.8410 -0.3349  0.2531
18343TIP3    H276521   5.950   2.412   5.505 -0.8477 -1.1519  0.2352
18344TIP3   OH276522   5.372   6.114   5.148 -0.2377  0.4388 -0.2943
18344TIP3    H176523   5.450   6.129   5.095 -0.9192 -0.6133 -1.6541
18344TIP3    H276524   5.371   6.186   5.211  0.3772  2.0073 -2.0020
18345TIP3   OH276525   1.403   3.227  13.918  0.2944 -0.4608  0.1140
18345TIP3    H176526   1.473   3.164  13.937  0.7162  0.5179  2.0927
18345TIP3    H276527   1.448   3.311  13.916 -0.5174 -0.0401 -0.8218
18346TIP3   OH276528   1.746   6.680  13.502 -0.5840 -0.4875  0.2094
18346TIP3    H176529   1.782   6.598  13.536 -1.5552  0.0699  2.8114
18346TIP3    H276530   1.823   6.727  13.468  0.3413 -1.4910  0.8389
18347TIP3   OH276531   2.545   6.087   1.022  0.1364  0.3719 -0.9083
18347TIP3    H176532   2.550   5.992   1.019  0.0531  0.3790 -3.5467
18347TIP3    H276533   2.637   6.115   1.028  0.1065  0.1923  1.4614
18348TIP3   OH276534   1.023   2.084  13.296  0.2583  0.3461 -0.4120
18348TIP3    H176535   0.934   2.119  13.289  0.5157  1.0493 -0.2896
18348TIP3    H276536   1.012   1.989  13.288 -0.3494  0.5040 -1.7985
18349TIP3   OH276537   2.932   6.564   3.783  0.5348  0.1405  0.1714
18349TIP3    H176538   2.896   6.579   3.696 -0.3656  2.1597  0.8211
18349TIP3    H276539   2.975   6.646   3.806 -0.7374  0.2962  2.2791
18350TIP3   OH276540   6.289   4.059  15.501  0.3580 -0.1886  0.3983
18350TIP3    H176541   6.382   4.054  15.478  0.0541 -2.1036 -0.6406
18350TIP3    H276542   6.260   4.143  15.466  1.9400  1.0181  1.8462
18351TIP3   OH276543   2.426   3.828   3.350  0.8679  0.2688 -0.0485
18351TIP3    H176544   2.343   3.793   3.381  1.3246  0.7958  1.9455
18351TIP3    H276545   2.468   3.754   3.305  0.3126 -0.7123  0.9868
18352TIP3   OH276546   1.506   3.659  13.195  0.1509 -0.1705 -0.0442
18352TIP3    H176547   1.493   3.641  13.288  1.7579 -0.0136  0.2388
18352TIP3    H276548   1.586   3.611  13.172 -0.3623 -0.4004 -1.4079
18353TIP3   OH276549   0.837   2.558   3.415 -0.0144 -0.2819  0.9190
18353TIP3    H176550   0.764   2.522   3.364  0.8680 -2.2319  0.9369
18353TIP3    H276551   0.915   2.535   3.365  0.7340 -0.2808  2.0421
18354TIP3   OH276552   6.754   6.533   1.551  0.0349 -0.1286 -0.1694
18354TIP3    H176553   6.837   6.519   1.596 -0.3582  1.1310  0.9944
18354TIP3    H276554   6.750   6.462   1.486  1.1123 -1.3508  1.0437
18355TIP3   OH276555   0.321   6.236  13.754  0.3475 -0.4798 -0.1641
18355TIP3    H176556   0.333   6.271  13.666  1.1865 -1.1747 -0.3301
18355TIP3    H276557   0.327   6.141  13.744  0.7561 -0.5538  0.6770
18356TIP3   OH276558   4.750   6.288   3.001 -0.0600  0.0908 -0.4182
18356TIP3    H176559   4.660   6.320   3.008  0.3231  1.0493  0.3260
18356TIP3    H276560   4.743   6.208   2.949 -1.1911  0.7909 -1.3883
18357TIP3   OH276561   5.790   0.498   0.405 -0.0753 -0.1257 -0.0144
18357TIP3    H176562   5.820   0.588   0.417  0.3515 -0.1540 -0.8121
18357TIP3    H276563   5.865   0.444   0.430  0.0769 -0.2274 -0.6769
18358TIP3   OH276564   2.168   1.028   4.373 -0.8466 -0.1027  0.5297
18358TIP3    H176565   2.221   1.039   4.451  0.8284 -0.3158 -0.5245
18358TIP3    H276566   2.150   1.117   4.343  0.2146 -0.0208  0.0828
18359TIP3   OH276567   0.527   5.449  12.950 -0.0611  0.2872  0.1675
18359TIP3    H176568   0.498   5.359  12.937  0.1645  0.1788  0.4146
18359TIP3    H276569   0.543   5.481  12.861  0.0374  0.0241  0.0881
18360TIP3   OH276570   6.359   4.651  14.026  0.3851  0.0458  0.3515
18360TIP3    H176571   6.283   4.680  13.976 -0.1490  0.2588  1.2632
18360TIP3    H276572   6.397   4.581  13.973 -2.3268 -2.3688  1.3116
18361TIP3   OH276573   1.285   1.896   2.609  0.1653 -0.0769  0.3954
18361TIP3    H176574   1.362   1.911   2.555  0.2408  0.7017  0.7029
18361TIP3    H276575   1.216   1.949   2.568 -0.1235 -0.5168  0.3070
18362TIP3   OH276576   0.815   1.936   5.771  0.6664 -0.2643  0.2158
18362TIP3    H176577   0.818   2.018   5.722  0.3245 -1.0207 -1.1395
18362TIP3    H276578   0.777   1.873   5.709  3.3824 -2.0952  0.2700
18363TIP3   OH276579   0.296   1.994  13.516 -0.2509  0.8579 -0.3370
18363TIP3    H176580   0.368   1.951  13.562  0.1824 -1.1717 -2.6792
18363TIP3    H276581   0.223   1.992  13.577  1.0885  1.1023  1.3490
18364TIP3   OH276582   0.759   6.429   4.698 -0.4295  0.1151  0.3007
18364TIP3    H176583   0.850   6.442   4.724 -0.2861 -0.8195  0.2900
18364TIP3    H276584   0.758   6.446   4.604 -0.8447  2.9715  0.7340
18365TIP3   OH276585   2.854   0.706  12.391 -0.0839  0.0715  0.1217
18365TIP3    H176586   2.846   0.623  12.343 -0.4573  0.2808 -0.1819
18365TIP3    H276587   2.763   0.731  12.409  0.0674 -0.5221  1.8351
18366TIP3   OH276588   4.726   5.068  13.485 -0.3856 -0.4030 -0.0660
18366TIP3    H176589   4.680   5.024  13.414 -0.2426 -0.1569 -0.3137
18366TIP3    H276590   4.743   5.156  13.451  0.1991 -0.4689  0.0498
18367TIP3   OH276591   1.588   5.107  12.115 -0.5530 -0.2040  0.3971
18367TIP3    H176592   1.538   5.063  12.047 -0.4160  0.8510 -0.4254
18367TIP3    H276593   1.620   5.037  12.171 -1.6705 -1.0037  0.0598
18368TIP3   OH276594   5.689   3.190  14.803  0.2727 -0.3198  0.2315
18368TIP3    H176595   5.630   3.229  14.868  0.3840 -1.3869  1.0002
18368TIP3    H276596   5.774   3.230  14.822  0.1700 -0.1266  0.2945
18369TIP3   OH276597   1.409   5.462  14.598 -0.5384  0.9699  0.4474
18369TIP3    H176598   1.465   5.505  14.662 -1.5896  3.2239 -0.0383
18369TIP3    H276599   1.459   5.385  14.569  1.4252  1.8207  1.4146
18370TIP3   OH276600   0.724   3.817  10.639  0.4288  0.2201  0.0547
18370TIP3    H176601   0.791   3.843  10.575  0.8980 -0.0913  0.4124
18370TIP3    H276602   0.641   3.840  10.597  0.7986  1.8911  0.1870
18371TIP3   OH276603   6.808   3.673   2.772  0.2665  0.4292  0.1094
18371TIP3    H176604   6.769   3.587   2.789  0.3880  0.5748  1.2465
18371TIP3    H276605   6.889   3.672   2.823  0.5240  1.0288 -0.2801
18372TIP3   OH276606   1.314   1.003   5.430 -0.5305  0.0660  0.1959
18372TIP3    H176607   1.357   0.921   5.454 -1.1536 -0.6939 -1.1906
18372TIP3    H276608   1.224   0.992   5.459 -1.0658 -0.4994 -1.5686
18373TIP3   OH276609   4.918   5.519  15.508  0.4047  0.2812  0.4459
18373TIP3    H176610   4.982   5.590  15.498 -0.3016  0.8921  0.0745
18373TIP3    H276611   4.866   5.523  15.427  1.7053 -2.0861 -0.6074
18374TIP3   OH276612   3.131   0.194  13.774  0.3594 -0.1384 -0.5382
18374TIP3    H176613   3.083   0.223  13.696  1.2527  0.2475 -0.9560
18374TIP3    H276614   3.191   0.127  13.742  0.3708 -0.3458 -0.0883
18375TIP3   OH276615   1.489   1.647   1.070  0.3538 -0.5771 -0.1245
18375TIP3    H176616   1.580   1.617   1.079  0.4352 -0.9443 -1.7647
18375TIP3    H276617   1.496   1.742   1.060  0.2387 -0.1078  3.2554
18376TIP3   OH276618   1.395   6.054   0.069 -0.5052  0.0408  0.0194
18376TIP3    H176619   1.344   6.132   0.046  0.6849  1.2617  1.3629
18376TIP3    H276620   1.408   6.061   0.163  0.9283 -0.9893 -0.0781
18377TIP3   OH276621   1.831   0.683  12.343 -0.6613 -0.7347  0.1672
18377TIP3    H176622   1.767   0.701  12.413  0.2541  0.5706  0.6977
18377TIP3    H276623   1.852   0.769  12.307  0.3549 -1.2026 -0.3896
18378TIP3   OH276624   4.653   6.731   4.449 -0.0438  0.1567  0.0983
18378TIP3    H176625   4.707   6.738   4.527 -0.3493  2.7062  0.1462
18378TIP3    H276626   4.563   6.724   4.481 -0.0554 -0.3236 -0.0262
18379TIP3   OH276627   1.852   5.054   0.749  0.1585  0.1846 -0.2719
18379TIP3    H176628   1.815   4.971   0.779  1.0648 -0.5408 -1.1074
18379TIP3    H276629   1.841   5.113   0.824 -0.3429 -0.7281  0.3955
18380TIP3   OH276630   0.864   2.169  12.255  0.0960  0.2958 -0.0010
18380TIP3    H176631   0.801   2.124  12.311  0.1881 -0.6250 -0.6107
18380TIP3    H276632   0.949   2.137  12.284  0.0805 -1.1722 -1.4699
18381TIP3   OH276633   5.961   6.777  15.089 -0.3838  0.4276 -0.1241
18381TIP3    H176634   5.957   6.696  15.037 -0.6290  0.2461  0.1765
18381TIP3    H276635   6.055   6.795  15.097 -0.2539  2.5487 -3.8406
18382TIP3   OH276636   5.067   2.010   1.888 -0.0072  0.1077  0.2575
18382TIP3    H176637   5.122   1.982   1.815 -1.0983 -0.3565 -0.4165
18382TIP3    H276638   5.120   1.994   1.966  1.2636  0.8017 -0.4189
18383TIP3   OH276639   3.079   5.289  13.950 -0.0065  0.2240 -0.4838
18383TIP3    H176640   3.158   5.312  13.998  0.0936  1.5599 -1.2438
18383TIP3    H276641   3.105   5.295  13.858 -0.9683  0.6147 -0.7366
18384TIP3   OH276642   6.022   6.774  12.516  0.4227 -0.2014 -0.0063
18384TIP3    H176643   5.926   6.775  12.507  0.3494 -1.5902  0.4182
18384TIP3    H276644   6.038   6.748  12.606  1.1561 -3.4759 -0.9427
18385TIP3   OH276645   2.935   5.268   1.037 -0.0557 -0.2292 -0.7814
18385TIP3    H176646   2.905   5.230   0.954 -0.8424 -0.5752 -0.3569
18385TIP3    H276647   2.867   5.244   1.100 -0.1755  1.2086 -0.3184
18386TIP3   OH276648   6.103   5.096   0.045  0.7273 -0.4729  0.5711
18386TIP3    H176649   6.036   5.139  -0.008  1.5305 -1.5308 -1.3831
18386TIP3    H276650   6.171   5.162   0.056  0.6320 -0.2955  0.1291
18387TIP3   OH276651   4.621   6.717  15.666  0.4748 -0.1340  0.2910
18387TIP3    H176652   4.631   6.715  15.571 -1.5570  0.8710 -0.0025
18387TIP3    H276653   4.654   6.803  15.692  0.7539 -0.2904  0.4528
18388TIP3   OH276654   1.787   3.655   3.479 -0.1469  0.6393 -0.6524
18388TIP3    H176655   1.769   3.584   3.541 -1.1284  0.4610 -1.1162
18388TIP3    H276656   1.877   3.639   3.450 -0.7210 -1.1233 -1.6250
18389TIP3   OH276657   6.302   1.527   5.045 -0.5560 -0.1438 -0.4860
18389TIP3    H176658   6.362   1.572   4.987 -0.2925  1.0269  0.6453
18389TIP3    H276659   6.331   1.435   5.044  0.7065  0.2430 -0.6329
18390TIP3   OH276660   1.878   5.338  13.164  0.1932 -0.5081  0.3262
18390TIP3    H176661   1.878   5.412  13.103 -0.5699 -0.4110  0.4320
18390TIP3    H276662   1.897   5.262  13.110 -0.7715 -0.4603 -0.0877
18391TIP3   OH276663   0.076   6.389   5.430  0.3726 -0.5239 -0.2583
18391TIP3    H176664   0.080   6.398   5.525  2.0169  1.0824 -0.4208
18391TIP3    H276665   0.093   6.296   5.414  0.8411 -0.6738  1.0064
18392TIP3   OH276666   4.713   0.393  11.630 -0.4523 -0.1950 -0.2132
18392TIP3    H176667   4.618   0.392  11.615 -0.4526  0.4646 -0.2691
18392TIP3    H276668   4.728   0.321  11.691 -0.8792 -0.8508 -0.8623
18393TIP3   OH276669   4.280   1.803   5.003 -0.1011 -0.1380  0.0358
18393TIP3    H176670   4.355   1.856   4.974  0.5356 -1.2314 -0.3829
18393TIP3    H276671   4.239   1.774   4.921 -0.2556 -0.5516  0.2630
18394TIP3   OH276672   4.783   3.715  10.638  0.2147 -0.0095 -0.0601
18394TIP3    H176673   4.797   3.745  10.549  1.6709  0.0748  0.1862
18394TIP3    H276674   4.706   3.658  10.631  0.6418 -0.4690 -1.4789
18395TIP3   OH276675   4.144   2.922  16.402 -0.1708 -0.3009 -0.3654
18395TIP3    H176676   4.223   2.945  16.451 -0.7548  1.3373 -0.1532
18395TIP3    H276677   4.072   2.947  16.460 -0.9069  2.7721 -2.4051
18396TIP3   OH276678   1.134   0.316   6.596  0.7019  0.2652 -0.9158
18396TIP3    H176679   1.142   0.367   6.515 -0.2632 -0.7020 -1.6438
18396TIP3    H276680   1.177   0.371   6.663  0.8658  1.4145 -1.9251
18397TIP3   OH276681   1.932   3.006  13.704  0.3081 -0.2308  0.1836
18397TIP3    H176682   1.926   2.918  13.743 -0.6560 -0.0010  0.5838
18397TIP3    H276683   1.887   2.998  13.620 -0.6730  0.1185  0.6669
18398TIP3   OH276684   5.104   2.061  13.918  0.1229  0.6566 -0.1369
18398TIP3    H176685   5.190   2.030  13.891  0.1199 -0.0182  0.5978
18398TIP3    H276686   5.122   2.124  13.988 -0.0115 -1.2061  1.6967
18399TIP3   OH276687   0.534   2.000   4.609 -0.5551  0.2948  0.0969
18399TIP3    H176688   0.619   2.034   4.580 -0.4149  0.8231  1.0555
18399TIP3    H276689   0.546   1.905   4.614  0.6363  0.4936  2.1217
18400TIP3   OH276690   3.565   0.819  16.527 -0.6285 -0.3420 -0.2024
18400TIP3    H176691   3.558   0.727  16.554  2.0136  0.0790  2.3622
18400TIP3    H276692   3.613   0.816  16.445  0.8959 -1.2477  0.6737
18401TIP3   OH276693   3.436   2.601   3.043 -0.2467 -0.0508  0.1678
18401TIP3    H176694   3.522   2.588   3.084  0.6275 -0.1002 -1.5807
18401TIP3    H276695   3.435   2.539   2.970 -0.7007  1.6877 -1.3830
18402TIP3   OH276696   1.185   1.915   0.260 -0.1351  0.4127 -0.7854
18402TIP3    H176697   1.142   1.889   0.341 -2.1513 -0.1416 -1.9417
18402TIP3    H276698   1.247   1.845   0.242 -1.5085 -0.8010 -0.9897
18403TIP3   OH276699   2.558   1.507  11.776  0.7462 -0.0842 -0.7688
18403TIP3    H176700   2.475   1.461  11.765  0.5544 -0.9132  2.8083
18403TIP3    H276701   2.533   1.599  11.787  0.7188  0.2675 -3.1927
18404TIP3   OH276702   1.233   1.656  12.548 -0.4710  0.0913  0.1547
18404TIP3    H176703   1.144   1.667  12.514  0.2741 -0.4354 -2.1769
18404TIP3    H276704   1.290   1.685  12.477  1.2458 -0.2080  1.3268
18405TIP3   OH276705   3.363   2.549   4.728  0.6590  0.0668 -0.2993
18405TIP3    H176706   3.299   2.482   4.704  0.8267 -0.2267  0.0608
18405TIP3    H276707   3.324   2.631   4.700  0.0541 -0.0914  0.0684
18406TIP3   OH276708   1.458   0.185  16.183  0.5844 -0.2951 -0.2933
18406TIP3    H176709   1.433   0.205  16.274 -0.1130  0.2779 -0.5986
18406TIP3    H276710   1.547   0.220  16.175  0.3591  0.3445 -0.0547
18407TIP3   OH276711   5.129   5.385   4.821 -0.0706  0.7055 -0.1651
18407TIP3    H176712   5.205   5.336   4.788  0.6565  1.9605 -0.4473
18407TIP3    H276713   5.096   5.432   4.744  1.3703  3.3202  0.6934
18408TIP3   OH276714   2.915   3.829  10.664  0.6171 -0.1232  0.3577
18408TIP3    H176715   2.921   3.875  10.580  0.1062 -1.5054 -0.4680
18408TIP3    H276716   2.844   3.873  10.711  0.2792  0.0687 -0.3226
18409TIP3   OH276717   6.384   3.940   2.703  0.4810 -0.3963 -0.0056
18409TIP3    H176718   6.469   3.897   2.700  0.1079 -1.0980 -1.5431
18409TIP3    H276719   6.323   3.870   2.729  0.6320  0.7011  4.1485
18410TIP3   OH276720   3.249   4.010   4.973 -0.0614  0.5003 -0.4683
18410TIP3    H176721   3.297   3.932   4.944 -0.2037  0.7358 -1.3729
18410TIP3    H276722   3.299   4.083   4.937  1.1762  0.9604  1.9852
18411TIP3   OH276723   6.368   6.577   2.692 -0.6689 -0.1891 -0.4309
18411TIP3    H176724   6.445   6.631   2.710 -0.8964  0.2636 -0.7677
18411TIP3    H276725   6.297   6.641   2.680 -1.4730 -0.6466  1.5061
18412TIP3   OH276726   5.913   4.766  16.721 -0.0174  0.4665  0.5210
18412TIP3    H176727   5.867   4.747  16.803 -0.5681  0.3463  0.1918
18412TIP3    H276728   5.865   4.715  16.655  1.2913 -0.5858  0.3369
18413TIP3   OH276729   6.660   2.385   4.647 -0.4008 -0.4211  0.0960
18413TIP3    H176730   6.649   2.336   4.729 -0.4535  1.4100  1.2545
18413TIP3    H276731   6.579   2.435   4.639  0.8894  1.9365  0.7523
18414TIP3   OH276732   3.134   2.977   2.972  0.3766 -0.2308 -0.3204
18414TIP3    H176733   3.050   2.955   2.931  0.0435  2.2331 -1.1284
18414TIP3    H276734   3.198   2.924   2.924 -0.4661 -0.3533 -1.3513
18415TIP3   OH276735   5.095   0.377   4.413  0.2934  0.2533  0.0310
18415TIP3    H176736   5.000   0.388   4.409  0.2596  0.9806  1.7464
18415TIP3    H276737   5.108   0.303   4.472  0.7868  0.3728  0.0793
18416TIP3   OH276738   6.736   0.203   2.946  0.0673 -0.3741 -0.9901
18416TIP3    H176739   6.658   0.219   2.894 -0.5849 -0.7446 -0.1392
18416TIP3    H276740   6.704   0.183   3.034  1.1235 -0.2737 -0.5601
18417TIP3   OH276741   6.723   4.762   3.444  0.0831  0.0741 -0.1887
18417TIP3    H176742   6.648   4.717   3.483  0.0853 -0.2715 -0.5770
18417TIP3    H276743   6.762   4.810   3.517 -1.4179  1.5280 -0.2864
18418TIP3   OH276744   6.412   1.198   1.405  0.2093  0.0033  0.2683
18418TIP3    H176745   6.368   1.228   1.485  0.3885  1.0292 -0.0114
18418TIP3    H276746   6.383   1.258   1.337 -1.2054 -1.7988 -0.8287
18419TIP3   OH276747   3.810   5.082   2.719  0.1093  0.7896  0.2089
18419TIP3    H176748   3.791   5.016   2.786  0.5968  1.4960  1.0693
18419TIP3    H276749   3.754   5.157   2.743 -1.9077  0.0787 -1.8590
18420TIP3   OH276750   0.475   6.460   5.800  0.8162  0.1583 -0.6625
18420TIP3    H176751   0.462   6.515   5.878  0.5476 -1.9964  0.8883
18420TIP3    H276752   0.570   6.452   5.791  0.8454  0.2126 -0.4075
18421TIP3   OH276753   6.072   6.662   2.708 -0.5343  0.2691 -0.1769
18421TIP3    H176754   6.001   6.677   2.646 -1.4979 -1.1683  0.5226
18421TIP3    H276755   6.078   6.567   2.714  1.3550  0.3706 -0.0823
18422TIP3   OH276756   0.009   0.970  13.595 -0.1605  0.5317  0.7204
18422TIP3    H176757   0.048   1.035  13.537  0.6014  1.0838  1.8315
18422TIP3    H276758  -0.074   1.009  13.623  0.1697  0.9259  1.1708
18423TIP3   OH276759   4.990   2.785  13.482  0.6605 -0.9077 -0.9618
18423TIP3    H176760   4.921   2.849  13.502  1.1005 -0.9026  0.6441
18423TIP3    H276761   4.989   2.778  13.386 -0.8225 -0.0907 -1.0343
18424TIP3   OH276762   0.262   5.735  11.560 -0.0605  0.1050 -0.0558
18424TIP3    H176763   0.229   5.728  11.650  0.3914  1.1814  0.2174
18424TIP3    H276764   0.309   5.653  11.545 -1.4366 -0.7527  0.1240
18425TIP3   OH276765   1.191   4.714  14.616 -0.0986  0.7331  0.0546
18425TIP3    H176766   1.183   4.712  14.520 -0.3104 -0.4330  0.0758
18425TIP3    H276767   1.164   4.626  14.643  2.0361  0.3163  1.0204
18426TIP3   OH276768   1.514   2.183   3.759  0.1738 -0.2820  0.0784
18426TIP3    H176769   1.428   2.223   3.745  0.0660 -0.3578  0.5270
18426TIP3    H276770   1.552   2.177   3.671  0.0070  0.3925 -0.0478
18427TIP3   OH276771   1.955   3.341   6.369  0.0067 -0.0135  0.0493
18427TIP3    H176772   2.049   3.357   6.374  0.1288 -0.6257 -0.1363
18427TIP3    H276773   1.920   3.417   6.323  0.5909 -0.3582 -1.0107
18428TIP3   OH276774   4.422   5.934  15.237  0.1086  0.2996 -0.2232
18428TIP3    H176775   4.350   5.972  15.288 -0.0030  0.2558 -0.3475
18428TIP3    H276776   4.496   5.934  15.297 -0.8825 -3.1252  1.2338
18429TIP3   OH276777   4.449   2.706  11.961 -0.4661  0.0979  0.6443
18429TIP3    H176778   4.382   2.644  11.989 -1.1196  0.2984 -0.4071
18429TIP3    H276779   4.473   2.678  11.873  1.0915 -0.1597  1.1212
18430TIP3   OH276780   0.809   2.957  17.114 -0.0365  0.1773 -0.1470
18430TIP3    H176781   0.731   3.006  17.139  0.0134  0.8038 -1.1686
18430TIP3    H276782   0.879   2.993  17.168 -0.4064 -0.2748  0.6533
18431TIP3   OH276783   0.596   0.208   1.450 -0.4227  0.0813 -0.0324
18431TIP3    H176784   0.539   0.133   1.439 -2.2802  1.4574 -0.3324
18431TIP3    H276785   0.677   0.185   1.404 -0.3434 -2.2666  1.1483
18432TIP3   OH276786   3.002   3.713  14.989 -0.5218 -0.4482  0.0600
18432TIP3    H176787   2.975   3.679  15.074 -1.1723  0.6202  0.3049
18432TIP3    H276788   3.061   3.785  15.009 -0.9463  0.0341 -0.3683
18433TIP3   OH276789   4.363   5.105   3.478 -0.4714 -0.1359  0.4821
18433TIP3    H176790   4.276   5.065   3.480 -0.8817  0.6946  0.0004
18433TIP3    H276791   4.422   5.038   3.512 -1.2882 -0.7470  0.7076
18434TIP3   OH276792   3.612   0.926  16.053 -0.5285 -0.3903  0.0405
18434TIP3    H176793   3.545   0.944  15.987 -1.0319 -1.8979  0.1030
18434TIP3    H276794   3.693   0.918  16.004  0.4765  4.9641  0.2416
18435TIP3   OH276795   6.395   0.262   0.911 -0.9283 -0.2177  0.2396
18435TIP3    H176796   6.455   0.254   0.837  1.1728  0.2251  1.8054
18435TIP3    H276797   6.349   0.178   0.913 -1.0003 -0.2646 -1.4881
18436TIP3   OH276798   2.410   6.551  12.075 -0.7381  0.0992  0.0295
18436TIP3    H176799   2.384   6.626  12.129 -1.3363  0.9077 -1.3143
18436TIP3    H276800   2.500   6.571  12.049 -0.8763  0.3527 -0.2771
18437TIP3   OH276801   2.466   5.998   3.906 -0.0531  0.1599 -0.4121
18437TIP3    H176802   2.521   6.039   3.974  0.6567  0.9058 -1.4078
18437TIP3    H276803   2.430   6.072   3.857 -1.5300 -0.3392 -0.1414
18438TIP3   OH276804   4.020   1.772  10.448 -0.7248 -0.4212  0.0241
18438TIP3    H176805   3.995   1.679  10.451 -1.2723 -0.2705  0.1596
18438TIP3    H276806   4.041   1.794  10.538 -1.6192 -0.1430  0.1791
18439TIP3   OH276807   3.585   5.828   5.105 -0.3268  0.2368 -0.1692
18439TIP3    H176808   3.572   5.761   5.039 -0.0828 -0.6674  0.6743
18439TIP3    H276809   3.542   5.793   5.183  0.0353  0.9395  0.3560
18440TIP3   OH276810   5.154   2.144   5.031 -0.0033  0.3343 -0.0670
18440TIP3    H176811   5.164   2.202   5.106  0.0094  0.6820 -0.3373
18440TIP3    H276812   5.238   2.149   4.985 -1.3070  3.3957 -2.4406
18441TIP3   OH276813   0.885   5.912  13.673  0.3493  0.1907  0.5830
18441TIP3    H176814   0.867   5.904  13.767  1.0067  1.6704  0.8676
18441TIP3    H276815   0.969   5.957  13.670 -0.8591  2.4796 -0.7299
18442TIP3   OH276816   1.660   4.749  16.618 -0.0094 -0.0731  0.0357
18442TIP3    H176817   1.594   4.755  16.688  0.1988  0.4159  0.1954
18442TIP3    H276818   1.743   4.735  16.665  0.1375  0.3075 -0.1123
18443TIP3   OH276819   1.441   4.734   5.601  0.0345 -0.1978  0.2998
18443TIP3    H176820   1.485   4.763   5.681 -1.0376 -1.7335  1.4962
18443TIP3    H276821   1.481   4.787   5.532  0.9375  1.2359  1.8365
18444TIP3   OH276822   5.898   1.402  10.185  0.4581  0.1351  0.7773
18444TIP3    H176823   5.843   1.388  10.108 -0.5882 -0.0813  1.5294
18444TIP3    H276824   5.932   1.491  10.174  0.3917  0.0742  0.0252
18445TIP3   OH276825   1.869   6.462  15.963  0.5503 -1.0645 -0.7254
18445TIP3    H176826   1.866   6.386  16.020 -0.6370  0.2647  1.0888
18445TIP3    H276827   1.889   6.535  16.021 -1.9799  0.5568 -1.7119
18446TIP3   OH276828   3.181   6.336   3.027  0.1043  0.5001  0.3603
18446TIP3    H176829   3.162   6.310   2.937 -0.8905 -1.2147  1.0091
18446TIP3    H276830   3.263   6.384   3.022 -0.0081  0.5584 -1.4708
18447TIP3   OH276831   3.257   5.190   0.752  0.2552 -0.3646  0.2593
18447TIP3    H176832   3.206   5.211   0.831  0.8910 -1.1051  0.8787
18447TIP3    H276833   3.348   5.207   0.777  0.3366  1.2481 -0.9314
18448TIP3   OH276834   3.357   1.403  11.180 -0.1296 -0.3977  0.4505
18448TIP3    H176835   3.287   1.450  11.135  1.4506  0.1490 -1.6004
18448TIP3    H276836   3.347   1.312  11.152  0.9863 -0.0253 -1.3741
18449TIP3   OH276837   4.316   5.540  14.666  0.2461 -0.4010 -0.6830
18449TIP3    H176838   4.279   5.496  14.742  1.6007 -2.6555 -1.2373
18449TIP3    H276839   4.303   5.633  14.684 -3.0547 -0.9210  0.4133
18450TIP3   OH276840   3.826   2.894   4.005  0.2525  0.2606  0.0943
18450TIP3    H176841   3.823   2.804   3.974 -2.0802  0.1905  0.3321
18450TIP3    H276842   3.776   2.944   3.940 -0.5282  0.9431  1.1839
18451TIP3   OH276843   2.948   4.930   0.449 -0.0368  0.5364  0.2277
18451TIP3    H176844   2.908   4.848   0.480 -0.3000  1.0758  1.3544
18451TIP3    H276845   3.009   4.954   0.518 -1.1380  2.1281  0.7099
18452TIP3   OH276846   5.715   2.811  14.493  0.1162 -0.3190 -0.6541
18452TIP3    H176847   5.761   2.754  14.432  0.0281  0.2134 -1.2294
18452TIP3    H276848   5.649   2.755  14.534  0.1088 -0.6598 -1.1222
18453TIP3   OH276849   3.261   0.231   5.411 -0.5410 -0.1600  0.0484
18453TIP3    H176850   3.268   0.302   5.346  0.8486  0.2636  0.6239
18453TIP3    H276851   3.168   0.227   5.431 -0.8190  0.6202 -0.9722
18454TIP3   OH276852   3.687   3.272  15.412  0.8195 -0.1718  0.3785
18454TIP3    H176853   3.619   3.218  15.452 -2.1304  2.8924  0.0035
18454TIP3    H276854   3.715   3.223  15.335 -2.6327 -0.7669 -0.6834
18455TIP3   OH276855   4.637   2.904  13.964 -0.3954  0.5326 -0.4689
18455TIP3    H176856   4.707   2.873  14.021 -2.2542 -1.6322  0.7603
18455TIP3    H276857   4.682   2.959  13.899  2.3558 -0.4618  0.4659
18456TIP3   OH276858   1.635   5.263   4.627  0.4347 -0.2269  0.0076
18456TIP3    H176859   1.615   5.169   4.634 -0.9037  0.1599  1.9239
18456TIP3    H276860   1.676   5.285   4.711  1.5213  0.7684 -0.7438
18457TIP3   OH276861   3.573   6.103   0.997 -0.1151 -0.2001 -0.2630
18457TIP3    H176862   3.492   6.103   0.946  0.0255 -0.1059 -0.4895
18457TIP3    H276863   3.605   6.193   0.990 -0.3490 -0.0598  0.4020
18458TIP3   OH276864   2.857   4.015  13.473  0.0987 -0.2826 -0.0113
18458TIP3    H176865   2.781   4.045  13.523 -0.0794 -1.6539  0.5775
18458TIP3    H276866   2.932   4.036  13.529  0.0750  0.0812 -0.1110
18459TIP3   OH276867   4.416   2.153  11.564  0.2740 -0.5093  0.2220
18459TIP3    H176868   4.428   2.217  11.493  2.0854 -0.8011  0.2062
18459TIP3    H276869   4.360   2.085  11.526 -0.9347  0.6110 -0.0527
18460TIP3   OH276870   1.472   2.444   4.636 -0.0670 -0.2304 -0.2736
18460TIP3    H176871   1.491   2.410   4.724 -3.9134  1.3540  1.3888
18460TIP3    H276872   1.497   2.537   4.642 -2.2076  0.3765 -0.0748
18461TIP3   OH276873   3.212   6.528   2.706  0.2123 -0.0402 -0.0985
18461TIP3    H176874   3.303   6.506   2.726  0.9402  0.7208 -2.2546
18461TIP3    H276875   3.204   6.514   2.612 -0.6980  3.6783 -0.7555
18462TIP3   OH276876   2.539   2.208  10.456 -0.6584  0.2287  0.3536
18462TIP3    H176877   2.459   2.214  10.509  0.5871  1.9614  2.2315
18462TIP3    H276878   2.601   2.163  10.513 -0.4525 -1.9009 -1.4118
18463TIP3   OH276879   0.421   6.779  15.268  0.2987 -0.6044  0.3297
18463TIP3    H176880   0.417   6.793  15.173  2.3154 -1.2383  0.1157
18463TIP3    H276881   0.464   6.858  15.302  2.2746 -1.6128  0.3204
18464TIP3   OH276882   6.359   5.801  12.766  0.5638  0.0192 -0.5109
18464TIP3    H176883   6.404   5.884  12.776  0.9738 -0.0044 -1.9379
18464TIP3    H276884   6.426   5.740  12.736  0.1420 -0.6879 -0.0685
18465TIP3   OH276885   2.000   4.766   4.000  0.1592 -0.4005 -0.3276
18465TIP3    H176886   1.908   4.746   3.984 -0.0699  0.1843  0.1973
18465TIP3    H276887   2.031   4.695   4.056 -0.9645  1.1875  2.5420
18466TIP3   OH276888   0.996   0.526   1.672 -0.4590  0.0649 -0.0176
18466TIP3    H176889   0.942   0.494   1.599 -0.8896 -0.2706  0.4417
18466TIP3    H276890   0.933   0.555   1.737 -0.0717  0.5244  0.1564
18467TIP3   OH276891   4.061   3.714  12.428 -0.1641  0.3262 -0.3609
18467TIP3    H176892   3.999   3.745  12.494 -0.5011  1.2215 -1.0625
18467TIP3    H276893   4.145   3.748  12.457 -0.1601 -0.0421  0.0697
18468TIP3   OH276894   0.620   5.284   5.871  0.1360 -0.1752  0.3683
18468TIP3    H176895   0.535   5.277   5.915  0.0509  2.3097  0.7434
18468TIP3    H276896   0.684   5.283   5.942  0.1581  1.4125  0.3967
18469TIP3   OH276897   6.106   6.773  16.542 -0.1340 -0.5268  0.3801
18469TIP3    H176898   6.069   6.812  16.621 -0.3140  2.2447 -0.9418
18469TIP3    H276899   6.201   6.774  16.556 -0.1182  0.7056  0.2939
18470TIP3   OH276900   4.390   2.546   4.592  0.5103  0.0576  0.3833
18470TIP3    H176901   4.387   2.638   4.620 -0.4697  1.0113 -2.4832
18470TIP3    H276902   4.476   2.538   4.550  0.6097 -0.3631  0.6676
18471TIP3   OH276903   1.343   4.477   0.830 -0.1711  0.0345  0.1839
18471TIP3    H176904   1.258   4.471   0.872 -0.9632 -1.6537 -1.5200
18471TIP3    H276905   1.360   4.389   0.796  0.6693  1.0908 -2.4173
18472TIP3   OH276906   4.226   1.351  14.985 -0.7178  0.1280 -1.0162
18472TIP3    H176907   4.180   1.360  15.069 -2.6731  1.2589 -2.1261
18472TIP3    H276908   4.232   1.257  14.971  2.6411 -0.3069  1.8366
18473TIP3   OH276909   1.720   5.794  13.539  0.3218  0.7214 -0.3235
18473TIP3    H176910   1.650   5.756  13.487  1.1082 -1.2073 -0.0545
18473TIP3    H276911   1.779   5.721  13.557  0.1789  1.2947  3.1595
18474TIP3   OH276912   0.848   6.729   2.507  0.4803 -0.3161  0.8238
18474TIP3    H176913   0.858   6.749   2.600  1.4452  0.2212  0.6136
18474TIP3    H276914   0.915   6.781   2.463 -1.4853  1.2916 -0.4397
18475TIP3   OH276915   1.282   0.415   3.943  0.1705  0.8475 -0.6656
18475TIP3    H176916   1.337   0.461   4.006 -0.7265  2.0974 -0.7467
18475TIP3    H276917   1.261   0.481   3.877 -3.7849  1.4517  0.8676
18476TIP3   OH276918   2.681   5.097  14.315 -0.0818 -0.9706  0.2733
18476TIP3    H176919   2.716   5.105  14.404 -3.9496  0.3149  1.8925
18476TIP3    H276920   2.711   5.177  14.271 -0.8275  0.0738  1.5693
18477TIP3   OH276921   6.708   3.821   4.039  0.2487 -0.4883  0.0556
18477TIP3    H176922   6.680   3.800   4.128  1.9649 -0.5513  0.6147
18477TIP3    H276923   6.733   3.737   4.001  0.9444 -0.2834  0.0442
18478TIP3   OH276924   3.666   1.698  14.414  0.6161 -0.0258 -0.4957
18478TIP3    H176925   3.681   1.791  14.398  2.9657 -0.2258  0.1014
18478TIP3    H276926   3.736   1.653  14.366 -0.5668 -1.5209 -0.9117
18479TIP3   OH276927   5.959   2.021  12.929 -0.1075 -0.3416  0.6496
18479TIP3    H176928   5.919   2.081  12.866  1.1558  1.1858  1.2279
18479TIP3    H276929   5.886   1.991  12.984 -0.9990 -0.6074 -0.6388
18480TIP3   OH276930   1.586   4.155   4.156  0.1884  0.5001 -0.1874
18480TIP3    H176931   1.565   4.124   4.067 -0.9359  0.2661  0.1399
18480TIP3    H276932   1.618   4.077   4.201  0.7713  0.6220 -0.3791
18481TIP3   OH276933   4.594   1.315   5.520  0.6399  0.0605 -0.0474
18481TIP3    H176934   4.508   1.356   5.516 -0.2713 -1.8132 -1.2629
18481TIP3    H276935   4.645   1.356   5.450  0.8605  1.3304  0.8183
18482TIP3   OH276936   5.838   1.722   4.553  0.2770 -0.1210  0.7284
18482TIP3    H176937   5.854   1.635   4.590  1.7272 -0.0864  0.2412
18482TIP3    H276938   5.747   1.718   4.523  0.6405 -1.8812 -0.3106
18483TIP3   OH276939   2.851   4.054   2.817 -0.1833  0.2547  0.2789
18483TIP3    H176940   2.802   3.986   2.770  1.3663 -1.1334  0.5820
18483TIP3    H276941   2.786   4.094   2.874 -1.7007  0.7594 -1.6972
18484TIP3   OH276942   3.695   4.731   2.421  0.0683  0.3821 -0.0428
18484TIP3    H176943   3.629   4.785   2.465  1.3019  1.9949 -0.0564
18484TIP3    H276944   3.702   4.652   2.475 -0.9146  0.7909  0.6983
18485TIP3   OH276945   6.394   5.828   2.119  0.1517 -0.0919  0.1962
18485TIP3    H176946   6.457   5.893   2.150  1.9430 -1.7667  0.2050
18485TIP3    H276947   6.385   5.767   2.192  0.1715 -1.0581 -0.5954
18486TIP3   OH276948   4.105   3.740  13.955  0.1442 -0.1587 -0.2146
18486TIP3    H176949   4.162   3.735  13.878  1.6801 -0.2886  0.8905
18486TIP3    H276950   4.022   3.772  13.920  1.2251  1.2183 -1.7183
18487TIP3   OH276951   5.818   0.954  13.381  0.0408  0.2323  0.5596
18487TIP3    H176952   5.907   0.971  13.413  0.3866 -1.2853  0.4701
18487TIP3    H276953   5.791   0.874  13.427 -0.5627 -0.3527 -0.7752
18488TIP3   OH276954   1.038   2.614   4.433 -0.2811 -0.3474  0.4670
18488TIP3    H176955   1.066   2.705   4.441 -1.7936  0.2063 -0.1583
18488TIP3    H276956   1.081   2.583   4.353 -0.7587  0.2222 -0.0217
18489TIP3   OH276957   4.594   0.628  11.856  0.0746 -0.0513 -0.1938
18489TIP3    H176958   4.682   0.595  11.843  0.2752 -0.0699  1.0602
18489TIP3    H276959   4.588   0.704  11.798  2.0078  1.8239  1.8533
18490TIP3   OH276960   5.472   5.585   4.224  0.2821 -0.4892 -0.2840
18490TIP3    H176961   5.471   5.505   4.277  1.2908 -0.8383 -0.7760
18490TIP3    H276962   5.415   5.565   4.150  0.9909 -0.9786 -0.7102
18491TIP3   OH276963   0.024   1.358  16.751  0.3822 -0.0187  0.3015
18491TIP3    H176964  -0.036   1.332  16.821 -1.3349  0.1095 -1.0864
18491TIP3    H276965   0.107   1.317  16.775 -0.7412 -1.8472  1.2516
18492TIP3   OH276966   4.539   1.655   1.698 -0.7269 -0.0103  0.2946
18492TIP3    H176967   4.557   1.579   1.644  0.3961  0.8271 -0.5656
18492TIP3    H276968   4.622   1.673   1.742 -1.1907  0.2696  1.0692
18493TIP3   OH276969   2.386   0.090   1.256  0.0702  0.2014  0.0396
18493TIP3    H176970   2.316   0.139   1.212  0.3021  2.8832  2.3441
18493TIP3    H276971   2.340   0.035   1.320 -0.1540 -2.4769 -2.2177
18494TIP3   OH276972   0.469   2.769  15.502  0.4185  0.3619  0.3084
18494TIP3    H176973   0.504   2.700  15.447 -0.3112  0.5711 -0.4396
18494TIP3    H276974   0.496   2.850  15.460 -0.6306  0.5248 -0.0933
18495TIP3   OH276975   0.357   1.093   1.026  0.1966  0.3142  0.3793
18495TIP3    H176976   0.277   1.144   1.034  0.2790  0.4213  0.5506
18495TIP3    H276977   0.342   1.035   0.952  0.4184  1.1736 -0.3620
18496TIP3   OH276978   0.895   3.565  15.459 -0.3204 -0.1026  0.3987
18496TIP3    H176979   0.922   3.653  15.434  0.8955 -0.2503  1.1104
18496TIP3    H276980   0.813   3.578  15.507 -1.2018  0.4338 -1.1803
18497TIP3   OH276981   4.918   6.783  13.949 -0.1943 -0.0295  0.3246
18497TIP3    H176982   4.956   6.840  13.882 -1.6785 -0.0340 -0.5741
18497TIP3    H276983   4.985   6.777  14.017  1.5199 -0.2802 -1.3019
18498TIP3   OH276984   0.380   1.988   3.277  0.3801 -0.4580 -0.1473
18498TIP3    H176985   0.382   2.076   3.316  1.1518 -0.2128 -0.7295
18498TIP3    H276986   0.402   2.002   3.185  0.9106 -1.3166 -0.1590
18499TIP3   OH276987   2.692   6.755   3.035 -0.1319  0.3886 -0.0024
18499TIP3    H176988   2.732   6.769   3.121  0.4383  0.1751 -0.2319
18499TIP3    H276989   2.646   6.837   3.017  0.0088  0.5512  0.3675
18500TIP3   OH276990   0.686   6.773   4.254 -0.8500  0.0065 -0.2932
18500TIP3    H176991   0.721   6.739   4.171 -0.2303  0.6543 -0.3006
18500TIP3    H276992   0.754   6.832   4.286 -1.4636  0.4130  0.2578
18501TIP3   OH276993   1.843   0.368  10.228  0.4633 -0.6033  0.5938
18501TIP3    H176994   1.853   0.434  10.159  0.2620  0.3622  1.4607
18501TIP3    H276995   1.904   0.396  10.296 -0.4203 -0.6949  1.4311
18502TIP3   OH276996   4.250   4.653  15.255 -0.7030  0.2970  0.1192
18502TIP3    H176997   4.157   4.671  15.242 -0.6535  0.5688  0.1334
18502TIP3    H276998   4.278   4.715  15.323 -0.4434  0.4310 -0.1039
18503TIP3   OH276999   6.118   2.681  15.630  0.8655  0.6447  0.3885
18503TIP3    H177000   6.076   2.596  15.641  0.1754  0.9870  0.4662
18503TIP3    H277001   6.132   2.712  15.720  0.6760  0.8228  0.3567
18504TIP3   OH277002   3.309   3.576  11.972  0.4000 -0.0114 -0.6391
18504TIP3    H177003   3.372   3.611  12.035 -0.2949  0.3499 -0.1457
18504TIP3    H277004   3.334   3.617  11.889 -0.3075  1.5937 -0.1064
18505TIP3   OH277005   1.346   0.808  11.604  0.2982  0.4010  0.1016
18505TIP3    H177006   1.419   0.759  11.643 -0.7070 -1.7655 -0.5746
18505TIP3    H277007   1.289   0.828  11.678 -0.4797 -1.7047  0.1553
18506TIP3   OH277008   1.849   6.638   3.560 -0.1507 -0.6144 -0.4014
18506TIP3    H177009   1.939   6.636   3.530  0.5229  0.0419  1.4168
18506TIP3    H277010   1.842   6.720   3.610 -1.4720 -1.1067  0.2800
18507TIP3   OH277011   3.985   0.912   2.872 -0.0095  0.0666 -0.1431
18507TIP3    H177012   4.073   0.876   2.859 -0.4786 -0.7267 -1.2022
18507TIP3    H277013   3.946   0.915   2.785 -1.4908 -0.7689  0.4531
18508TIP3   OH277014   3.864   5.961   1.119  0.5842  0.4497  0.0584
18508TIP3    H177015   3.928   5.991   1.054  1.8269  0.5906  1.2902
18508TIP3    H277016   3.901   5.879   1.152  0.3665  0.7698  1.1185
18509TIP3   OH277017   2.708   0.832   5.823 -0.4494 -0.4058 -0.0012
18509TIP3    H177018   2.786   0.887   5.808 -1.3453  1.0018  0.3077
18509TIP3    H277019   2.700   0.827   5.918 -0.5959 -0.7534 -0.0325
18510TIP3   OH277020   3.769   2.676  12.948 -0.0548 -0.0841 -0.3152
18510TIP3    H177021   3.718   2.754  12.929 -0.0949 -0.0426 -0.0310
18510TIP3    H277022   3.815   2.696  13.029  0.0496 -0.2995 -0.3204
18511TIP3   OH277023   3.658   0.740   0.308  0.0037 -0.1593  0.4582
18511TIP3    H177024   3.602   0.759   0.383 -0.5993 -1.8005  0.4548
18511TIP3    H277025   3.600   0.742   0.233 -0.2755 -2.5953  0.5349
18512TIP3   OH277026   3.753   3.181   4.144  0.2080 -0.1446 -0.2108
18512TIP3    H177027   3.845   3.172   4.118  0.3069 -1.9008  0.6288
18512TIP3    H277028   3.751   3.156   4.236 -1.1791 -0.5750 -0.3353
18513TIP3   OH277029   3.146   2.140  15.351 -0.3099 -0.4531 -0.1425
18513TIP3    H177030   3.219   2.096  15.394 -0.8459  1.3101  2.8600
18513TIP3    H277031   3.174   2.231  15.342 -1.6056 -0.0418 -0.2197
18514TIP3   OH277032   4.914   4.827  15.351 -0.3600 -0.0665 -0.2781
18514TIP3    H177033   4.848   4.886  15.387 -1.2225 -0.5427 -1.0681
18514TIP3    H277034   4.885   4.739  15.377 -0.5901 -0.3592 -1.4653
18515TIP3   OH277035   1.436   5.448  11.998 -0.1846 -0.1219  0.0685
18515TIP3    H177036   1.404   5.392  11.927  2.0703  0.7198 -1.7495
18515TIP3    H277037   1.514   5.403  12.030 -1.1361 -0.4537  2.0435
18516TIP3   OH277038   5.429   0.313  15.746 -0.0974  0.2714  0.3077
18516TIP3    H177039   5.404   0.405  15.740 -0.1808  0.1978 -0.6645
18516TIP3    H277040   5.482   0.297  15.668  1.2890 -0.0966  1.2774
18517TIP3   OH277041   0.066   1.925  13.735 -0.0729  0.3511  0.3249
18517TIP3    H177042  -0.011   1.979  13.720  0.8344  1.6873  0.2253
18517TIP3    H277043   0.035   1.850  13.785 -1.8938 -0.4983 -1.9401
18518TIP3   OH277044   5.878   0.653  13.941  0.2960 -0.2659 -0.5363
18518TIP3    H177045   5.929   0.702  13.876  0.8885  1.2333  0.9829
18518TIP3    H277046   5.937   0.645  14.016 -0.8311 -0.7933  0.3152
18519TIP3   OH277047   1.746   2.481   6.511  0.3504  0.2456 -0.0623
18519TIP3    H177048   1.723   2.481   6.604  1.6010 -0.9099  0.2754
18519TIP3    H277049   1.667   2.452   6.466 -0.4315  1.3259  0.5695
18520TIP3   OH277050   1.742   3.633   6.395 -0.0784 -0.2937 -0.4677
18520TIP3    H177051   1.676   3.703   6.400 -0.6293 -0.7117 -1.6307
18520TIP3    H277052   1.757   3.621   6.302  1.2473 -0.5998 -0.2273
18521TIP3   OH277053   1.773   4.664   4.679 -0.4034  0.0589  0.4030
18521TIP3    H177054   1.781   4.599   4.749  1.8619 -0.8482 -0.6000
18521TIP3    H277055   1.813   4.622   4.603  1.1246  2.6015 -0.3072
18522TIP3   OH277056   3.219   2.826  13.498 -0.4584 -0.1489 -0.4556
18522TIP3    H177057   3.142   2.807  13.445 -0.7628  2.0163 -0.8830
18522TIP3    H277058   3.276   2.877  13.440  1.6136 -2.1496 -0.3442
18523TIP3   OH277059   5.688   0.908   6.175 -0.0967 -0.2685 -0.3073
18523TIP3    H177060   5.680   0.827   6.123  0.7379  2.1551 -4.6824
18523TIP3    H277061   5.773   0.943   6.151 -0.5087  2.0291  1.3131
18524TIP3   OH277062   4.844   4.788   4.750 -0.1060  0.3195  0.1185
18524TIP3    H177063   4.804   4.725   4.691  0.6692 -1.8268  1.7473
18524TIP3    H277064   4.788   4.865   4.746 -1.0522 -0.4246 -1.9988
18525TIP3   OH277065   6.040   1.437  16.328  0.3590  0.4092 -0.3013
18525TIP3    H177066   5.961   1.464  16.374  0.3465 -2.7359  1.8155
18525TIP3    H277067   6.109   1.440  16.394  1.6051  1.0750 -1.5739
18526TIP3   OH277068   3.378   0.023   3.906  0.3992  0.6208  0.3376
18526TIP3    H177069   3.378  -0.070   3.928 -0.1078  0.1681 -1.3856
18526TIP3    H277070   3.419   0.027   3.820 -1.0954  1.7659 -0.3718
18527TIP3   OH277071   6.319   5.764  14.153 -0.1636 -0.5825  0.0159
18527TIP3    H177072   6.318   5.851  14.114  0.6727 -0.7481 -0.4009
18527TIP3    H277073   6.411   5.736  14.147 -0.5503 -1.7943 -0.5517
18528TIP3   OH277074   0.650   1.350   5.565 -0.7229  0.5394 -0.1489
18528TIP3    H177075   0.721   1.314   5.618 -2.1754 -0.2571  1.3717
18528TIP3    H277076   0.570   1.330   5.615 -2.0672  1.0010 -1.9875
18529TIP3   OH277077   5.346   5.088   5.973  0.2166 -0.3644 -0.0707
18529TIP3    H177078   5.359   5.178   5.943  1.1527 -0.9774 -1.6733
18529TIP3    H277079   5.398   5.082   6.053  1.3702  0.1428 -0.7542
18530TIP3   OH277080   5.441   5.719   0.540  0.1280  0.4032  0.1509
18530TIP3    H177081   5.357   5.674   0.528  0.0144  0.6110  0.1576
18530TIP3    H277082   5.472   5.737   0.452  0.1824  0.2963  0.1479
18531TIP3   OH277083   1.102   5.986   6.612  0.3042  0.2313 -0.2869
18531TIP3    H177084   1.048   5.951   6.541 -2.7871  3.3068  0.2715
18531TIP3    H277085   1.173   6.033   6.568  1.2648 -1.8345 -1.0901
18532TIP3   OH277086   6.780   1.074   1.505 -0.4173 -0.4153  0.4439
18532TIP3    H177087   6.833   1.148   1.477 -1.7963  0.6672  0.5722
18532TIP3    H277088   6.701   1.081   1.451 -0.3898 -2.0719  0.1406
18533TIP3   OH277089   3.051   0.315   1.276  0.0179 -0.0469 -0.0094
18533TIP3    H177090   3.009   0.401   1.279  2.1820  1.1664 -1.7415
18533TIP3    H277091   3.085   0.303   1.365  0.5534  1.3745  0.0059
18534TIP3   OH277092   4.715   4.936  10.538 -0.2333  0.5842  0.3305
18534TIP3    H177093   4.783   4.902  10.597 -0.5392  0.8053  0.8139
18534TIP3    H277094   4.689   5.019  10.578  0.7076  1.5436 -0.9867
18535TIP3   OH277095   0.732   0.344  12.698  0.3888  0.1467 -0.0875
18535TIP3    H177096   0.798   0.402  12.661  3.5217 -2.1022  1.4502
18535TIP3    H277097   0.730   0.269  12.637  0.7041 -0.6409  0.8487
18536TIP3   OH277098   1.083   2.818   2.842  0.2205  0.5746  0.0021
18536TIP3    H177099   1.115   2.868   2.917  1.6365 -0.2462 -0.0115
18536TIP3    H277100   1.162   2.796   2.793 -0.4561 -0.8122 -0.5171
18537TIP3   OH277101   4.730   5.735  13.938 -0.0709  0.5069 -0.1727
18537TIP3    H177102   4.690   5.821  13.926  0.6600  1.2226  2.0539
18537TIP3    H277103   4.656   5.675  13.948 -0.5778  0.9647 -1.0759
18538TIP3   OH277104   5.415   2.410  12.209  0.1484  0.6376 -0.6739
18538TIP3    H177105   5.382   2.403  12.119 -1.6617  1.7814 -0.1614
18538TIP3    H277106   5.398   2.324  12.248  0.8822  0.1591 -1.3906
18539TIP3   OH277107   3.490   2.723  16.389  0.1978 -0.0622 -0.3917
18539TIP3    H177108   3.569   2.669  16.394  1.3574  1.6478  1.2330
18539TIP3    H277109   3.446   2.708  16.473 -0.1576  0.5114 -0.4709
18540TIP3   OH277110   1.589   0.619  10.745  0.1370  0.0087 -0.5178
18540TIP3    H177111   1.576   0.525  10.755 -1.1552  0.1694 -0.4128
18540TIP3    H277112   1.676   0.628  10.708  0.0514 -1.2647 -1.0776
18541TIP3   OH277113   1.363   5.008   5.977  0.0179 -0.7036  0.0383
18541TIP3    H177114   1.272   4.986   5.959 -0.7484  0.5620  2.0850
18541TIP3    H277115   1.403   5.016   5.890 -1.6888 -1.6812 -0.8902
18542TIP3   OH277116   2.970   3.915   3.555 -0.5710  0.6178  0.4108
18542TIP3    H177117   3.010   3.828   3.556  0.5953  1.0376 -1.7824
18542TIP3    H277118   2.877   3.898   3.544 -0.2703 -0.3833 -0.9136
18543TIP3   OH277119   4.155   2.873   4.569  0.4336  0.3875 -0.1313
18543TIP3    H177120   4.087   2.941   4.571 -0.1380 -0.0543 -2.0434
18543TIP3    H277121   4.110   2.793   4.596  1.0682  0.6777  1.9603
18544TIP3   OH277122   1.556   5.903   6.050 -0.2719 -0.7098  0.5381
18544TIP3    H177123   1.586   5.848   6.123 -0.4311 -0.3837  0.8582
18544TIP3    H277124   1.615   5.883   5.978  1.7141  0.9918  1.5844
18545TIP3   OH277125   5.092   1.833   3.222  0.6751  0.0027 -0.5746
18545TIP3    H177126   5.169   1.781   3.201  0.5268 -0.8209  0.7955
18545TIP3    H277127   5.019   1.786   3.182  0.4984 -1.0808  0.9571
18546TIP3   OH277128   1.090   3.427  12.219 -0.1821 -0.0239 -0.0702
18546TIP3    H177129   1.146   3.504  12.216 -1.0245  0.5847 -0.6565
18546TIP3    H277130   1.003   3.460  12.196 -0.6273 -1.0823  0.0479
18547TIP3   OH277131   3.177   2.305   1.796  0.3710  0.1382  0.1575
18547TIP3    H177132   3.151   2.358   1.870  0.1468 -1.7179  1.4831
18547TIP3    H277133   3.101   2.249   1.778  1.0287 -0.6367 -0.3367
18548TIP3   OH277134   1.948   4.810  14.812 -0.6476 -0.2107 -0.1336
18548TIP3    H177135   2.031   4.779  14.778 -1.3202 -0.1966 -1.8786
18548TIP3    H277136   1.963   4.820  14.906  1.5465  0.5368 -0.5073
18549TIP3   OH277137   4.653   5.485   4.802 -0.3333 -0.0388  0.1804
18549TIP3    H177138   4.659   5.521   4.713 -1.6951 -2.0142 -0.7816
18549TIP3    H277139   4.617   5.397   4.790  0.1728 -0.6530  2.6494
18550TIP3   OH277140   4.596   5.585   3.946 -0.5951  0.1083  0.5246
18550TIP3    H177141   4.561   5.623   4.026 -2.4344 -0.6112  0.1118
18550TIP3    H277142   4.666   5.526   3.976 -0.7946  0.3712  1.5291
18551TIP3   OH277143   5.632   4.450  11.716 -0.7794 -0.0797  0.1294
18551TIP3    H177144   5.591   4.392  11.652 -1.0427  1.6896 -1.3942
18551TIP3    H277145   5.566   4.459  11.786 -1.7024  0.1926 -0.7480
18552TIP3   OH277146   5.361   2.054  14.489 -0.1301 -0.4479  0.5201
18552TIP3    H177147   5.397   2.065  14.577  0.1165 -0.1134  0.3784
18552TIP3    H277148   5.315   1.970  14.492  0.9060 -1.0341  0.6209
18553TIP3   OH277149   2.464   4.177   5.986  0.7057 -0.0890 -0.4895
18553TIP3    H177150   2.547   4.163   5.940  0.6081  0.8295 -0.9625
18553TIP3    H277151   2.424   4.252   5.942 -0.0210 -0.0367  0.2324
18554TIP3   OH277152   0.207   1.047  16.547 -0.5020 -0.0128 -0.5627
18554TIP3    H177153   0.202   1.015  16.457 -1.0776 -3.3901  0.5241
18554TIP3    H277154   0.131   1.105  16.555 -1.6962 -1.3074 -1.7443
18555TIP3   OH277155   2.003   4.118   1.608  0.1459 -0.1094 -0.0320
18555TIP3    H177156   2.040   4.178   1.544  2.7083 -0.8183  0.6841
18555TIP3    H277157   2.002   4.033   1.564  0.8215 -0.3810  0.4639
18556TIP3   OH277158   3.993   3.703   2.711  0.2173 -0.4604  0.0128
18556TIP3    H177159   3.968   3.666   2.626  0.5872 -2.6729  0.8148
18556TIP3    H277160   4.077   3.662   2.731  0.3034  0.3016  1.2986
18557TIP3   OH277161   1.808   5.630   2.616 -0.3860 -0.3235 -0.0802
18557TIP3    H177162   1.750   5.608   2.688  0.6106 -2.4379  0.1794
18557TIP3    H277163   1.765   5.594   2.538 -0.6289  0.4050 -0.2912
18558TIP3   OH277164   5.131   0.837  13.431  0.0550  0.1548  0.0558
18558TIP3    H177165   5.100   0.755  13.393 -1.8056  1.4479 -1.4083
18558TIP3    H277166   5.197   0.869  13.369  1.7365 -0.7775  1.2745
18559TIP3   OH277167   3.385   5.907   5.357  0.2981  0.6216  0.0730
18559TIP3    H177168   3.465   5.958   5.374 -0.1225  1.2443  0.2065
18559TIP3    H277169   3.369   5.860   5.439  1.4092 -0.7556 -0.4655
18560TIP3   OH277170   1.861   0.741   0.821  0.1812 -0.0929 -0.2805
18560TIP3    H177171   1.944   0.789   0.821 -0.2807  0.7480  1.0809
18560TIP3    H277172   1.876   0.669   0.760  1.3972  0.9088 -1.2286
18561TIP3   OH277173   2.326   4.977  13.149 -0.4322 -0.3466 -0.3263
18561TIP3    H177174   2.322   5.004  13.057  0.9198 -1.4189 -0.7378
18561TIP3    H277175   2.234   4.964  13.174 -0.8700  0.8740 -1.2244
18562TIP3   OH277176   6.330   2.061  11.378  0.0924  0.5767  0.4095
18562TIP3    H177177   6.258   2.040  11.438  0.4239  0.5568  0.8082
18562TIP3    H277178   6.387   2.118  11.430  0.7562 -0.0273  0.3567
18563TIP3   OH277179   5.646   6.691  15.783 -0.4973 -0.0066 -0.0084
18563TIP3    H177180   5.730   6.660  15.749 -0.9599 -0.2242 -0.9912
18563TIP3    H277181   5.622   6.763  15.725 -1.6126 -0.7945 -0.5704
18564TIP3   OH277182   5.322   5.216   4.700 -0.3956 -0.4143  0.1723
18564TIP3    H177183   5.413   5.226   4.729 -0.6286 -1.1376  1.2261
18564TIP3    H277184   5.301   5.125   4.719 -1.4712 -0.1450  0.3452
18565TIP3   OH277185   2.320   4.632   1.072 -0.2026 -0.1390  0.4511
18565TIP3    H177186   2.313   4.718   1.112  0.0698  0.2559 -0.3405
18565TIP3    H277187   2.271   4.639   0.990  1.4039 -0.1468 -0.5510
18566TIP3   OH277188   3.453   4.278  11.249 -0.1178 -0.0231 -0.0409
18566TIP3    H177189   3.441   4.206  11.312 -0.1060  0.2481  0.2762
18566TIP3    H277190   3.385   4.341  11.272  1.0552  0.9557  0.9551
18567TIP3   OH277191   6.398   2.595   2.819 -0.4530  0.3017 -0.7829
18567TIP3    H177192   6.390   2.583   2.724  0.3292  0.6184 -0.8879
18567TIP3    H277193   6.487   2.567   2.839 -0.0180  1.8921 -0.3983
18568TIP3   OH277194   0.563   2.000   0.187  0.0837  0.3353  0.6177
18568TIP3    H177195   0.587   2.067   0.251  0.7377 -0.8500  1.6561
18568TIP3    H277196   0.505   1.940   0.234  1.1357 -0.9459  0.3542
18569TIP3   OH277197   3.127   5.492   2.064 -0.7726 -0.2202 -0.0157
18569TIP3    H177198   3.166   5.494   1.976 -0.5435  0.6298  0.0905
18569TIP3    H277199   3.034   5.504   2.049 -0.6871  0.3270 -0.1255
18570TIP3   OH277200   2.865   6.132  11.237  0.5773 -0.0274  0.0263
18570TIP3    H177201   2.795   6.118  11.300  0.5455 -0.5376 -0.1204
18570TIP3    H277202   2.829   6.198  11.176  0.2032 -0.3275 -0.0797
18571TIP3   OH277203   1.913   4.263   3.379  0.1696 -0.1158 -0.0137
18571TIP3    H177204   1.859   4.216   3.316 -0.7540  2.0510 -0.9399
18571TIP3    H277205   2.002   4.236   3.360 -0.3010 -1.1658 -0.7545
18572TIP3   OH277206   4.406   1.763   2.604 -0.1778  0.1012  0.1068
18572TIP3    H177207   4.334   1.823   2.622  0.2507  0.8037 -0.4835
18572TIP3    H277208   4.402   1.748   2.509 -0.0774 -0.5504  0.1982
18573TIP3   OH277209   6.013   2.736   4.673  0.0229  0.4323 -0.0346
18573TIP3    H177210   6.005   2.813   4.617 -1.0823  0.5896  0.3007
18573TIP3    H277211   5.922   2.707   4.687  0.3842 -0.6147  0.2796
18574TIP3   OH277212   1.048   6.793   1.928  0.4499  0.0500  0.2817
18574TIP3    H177213   1.007   6.858   1.985 -1.1607 -1.6911  1.2491
18574TIP3    H277214   1.070   6.721   1.987  1.0516 -0.7904 -0.9352
18575TIP3   OH277215   0.559   5.386   5.486 -0.6514 -0.6652 -0.1975
18575TIP3    H177216   0.484   5.369   5.543 -2.9613 -0.9769 -3.0763
18575TIP3    H277217   0.572   5.304   5.439 -0.8054  0.3668 -2.1570
18576TIP3   OH277218   3.498   5.048  14.499 -1.5343  0.4991  0.1651
18576TIP3    H177219   3.481   5.085  14.586 -0.9683  0.8137  0.1474
18576TIP3    H277220   3.593   5.033  14.497 -1.4088  1.2631 -0.6857
18577TIP3   OH277221   6.525   2.956   3.417  0.4700  0.0514 -0.0874
18577TIP3    H177222   6.570   3.036   3.445 -0.6445  1.7526 -2.8039
18577TIP3    H277223   6.572   2.929   3.338 -1.3362  0.0973 -1.2154
18578TIP3   OH277224   0.238   2.678  14.369 -0.0015 -0.2611  0.1638
18578TIP3    H177225   0.185   2.681  14.289 -0.3850  0.8664  0.4502
18578TIP3    H277226   0.178   2.703  14.439  0.7195  0.2773  0.6013
18579TIP3   OH277227   2.864   1.047   3.343  0.7389 -0.4739 -0.1828
18579TIP3    H177228   2.820   0.985   3.286  3.0064 -1.2834 -1.1724
18579TIP3    H277229   2.853   1.132   3.300 -1.5327 -0.2592  0.6730
18580TIP3   OH277230   1.443   3.136   5.605  0.2268  0.1068  0.6250
18580TIP3    H177231   1.387   3.193   5.552  1.7711  1.3002  0.2018
18580TIP3    H277232   1.387   3.110   5.679 -1.1213  0.6039 -0.1729
18581TIP3   OH277233   3.159   2.010   5.003 -0.3545 -0.2887  0.2792
18581TIP3    H177234   3.116   1.950   4.943 -0.5129  0.2997 -0.1978
18581TIP3    H277235   3.194   1.953   5.072 -1.2669 -0.8378  0.3005
18582TIP3   OH277236   1.735   5.123  14.061  0.7545 -0.6999  0.0929
18582TIP3    H177237   1.762   5.084  13.978  0.6299  0.6268 -0.6030
18582TIP3    H277238   1.816   5.132  14.111  1.2487  0.7607 -0.8990
18583TIP3   OH277239   3.527   5.534   6.139  0.3221 -0.1730  0.0877
18583TIP3    H177240   3.450   5.509   6.189  0.3222  0.2571  0.3124
18583TIP3    H277241   3.546   5.458   6.084 -0.1426 -0.3532  0.1724
18584TIP3   OH277242   2.783   1.787   2.453 -0.0844  0.4392  0.1925
18584TIP3    H177243   2.817   1.816   2.537 -2.0681 -0.4514  1.3824
18584TIP3    H277244   2.774   1.867   2.401  0.1120  1.1590  1.2402
18585TIP3   OH277245   0.484   2.807   0.803  0.1714  1.0061 -0.2688
18585TIP3    H177246   0.485   2.819   0.898 -0.3914  0.5402 -0.2023
18585TIP3    H277247   0.394   2.827   0.777 -0.8498 -2.7287 -0.1834
18586TIP3   OH277248   3.458   4.225  12.697 -0.3375  0.0210 -0.2947
18586TIP3    H177249   3.424   4.240  12.608 -1.4108 -0.7290 -0.0278
18586TIP3    H277250   3.381   4.200  12.748  0.2157  0.7276  0.9286
18587TIP3   OH277251   0.896   5.688   1.990  0.1752 -0.1330 -0.3186
18587TIP3    H177252   0.915   5.603   1.950  1.0833 -0.4836  0.8367
18587TIP3    H277253   0.981   5.732   1.996 -0.2319  0.7036 -0.5405
18588TIP3   OH277254   1.619   0.402   0.001  0.2755 -0.4625  0.1873
18588TIP3    H177255   1.690   0.371   0.056 -1.2974 -0.9368  2.0619
18588TIP3    H277256   1.555   0.331   0.002 -0.7341  0.4031 -0.4870
18589TIP3   OH277257   5.159   3.536   5.598 -0.3855 -0.1245  0.0173
18589TIP3    H177258   5.200   3.549   5.513  1.1333 -0.0173  0.7407
18589TIP3    H277259   5.152   3.441   5.607  0.1753 -0.1560  0.1110
18590TIP3   OH277260   5.321   2.357   5.885 -0.0167 -0.1652 -0.4708
18590TIP3    H177261   5.400   2.332   5.932  0.1650 -0.3584 -0.8696
18590TIP3    H277262   5.282   2.426   5.938  0.3711 -0.1343 -0.2223
18591TIP3   OH277263   1.847   3.592   3.091 -0.0914  0.0575  0.0061
18591TIP3    H177264   1.916   3.534   3.124  1.4436  1.9959  0.3448
18591TIP3    H277265   1.771   3.534   3.082  1.3008 -1.9784  0.4519
18592TIP3   OH277266   2.723   1.379  14.253 -0.4927 -0.0639  0.0569
18592TIP3    H177267   2.645   1.342  14.213 -2.0427  1.0743  1.8438
18592TIP3    H277268   2.709   1.368  14.347  2.3180 -1.3405  0.4281
18593TIP3   OH277269   0.855   1.269  13.237 -0.7883 -0.4040  0.2694
18593TIP3    H177270   0.826   1.358  13.216  0.0766 -0.1113  0.2742
18593TIP3    H277271   0.840   1.260  13.331 -0.1641  0.0161  0.4136
18594TIP3   OH277272   5.115   2.015   5.500  0.0131  0.5521 -0.6638
18594TIP3    H177273   5.111   2.094   5.445  0.0470 -0.3801 -2.0493
18594TIP3    H277274   5.179   2.037   5.568 -0.3723  1.9059 -0.7032
18595TIP3   OH277275   3.504   1.612  11.843 -0.1982  0.2332 -0.3341
18595TIP3    H177276   3.563   1.688  11.842  0.1055  0.0365  0.9814
18595TIP3    H277277   3.416   1.649  11.842 -0.0550  0.5639 -0.9733
18596TIP3   OH277278   1.890   1.755   3.733  0.9150  0.1122  0.2843
18596TIP3    H177279   1.937   1.838   3.740  0.2432  0.5034  0.2450
18596TIP3    H277280   1.843   1.747   3.816  1.3271 -0.4573  0.4741
18597TIP3   OH277281   4.097   5.307  17.086 -0.5678  0.0759 -0.1184
18597TIP3    H177282   4.052   5.252  17.150 -1.7336  1.7696  0.5903
18597TIP3    H277283   4.189   5.299  17.108 -0.5693 -2.4410 -0.7682
18598TIP3   OH277284   2.712   0.040  12.014  0.1785  0.0499 -0.1420
18598TIP3    H177285   2.732   0.074  11.927 -0.7307  2.4402  0.5046
18598TIP3    H277286   2.617   0.042  12.021  0.2181 -0.4126  0.8038
18599TIP3   OH277287   0.494   4.223   1.886 -0.0370 -0.0723 -0.2676
18599TIP3    H177288   0.401   4.217   1.866 -0.0836  1.0289 -0.4618
18599TIP3    H277289   0.499   4.277   1.965  0.4324 -0.2439 -0.1731
18600TIP3   OH277290   0.595   0.530   0.354 -0.1876 -0.1719 -0.3653
18600TIP3    H177291   0.517   0.544   0.408 -0.2949  1.2621 -0.8601
18600TIP3    H277292   0.577   0.448   0.307 -0.1162 -1.4330  1.6786
18601TIP3   OH277293   3.640   1.330  16.179  0.1532 -0.0390 -0.2997
18601TIP3    H177294   3.622   1.259  16.242  0.9616 -0.2976 -0.3545
18601TIP3    H277295   3.557   1.377  16.172 -0.5643 -1.3153 -0.6766
18602TIP3   OH277296   4.874   0.425   3.490 -0.1238  0.2705  0.5577
18602TIP3    H177297   4.930   0.502   3.503 -0.6819  0.5369  1.4820
18602TIP3    H277298   4.806   0.454   3.429  0.8917 -0.1466 -0.8279
18603TIP3   OH277299   4.176   2.648  10.370 -0.1090 -0.4398 -0.5177
18603TIP3    H177300   4.266   2.661  10.338 -0.9399  0.4685 -2.7486
18603TIP3    H277301   4.124   2.708  10.317 -1.8516  0.3549  1.9369
18604TIP3   OH277302   2.056   1.938  16.367 -0.1763 -0.5704 -0.3537
18604TIP3    H177303   2.119   1.938  16.295 -0.7579  0.3566 -0.8903
18604TIP3    H277304   2.008   1.856  16.357  0.0416 -0.6522 -0.7580
18605TIP3   OH277305   6.432   0.684  15.621 -0.0415  0.3730  0.0498
18605TIP3    H177306   6.461   0.730  15.699 -1.4122  1.1550  0.1361
18605TIP3    H277307   6.436   0.750  15.551 -1.6706  0.5752  0.0990
18606TIP3   OH277308   4.004   6.283   0.327 -0.0634  0.3058  0.1831
18606TIP3    H177309   4.055   6.276   0.246 -0.6559 -0.3699 -0.1420
18606TIP3    H277310   3.964   6.370   0.323  1.4061  1.0247  0.6593
18607TIP3   OH277311   1.238   0.602   0.786 -0.0994  0.8453 -0.4575
18607TIP3    H177312   1.246   0.511   0.756  0.4989  0.5694  0.4843
18607TIP3    H277313   1.175   0.598   0.857 -0.4611  1.2591 -0.7542
18608TIP3   OH277314   2.711   5.512  11.669 -0.3078  0.2126 -0.2427
18608TIP3    H177315   2.668   5.435  11.706 -1.4191  0.0626 -1.7222
18608TIP3    H277316   2.671   5.586  11.715  0.1887 -0.0475  0.6261
18609TIP3   OH277317   3.675   4.664  14.849 -0.3919 -0.3223  0.4253
18609TIP3    H177318   3.656   4.581  14.893  1.9608 -0.3731  1.4742
18609TIP3    H277319   3.672   4.643  14.755  1.0259 -1.8537  0.6815
18610TIP3   OH277320   2.252   6.611   5.930  0.2530 -0.0588 -0.1322
18610TIP3    H177321   2.264   6.615   6.025 -0.5901  0.4472 -0.0365
18610TIP3    H277322   2.193   6.685   5.910  0.0355 -0.4505 -0.9826
18611TIP3   OH277323   2.864   5.091  15.534 -0.5057 -0.1556 -0.2656
18611TIP3    H177324   2.901   5.013  15.574  0.0549 -0.0101 -0.4899
18611TIP3    H277325   2.797   5.121  15.595 -3.1180 -2.6876 -1.6468
18612TIP3   OH277326   6.384   1.875   5.401 -0.4443  0.3568  0.1928
18612TIP3    H177327   6.367   1.914   5.315  0.8730 -0.1992 -0.3519
18612TIP3    H277328   6.477   1.850   5.398 -0.9962 -2.0423  0.7823
18613TIP3   OH277329   2.573   2.101  13.444 -0.6267 -0.1656 -0.1177
18613TIP3    H177330   2.493   2.153  13.449 -0.0036  0.8103  0.1037
18613TIP3    H277331   2.603   2.112  13.353  1.8020  3.5514  0.8937
18614TIP3   OH277332   3.220   0.086  16.744  0.2170  0.1754 -0.3093
18614TIP3    H177333   3.166   0.142  16.800  0.0751  0.0490 -0.3186
18614TIP3    H277334   3.262   0.025  16.805  0.3647  0.2879 -0.3005
18615TIP3   OH277335   4.543   1.807   4.866  0.0861  0.0688 -0.2161
18615TIP3    H177336   4.579   1.895   4.865 -1.5123  0.7478 -0.2516
18615TIP3    H277337   4.566   1.772   4.952  1.1221  0.3214 -0.3750
18616TIP3   OH277338   2.488   6.513  11.511  0.2443 -0.0453 -0.0087
18616TIP3    H177339   2.420   6.528  11.577 -0.1937  0.0478 -0.4790
18616TIP3    H277340   2.464   6.570  11.438  1.3853  0.7528  0.2074
18617TIP3   OH277341   1.038   3.135  14.644 -0.3597 -0.1205 -0.2199
18617TIP3    H177342   1.046   3.213  14.588  0.3807  0.1411  0.2347
18617TIP3    H277343   1.096   3.153  14.718 -1.7640 -0.1977  0.9330
18618TIP3   OH277344   5.345   5.839  13.454  0.2719  0.6406 -0.6611
18618TIP3    H177345   5.276   5.903  13.470 -0.4339 -0.5894  1.7453
18618TIP3    H277346   5.426   5.887  13.471 -0.2709  0.7598  2.2800
18619TIP3   OH277347   1.673   0.822  16.000  0.1403 -0.3671 -0.8413
18619TIP3    H177348   1.738   0.752  16.006  0.7464  0.2900  1.7134
18619TIP3    H277349   1.599   0.783  15.954  1.3127 -1.9543 -1.4708
18620TIP3   OH277350   0.103   4.988   1.250 -0.2065  0.2838  0.3989
18620TIP3    H177351   0.092   5.048   1.323 -0.0289 -0.1841  0.8113
18620TIP3    H277352   0.042   4.917   1.268 -2.1748  1.4274 -1.2696
18621TIP3   OH277353   1.720   0.074  13.730  0.1320 -0.0047 -0.6870
18621TIP3    H177354   1.773  -0.005  13.743 -0.5994 -0.5605 -1.0429
18621TIP3    H277355   1.672   0.085  13.813  0.8929  0.5821 -0.3101
18622TIP3   OH277356   2.161   3.412   0.658  0.3599 -0.8993  0.3596
18622TIP3    H177357   2.185   3.352   0.729  2.0347 -0.8213 -0.0878
18622TIP3    H277358   2.241   3.463   0.643 -0.7244  0.7855  0.0768
18623TIP3   OH277359   0.701   5.397  16.286 -0.2371 -0.2148  0.0120
18623TIP3    H177360   0.710   5.356  16.200 -0.8765  0.6147 -0.4653
18623TIP3    H277361   0.655   5.333  16.340 -1.0716 -0.2013 -0.6733
18624TIP3   OH277362   2.911   2.176  13.922  0.3832  0.2672  0.5741
18624TIP3    H177363   2.836   2.235  13.910  1.7034  2.0745  0.7198
18624TIP3    H277364   2.943   2.159  13.834 -0.2926 -0.6651  0.4987
18625TIP3   OH277365   6.478   0.331   3.421  0.0222  0.0289 -0.2512
18625TIP3    H177366   6.570   0.359   3.421 -0.2701  1.0419  0.5104
18625TIP3    H277367   6.459   0.311   3.512  0.0366 -2.2110 -0.6689
18626TIP3   OH277368   0.481   5.420  13.221  0.5423  0.2108  0.1015
18626TIP3    H177369   0.499   5.469  13.141  0.3466  0.3718  0.1587
18626TIP3    H277370   0.562   5.427  13.272  0.1599  1.3269  0.5647
18627TIP3   OH277371   6.225   6.129   4.056  0.1095 -0.1221  0.1782
18627TIP3    H177372   6.213   6.224   4.046  0.5622 -0.1680 -0.9690
18627TIP3    H277373   6.147   6.100   4.103 -0.5381  0.6772 -0.3701
18628TIP3   OH277374   4.213   0.084   4.471 -0.4536 -0.2561  0.1766
18628TIP3    H177375   4.287   0.095   4.412 -1.6480 -0.3421 -1.3813
18628TIP3    H277376   4.253   0.076   4.558  1.3044  0.5156 -0.5138
18629TIP3   OH277377   4.132   2.944  13.470 -0.2546  0.6861  0.0769
18629TIP3    H177378   4.142   2.953  13.376  1.6532  0.8865  0.2497
18629TIP3    H277379   4.189   2.870  13.493 -1.3030  0.1284  0.9918
18630TIP3   OH277380   1.868   6.069  12.460 -0.3761  0.2698 -0.4983
18630TIP3    H177381   1.928   6.101  12.393 -0.0807 -1.6182 -1.2037
18630TIP3    H277382   1.920   6.005  12.509 -1.8752 -1.7575 -1.4075
18631TIP3   OH277383   6.077   4.765   4.071 -0.3140 -0.0606  0.1158
18631TIP3    H177384   6.008   4.742   4.134  0.1396  1.5459  1.2727
18631TIP3    H277385   6.150   4.708   4.093  0.1951  1.1746  1.7656
18632TIP3   OH277386   2.109   6.101   5.212  0.3383 -0.0201  0.2753
18632TIP3    H177387   2.150   6.091   5.298 -0.6156 -1.7159  0.5693
18632TIP3    H277388   2.017   6.081   5.227 -0.1156  1.0396 -0.8989
18633TIP3   OH277389   0.987   2.156  15.323  0.0424  0.3867  0.1862
18633TIP3    H177390   1.006   2.242  15.360  0.8626 -0.4566  1.8414
18633TIP3    H277391   0.894   2.142  15.342 -0.0517  0.8346  0.0621
18634TIP3   OH277392   1.783   4.685  13.413 -0.9891 -0.8548  0.2250
18634TIP3    H177393   1.876   4.708  13.415 -1.2969  0.4559  0.6668
18634TIP3    H277394   1.780   4.601  13.368  0.3760 -0.7516 -0.1055
18635TIP3   OH277395   2.711   0.233  11.799  0.5762  0.1222 -0.1917
18635TIP3    H177396   2.669   0.312  11.767  0.1842  0.0129  0.0463
18635TIP3    H277397   2.802   0.258  11.813  1.3160 -0.3833 -3.4327
18636TIP3   OH277398   5.377   0.163  12.070 -0.7720 -0.0810  0.5042
18636TIP3    H177399   5.463   0.185  12.106 -0.3841 -0.1037 -0.3718
18636TIP3    H277400   5.328   0.245  12.073 -0.7080 -0.0615  0.9842
18637TIP3   OH277401   3.078   3.454  13.391 -0.0883  0.0157 -0.7695
18637TIP3    H177402   3.123   3.517  13.448  0.1545  0.3400 -1.3140
18637TIP3    H277403   2.986   3.482  13.392  0.0606  0.5422 -1.2101
18638TIP3   OH277404   4.874   0.720   4.638  0.4073  0.1421  0.6945
18638TIP3    H177405   4.791   0.720   4.686 -0.1669  0.5979 -0.2782
18638TIP3    H277406   4.939   0.745   4.704 -0.2504 -0.0028  1.4191
18639TIP3   OH277407   6.477   3.789  16.875  0.7140  0.5654  0.0471
18639TIP3    H177408   6.499   3.879  16.851  0.2701  0.4284 -0.9239
18639TIP3    H277409   6.382   3.783  16.863  0.8086 -0.1656 -0.4073
18640TIP3   OH277410   6.249   5.145  14.296 -0.3426  0.0235  0.0480
18640TIP3    H177411   6.233   5.233  14.260  0.5342 -0.0240 -0.4914
18640TIP3    H277412   6.343   5.132  14.285 -0.4310 -0.9003  0.3286
18641TIP3   OH277413   6.769   2.584   1.713 -0.1024 -0.4646 -0.5022
18641TIP3    H177414   6.825   2.566   1.637 -0.4081 -1.3061 -0.5426
18641TIP3    H277415   6.827   2.572   1.788  0.1634  0.2233 -0.5838
18642TIP3   OH277416   3.226   2.291   3.262 -0.8940 -0.3066 -0.8989
18642TIP3    H177417   3.249   2.371   3.215  1.6433 -0.2489  0.3088
18642TIP3    H277418   3.194   2.321   3.347  2.0237 -0.4702  0.3875
18643TIP3   OH277419   5.347   0.138   3.980 -0.1322  0.4287 -0.1879
18643TIP3    H177420   5.272   0.115   4.035 -0.6013  1.9241 -0.1836
18643TIP3    H277421   5.360   0.060   3.925 -1.3591 -0.0395  0.1534
18644TIP3   OH277422   5.773   1.133   2.686 -0.3092  0.5966 -0.0153
18644TIP3    H177423   5.816   1.124   2.601  0.1009  0.4679  0.2058
18644TIP3    H277424   5.778   1.046   2.725  1.4986  1.1516  1.0914
18645TIP3   OH277425   6.589   5.510   5.914 -0.5005  0.5102  0.2197
18645TIP3    H177426   6.530   5.504   5.989 -1.9844 -2.7932 -1.0149
18645TIP3    H277427   6.532   5.501   5.838  1.3175  0.1724 -1.1618
18646TIP3   OH277428   6.009   5.093   3.166 -0.0391 -0.0782 -1.0523
18646TIP3    H177429   5.950   5.073   3.092 -2.0422 -1.3162  0.7562
18646TIP3    H277430   5.975   5.175   3.201 -0.2987 -0.4577 -0.4013
18647TIP3   OH277431   1.054   1.825  13.279  0.0102  0.0113 -0.3860
18647TIP3    H177432   1.008   1.814  13.196 -1.2493  3.0647 -0.2237
18647TIP3    H277433   1.142   1.791  13.262 -0.2775  0.3431 -2.9337
18648TIP3   OH277434   3.844   2.831   5.855 -0.3908  0.2000  0.3990
18648TIP3    H177435   3.847   2.927   5.848 -4.0776  0.3872 -1.0032
18648TIP3    H277436   3.819   2.814   5.946  2.0519  0.3835  1.1662
18649TIP3   OH277437   0.516   4.263  13.826 -0.4044 -0.5311 -0.2313
18649TIP3    H177438   0.450   4.239  13.761 -0.1831 -0.8899 -0.3254
18649TIP3    H277439   0.599   4.237  13.787 -0.2740 -0.7888  0.2145
18650TIP3   OH277440   0.811   4.147  14.594  0.3269 -0.4498  0.0905
18650TIP3    H177441   0.754   4.185  14.661  0.3735  0.0737 -0.1551
18650TIP3    H277442   0.774   4.061  14.577 -0.7435  0.0991 -0.4713
18651TIP3   OH277443   0.200   4.036  12.476 -0.1267  0.3008  0.7193
18651TIP3    H177444   0.211   3.962  12.416 -2.9256  0.2487  0.1447
18651TIP3    H277445   0.289   4.055  12.506  1.3090 -0.4079 -2.5506
18652TIP3   OH277446   6.135   5.965   1.672 -0.0803  0.0974 -0.1135
18652TIP3    H177447   6.114   6.049   1.631 -1.7597  0.3233  1.1034
18652TIP3    H277448   6.207   5.930   1.619 -0.1083  1.7612 -1.3414
18653TIP3   OH277449   6.616   2.656   1.044 -0.1787  0.3157 -0.8019
18653TIP3    H177450   6.681   2.651   1.115 -2.3527  0.6558  1.3670
18653TIP3    H277451   6.666   2.684   0.968  2.2122  0.5569  0.7290
18654TIP3   OH277452   2.832   4.247   2.259  0.2370 -0.2187 -0.1727
18654TIP3    H177453   2.813   4.168   2.311  1.0693  0.2394  0.8851
18654TIP3    H277454   2.782   4.316   2.302  2.8562  0.6799  1.6811
18655TIP3   OH277455   2.184   3.564  15.963  0.5131 -0.3739 -0.2452
18655TIP3    H177456   2.131   3.506  15.909  0.5558 -0.7566  0.1158
18655TIP3    H277457   2.129   3.582  16.039  0.7237 -0.4060 -0.0848
18656TIP3   OH277458   3.944   0.939  16.329  0.2398  0.1600 -0.1415
18656TIP3    H177459   3.858   0.907  16.301 -0.0709  0.6901  0.1767
18656TIP3    H277460   3.958   0.900  16.415 -2.0753  3.9995  2.3103
18657TIP3   OH277461   6.783   3.730  12.106  0.2462  0.0770  0.2292
18657TIP3    H177462   6.697   3.695  12.083  0.7517 -1.0614  0.0279
18657TIP3    H277463   6.766   3.822  12.126 -0.7134  0.3534 -1.6325
18658TIP3   OH277464   4.602   5.399  17.044  0.4722  0.0125  0.5585
18658TIP3    H177465   4.697   5.400  17.034  0.4768 -0.8596  0.5009
18658TIP3    H277466   4.579   5.491  17.058  1.0024  0.6830 -2.3696
18659TIP3   OH277467   6.329   0.915   1.324 -0.2619  0.7425 -0.2348
18659TIP3    H177468   6.327   0.997   1.374  1.4552  0.9622 -0.4588
18659TIP3    H277469   6.388   0.933   1.251  1.2127 -1.0828  0.4356
18660TIP3   OH277470   2.061   3.172  10.683  0.4343  0.0349 -0.0634
18660TIP3    H177471   2.039   3.265  10.689 -0.4567 -0.1803  0.1473
18660TIP3    H277472   2.153   3.168  10.709  0.4315  0.8358  0.1132
18661TIP3   OH277473   3.585   1.730   0.521  0.3139  0.0360 -0.0743
18661TIP3    H177474   3.662   1.693   0.478 -0.8720 -0.7013 -1.6616
18661TIP3    H277475   3.615   1.813   0.557  1.7292  0.0113 -1.1134
18662TIP3   OH277476   3.560   1.932   2.627 -0.1121 -1.0100 -0.0399
18662TIP3    H177477   3.516   1.849   2.646  0.1545 -0.8348  1.4445
18662TIP3    H277478   3.650   1.919   2.656  0.2157 -0.5724 -0.8478
18663TIP3   OH277479   1.827   1.366   2.410 -0.2994  0.1119  0.7505
18663TIP3    H177480   1.806   1.446   2.458 -0.3405  0.2224  0.5482
18663TIP3    H277481   1.749   1.347   2.358 -0.9349 -0.9663  2.0250
18664TIP3   OH277482   1.264   1.780  16.142  0.3421  0.0234 -0.7962
18664TIP3    H177483   1.340   1.834  16.161  0.7669 -0.9929  0.5419
18664TIP3    H277484   1.195   1.842  16.121  1.1964  1.0112 -0.7381
18665TIP3   OH277485   5.391   0.686  13.013  0.0236 -0.1599 -0.6063
18665TIP3    H177486   5.449   0.760  12.993  2.3641 -0.7371  3.1143
18665TIP3    H277487   5.410   0.622  12.944  3.0729  0.1643 -0.2182
18666TIP3   OH277488   5.156   1.193  12.413 -0.5394  0.0438 -0.1086
18666TIP3    H177489   5.247   1.189  12.444 -0.5067  2.4065  0.3203
18666TIP3    H277490   5.104   1.200  12.493 -1.0126 -0.2836 -0.3863
18667TIP3   OH277491   6.210   1.294  10.872 -1.2027  0.3090  0.1612
18667TIP3    H177492   6.128   1.321  10.829  0.0729  1.4299 -1.6962
18667TIP3    H277493   6.227   1.206  10.838 -1.4848  0.1741  0.3588
18668TIP3   OH277494   6.118   6.123  10.926  0.5183  0.0357  0.2908
18668TIP3    H177495   6.147   6.172  10.849 -0.7721  0.1072 -0.1738
18668TIP3    H277496   6.098   6.191  10.992 -1.1964  0.1888 -0.3277
18669TIP3   OH277497   4.830   0.935  12.593  0.3638  0.3904 -0.2978
18669TIP3    H177498   4.895   0.912  12.659  1.4330 -1.6096 -1.9215
18669TIP3    H277499   4.749   0.894  12.622  0.6514  0.1193  0.1246
18670TIP3   OH277500   4.151   4.349  15.033  0.0194 -0.6200  0.6432
18670TIP3    H177501   4.149   4.424  14.974 -1.5603  0.4293  1.9362
18670TIP3    H277502   4.239   4.313  15.024  0.4742  0.7518 -0.7785
18671TIP3   OH277503   6.523   1.563   0.317  0.1246  0.2583 -0.6993
18671TIP3    H177504   6.593   1.499   0.329 -0.7111 -0.4233  0.7794
18671TIP3    H277505   6.555   1.622   0.249  2.4883  0.4558  0.5077
18672TIP3   OH277506   6.160   1.051   5.631 -0.6232  0.5609  0.4509
18672TIP3    H177507   6.084   1.003   5.663 -1.1704 -0.4893 -2.2023
18672TIP3    H277508   6.235   0.994   5.649 -1.2325 -1.3544 -2.4163
18673TIP3   OH277509   2.653   5.475   5.169  0.4507 -0.1668  0.0675
18673TIP3    H177510   2.722   5.426   5.214  2.0636 -1.3934 -3.3326
18673TIP3    H277511   2.573   5.427   5.186  0.9137 -0.3838  1.7709
18674TIP3   OH277512   2.248   5.214  10.737 -0.7117  0.2703  0.4581
18674TIP3    H177513   2.176   5.254  10.688 -0.9123  1.6040  1.7680
18674TIP3    H277514   2.206   5.160  10.803 -0.5191  0.5098  0.7853
18675TIP3   OH277515   2.982   3.095   0.014 -0.1936  0.6797 -0.5825
18675TIP3    H177516   2.903   3.086   0.068 -0.0679 -1.3833 -0.6538
18675TIP3    H277517   3.041   3.149   0.067 -0.2676 -0.8685  1.1829
18676TIP3   OH277518   3.295   5.770   5.558  0.0566  0.4617 -0.6036
18676TIP3    H177519   3.347   5.696   5.526 -0.8385 -0.2888 -0.3931
18676TIP3    H277520   3.312   5.773   5.652 -0.4709  0.0473 -0.4912
18677TIP3   OH277521   4.592   1.750   2.255  0.3072 -0.6335  0.0633
18677TIP3    H177522   4.637   1.689   2.196  0.9116  0.2756 -0.4282
18677TIP3    H277523   4.508   1.766   2.213  0.3988 -0.6407 -0.1245
18678TIP3   OH277524   2.725   5.265   1.882  0.0487  0.6287 -0.1620
18678TIP3    H177525   2.763   5.195   1.936 -3.2130 -0.8794  0.4320
18678TIP3    H277526   2.758   5.248   1.794 -0.5362 -1.6434 -0.0081
18679TIP3   OH277527   1.859   0.442   1.040 -0.4303 -0.2870 -0.0300
18679TIP3    H177528   1.783   0.500   1.040  0.0527  0.3697 -0.7055
18679TIP3    H277529   1.860   0.403   0.953  1.0904  1.2040 -0.7335
18680TIP3   OH277530   0.092   3.529   0.186  0.4008  0.0277 -0.5513
18680TIP3    H177531   0.141   3.542   0.268  0.0992 -1.4840 -0.0954
18680TIP3    H277532   0.100   3.613   0.140 -0.1087  1.2050  1.3856
18681TIP3   OH277533   6.772   5.879  11.928  0.4065 -0.2758  0.0580
18681TIP3    H177534   6.858   5.913  11.905 -0.2315 -0.2900 -2.6352
18681TIP3    H277535   6.719   5.957  11.944  0.2189 -0.1532 -1.1128
18682TIP3   OH277536   3.110   3.486   0.569 -0.1481  0.1549 -0.3507
18682TIP3    H177537   3.133   3.498   0.661  0.7346 -0.1620 -0.5251
18682TIP3    H277538   3.018   3.460   0.571 -0.3055  0.7128  0.4019
18683TIP3   OH277539   0.091   5.939  14.420 -0.8062 -0.0789 -0.4195
18683TIP3    H177540   0.172   5.924  14.372  0.3468  2.5595  0.5274
18683TIP3    H277541   0.093   6.032  14.442 -2.8897 -0.4723  1.8452
18684TIP3   OH277542   4.353   3.053   3.084  0.2702  0.0038  0.5927
18684TIP3    H177543   4.338   3.012   2.999 -0.4408 -0.5879  0.9873
18684TIP3    H277544   4.387   3.140   3.064 -0.2574  0.0116 -0.3023
18685TIP3   OH277545   2.343   5.115  12.656  0.2451 -0.3251 -0.0760
18685TIP3    H177546   2.432   5.148  12.652  0.8883 -1.9545 -0.0288
18685TIP3    H277547   2.288   5.190  12.634  1.7071  0.2383 -2.1227
18686TIP3   OH277548   3.050   3.565   5.240 -0.0494  0.0815  0.1289
18686TIP3    H177549   3.040   3.647   5.191 -0.0734 -0.4099 -0.7084
18686TIP3    H277550   3.145   3.553   5.246  0.0158 -1.1277 -2.0511
18687TIP3   OH277551   0.997   6.175   5.339 -0.2132  0.5178  0.5277
18687TIP3    H177552   0.922   6.142   5.290  1.2879  0.6563 -2.0763
18687TIP3    H277553   1.018   6.106   5.402 -0.9770 -0.6641 -0.4737
18688TIP3   OH277554   1.000   3.821  11.456 -0.2310 -0.0869  0.2814
18688TIP3    H177555   0.960   3.847  11.373  1.6123 -0.2270 -0.7058
18688TIP3    H277556   1.089   3.858  11.453  0.4704 -1.5494  1.4111
18689TIP3   OH277557   4.830   1.714   2.410  0.4311  0.1680  0.3937
18689TIP3    H177558   4.798   1.719   2.500 -1.2769  0.9453 -0.2172
18689TIP3    H277559   4.751   1.725   2.356  1.5985  1.1933 -1.1922
18690TIP3   OH277560   6.659   4.543  14.523  0.6000 -0.2088  0.4114
18690TIP3    H177561   6.631   4.576  14.608  0.6533 -1.3690  0.8993
18690TIP3    H277562   6.609   4.594  14.460 -0.6250 -0.3958  1.1852
18691TIP3   OH277563   6.482   5.229   3.817  0.6580 -0.2752  0.8506
18691TIP3    H177564   6.397   5.209   3.854  1.8685 -2.1006  2.8928
18691TIP3    H277565   6.485   5.180   3.734 -0.1321 -0.4958  0.9510
18692TIP3   OH277566   1.131   0.822  13.226  0.7699  0.2398 -0.5269
18692TIP3    H177567   1.121   0.774  13.143  0.1077  0.0321 -0.3341
18692TIP3    H277568   1.042   0.826  13.262  1.0569  0.2827  0.1984
18693TIP3   OH277569   1.666   1.291  11.858 -0.0295  0.4022 -0.2062
18693TIP3    H177570   1.719   1.363  11.823 -0.3820  0.3071 -0.9449
18693TIP3    H277571   1.649   1.317  11.949 -0.0914  1.2183 -0.4384
18694TIP3   OH277572   4.671   2.161  10.892  0.2206  0.1835  0.3655
18694TIP3    H177573   4.703   2.071  10.888  1.5486  0.6115  0.5894
18694TIP3    H277574   4.688   2.196  10.804 -1.6324 -0.1780 -0.1842
18695TIP3   OH277575   1.916   0.222  12.299  0.4770 -0.0097  0.4402
18695TIP3    H177576   2.004   0.260  12.295  0.5907 -0.0542  2.0013
18695TIP3    H277577   1.922   0.152  12.363 -0.5888 -0.3463  0.2004
18696TIP3   OH277578   6.316   4.339  15.044 -0.2287  0.4302 -0.7843
18696TIP3    H177579   6.299   4.394  15.121  0.6265  1.2930 -1.1997
18696TIP3    H277580   6.242   4.358  14.985 -1.6352 -1.2479  0.3251
18697TIP3   OH277581   1.824   4.329   2.522  0.0610  0.4254  0.2274
18697TIP3    H177582   1.852   4.275   2.449 -0.6525 -0.5110  0.6266
18697TIP3    H277583   1.786   4.268   2.585 -1.8701  1.4866  0.1826
18698TIP3   OH277584   4.963   0.864  12.831 -0.1918  0.0420  0.1314
18698TIP3    H177585   5.042   0.909  12.801  0.0147  0.0107  0.6271
18698TIP3    H277586   4.963   0.876  12.926 -2.2396  2.4874 -0.0602
18699TIP3   OH277587   2.282   5.754  16.207  0.0621 -0.1151 -0.1031
18699TIP3    H177588   2.262   5.748  16.301 -0.7339  2.6683 -0.0091
18699TIP3    H277589   2.213   5.809  16.172  1.8725  1.1803 -1.8162
18700TIP3   OH277590   4.135   3.220  15.297  0.5762  0.6033 -0.4943
18700TIP3    H177591   4.166   3.278  15.367 -3.3103  2.8643 -0.3118
18700TIP3    H277592   4.108   3.140  15.343 -0.4510  1.4405  0.4312
18701TIP3   OH277593   4.190   0.465  12.782 -0.2696  0.1267 -0.7277
18701TIP3    H177594   4.233   0.476  12.697 -0.8182 -1.3495 -1.2308
18701TIP3    H277595   4.215   0.377  12.810 -0.9757  0.1809  0.1356
18702TIP3   OH277596   1.580   0.112  11.903 -0.0125 -0.1359 -0.3479
18702TIP3    H177597   1.543   0.040  11.954  0.1737  1.5455  2.3577
18702TIP3    H277598   1.649   0.148  11.958  0.7866  1.3212 -2.1781
18703TIP3   OH277599   2.551   0.813  15.539  0.4092  0.4750 -0.1168
18703TIP3    H177600   2.539   0.798  15.446  0.7764 -1.6408  0.1253
18703TIP3    H277601   2.483   0.760  15.581 -0.6105  2.4025  0.8412
18704TIP3   OH277602   1.730   1.863   6.477  0.1300 -0.6841  0.3060
18704TIP3    H177603   1.726   1.904   6.563 -0.4111  0.9875 -0.4765
18704TIP3    H277604   1.665   1.793   6.481 -1.4161  0.7189  0.6138
18705TIP3   OH277605   3.189   6.360  16.705  1.2503 -0.2003  0.3686
18705TIP3    H177606   3.250   6.433  16.696  1.6499 -0.2836  2.0782
18705TIP3    H277607   3.104   6.396  16.681  1.4148  0.8930  1.3205
18706TIP3   OH277608   1.280   2.735   2.680  0.4205  0.2055  0.1601
18706TIP3    H177609   1.332   2.658   2.699 -0.8900 -1.3419 -2.0223
18706TIP3    H277610   1.334   2.787   2.621  0.5209 -0.0811 -0.0010
18707TIP3   OH277611   4.793   1.975   1.804  0.7288  0.5063 -0.1422
18707TIP3    H177612   4.801   2.065   1.773 -0.9580  1.0591  0.8929
18707TIP3    H277613   4.874   1.958   1.852  0.7481  1.7403  0.2908
18708TIP3   OH277614   3.438   5.389  11.689 -0.0582  0.2025 -0.6360
18708TIP3    H177615   3.375   5.433  11.746 -1.9651 -4.6018  1.5478
18708TIP3    H277616   3.523   5.417  11.722 -1.1181 -0.2055  2.9548
18709TIP3   OH277617   2.020   1.312  13.696  0.2232  0.2631  0.0171
18709TIP3    H177618   2.076   1.255  13.749 -0.5802  0.2034  0.8331
18709TIP3    H277619   1.992   1.256  13.623 -0.2003 -0.2646  0.5725
18710TIP3   OH277620   3.416   5.334   4.204  0.3090 -0.1179  0.1883
18710TIP3    H177621   3.432   5.245   4.234  1.0807 -0.8176 -2.0699
18710TIP3    H277622   3.349   5.325   4.136  0.8802  0.8913 -0.5515
18711TIP3   OH277623   6.585   5.980  11.367  0.1382  0.1284 -0.5261
18711TIP3    H177624   6.544   6.048  11.313 -1.4731 -1.0428 -0.8566
18711TIP3    H277625   6.567   6.006  11.457 -1.4339 -0.3551 -0.6601
18712TIP3   OH277626   4.165   3.855  15.026 -0.9963 -0.2463 -0.0054
18712TIP3    H177627   4.099   3.786  15.016  1.2569 -2.6796  0.6519
18712TIP3    H277628   4.142   3.898  15.108 -1.1683 -1.7946  0.7964
18713TIP3   OH277629   0.974   3.917   4.199  0.1212  0.2758 -0.2184
18713TIP3    H177630   1.043   3.983   4.190  0.2132  0.4815  1.5396
18713TIP3    H277631   0.989   3.857   4.127  1.2966  1.0738 -0.6836
18714TIP3   OH277632   0.849   3.957  14.186 -0.4175 -0.1744 -0.0956
18714TIP3    H177633   0.832   3.947  14.093  2.3638  0.0445 -0.7119
18714TIP3    H277634   0.892   3.875  14.212 -0.0763  0.2438  0.7035
18715TIP3   OH277635   2.058   4.488   1.862 -0.0486 -0.2732 -0.5978
18715TIP3    H177636   2.087   4.531   1.781 -1.0771 -0.7759 -1.2559
18715TIP3    H277637   2.139   4.456   1.901  0.9589  3.2069  0.5626
18716TIP3   OH277638   0.623   6.412   6.501  0.0899 -0.0110 -0.0454
18716TIP3    H177639   0.609   6.324   6.536  0.5940  1.2141  3.6760
18716TIP3    H277640   0.564   6.468   6.552  2.2100  2.2193  0.1656
18717TIP3   OH277641   6.025   0.804  16.503 -0.8782  0.0149  0.2914
18717TIP3    H177642   6.106   0.853  16.490 -0.7105 -0.1552  0.6775
18717TIP3    H277643   6.003   0.770  16.416  1.5226 -3.1580  0.7023
18718TIP3   OH277644   6.388   0.760  14.490 -0.6473  0.0546 -0.0006
18718TIP3    H177645   6.392   0.719  14.576 -0.4653  0.0759  0.0012
18718TIP3    H277646   6.315   0.717  14.446  1.0123 -1.9794 -0.8946
18719TIP3   OH277647   4.827   0.023   5.580  0.1060 -0.1721  0.1288
18719TIP3    H177648   4.858   0.056   5.664 -1.4707  1.1938  0.2238
18719TIP3    H277649   4.891   0.055   5.517 -1.0029  2.7077  0.3019
18720TIP3   OH277650   1.486   0.090   3.117 -0.2912  0.1537  0.0199
18720TIP3    H177651   1.483   0.056   3.027 -2.2418  3.7934 -1.5106
18720TIP3    H277652   1.564   0.145   3.119 -0.3433  0.2103  0.5279
18721TIP3   OH277653   0.176   6.584   4.993  0.3675  0.8813 -0.3159
18721TIP3    H177654   0.162   6.593   5.087 -0.4428 -0.0701 -0.3308
18721TIP3    H277655   0.107   6.524   4.964  1.5555 -0.0741 -1.2571
18722TIP3   OH277656   2.142   3.789   1.540 -0.4400 -0.4808 -0.0951
18722TIP3    H177657   2.052   3.769   1.564 -0.2543 -0.3892  0.6973
18722TIP3    H277658   2.193   3.716   1.574 -0.1506 -0.2700 -0.0713
18723TIP3   OH277659   6.567   5.596  14.245 -0.4966  0.3021  0.4484
18723TIP3    H177660   6.630   5.665  14.264 -0.1462  0.2715 -0.5785
18723TIP3    H277661   6.613   5.535  14.188 -1.6061  0.5678 -0.7864
18724TIP3   OH277662   5.386   4.710   2.499  0.2015  0.1609  0.2433
18724TIP3    H177663   5.330   4.733   2.425 -1.0474  0.4043  1.2059
18724TIP3    H277664   5.430   4.629   2.473 -0.6251 -0.0424 -0.5609
18725TIP3   OH277665   6.343   3.392  17.076 -0.3120 -0.2974  0.0985
18725TIP3    H177666   6.337   3.382  17.171 -1.1502  1.0921  0.2338
18725TIP3    H277667   6.329   3.304  17.041  3.3247 -1.5051  1.2906
18726TIP3   OH277668   5.901   2.550   5.798 -0.3579 -0.5731  0.0292
18726TIP3    H177669   5.986   2.594   5.790 -0.7524  0.0130 -1.1420
18726TIP3    H277670   5.912   2.491   5.872  2.1236 -2.8009 -1.8734
18727TIP3   OH277671   6.555   1.694   3.894  0.1933  0.1152  0.1838
18727TIP3    H177672   6.509   1.614   3.920 -1.5696  1.4248  1.3362
18727TIP3    H277673   6.620   1.708   3.963  0.6142 -0.3812 -0.1037
18728TIP3   OH277674   2.343   4.514  12.037 -0.3044 -0.6991  0.7170
18728TIP3    H177675   2.378   4.573  12.104 -0.1051 -0.8376  0.7376
18728TIP3    H277676   2.401   4.525  11.962  0.9270 -2.2571  1.3608
18729TIP3   OH277677   3.531   4.723   4.093  0.7382 -0.6222  0.0140
18729TIP3    H177678   3.541   4.671   4.173 -0.6453 -0.3318  0.4061
18729TIP3    H277679   3.466   4.675   4.041  0.4991 -0.0199 -0.2569
18730TIP3   OH277680   1.861   0.776   4.385 -0.2498  0.2509 -0.6833
18730TIP3    H177681   1.788   0.732   4.342  0.5848 -0.4071 -1.4497
18730TIP3    H277682   1.832   0.867   4.394 -0.6255  0.3086 -2.2446
18731TIP3   OH277683   0.646   1.288   2.221 -0.1933 -0.1958  0.0315
18731TIP3    H177684   0.686   1.337   2.149  1.1142 -3.4778 -1.6790
18731TIP3    H277685   0.560   1.263   2.188  0.4366 -1.7707 -0.5176
18732TIP3   OH277686   3.896   3.651  13.543 -0.1189 -0.3040 -0.1719
18732TIP3    H177687   3.917   3.689  13.458 -1.5685 -0.7679 -0.7619
18732TIP3    H277688   3.893   3.556  13.526 -0.7377 -0.3750  0.3220
18733TIP3   OH277689   1.037   3.011   3.272  0.1086  0.3716 -0.5530
18733TIP3    H177690   1.098   3.050   3.335  1.4922 -1.7459 -0.4958
18733TIP3    H277691   0.953   3.010   3.318  0.4351  1.5731  0.1084
18734TIP3   OH277692   1.736   6.203   4.893  0.3014 -0.4231 -0.3693
18734TIP3    H177693   1.676   6.131   4.875  2.4786 -2.0120 -1.7678
18734TIP3    H277694   1.696   6.279   4.850 -1.5467 -1.0003  0.2633
18735TIP3   OH277695   6.192   4.417   1.893 -0.5165  0.3402 -0.2049
18735TIP3    H177696   6.148   4.473   1.957 -0.0417  0.6395 -0.1359
18735TIP3    H277697   6.138   4.338   1.889  0.0012 -0.1428  1.3628
18736TIP3   OH277698   5.533   3.705   3.747 -0.3160  0.6203  0.2901
18736TIP3    H177699   5.487   3.700   3.831 -2.1347 -0.4713 -0.7154
18736TIP3    H277700   5.475   3.661   3.685  1.4121  0.5618 -1.3729
18737TIP3   OH277701   2.296   3.843   2.151 -0.3098  0.4872  0.1512
18737TIP3    H177702   2.238   3.864   2.224 -0.3003 -0.5010  0.4634
18737TIP3    H277703   2.347   3.768   2.182 -1.7781 -1.3640 -1.5997
18738TIP3   OH277704   1.259   6.130   5.004  0.1001 -0.0452  0.0019
18738TIP3    H177705   1.305   6.083   5.073 -1.6108  0.2143  1.3829
18738TIP3    H277706   1.328   6.154   4.942  1.5650 -1.0444  1.1541
18739TIP3   OH277707   0.705   1.862   0.832 -0.0532 -0.1844  0.4283
18739TIP3    H177708   0.795   1.890   0.851  0.0406 -1.6228  2.4774
18739TIP3    H277709   0.678   1.917   0.759  2.0417  1.1920  0.5866
18740TIP3   OH277710   3.763   3.174  12.795  0.0490 -0.6694  0.3149
18740TIP3    H177711   3.831   3.206  12.736 -0.1354 -0.1440  0.3899
18740TIP3    H277712   3.810   3.117  12.856  0.1734 -1.6119 -0.6221
18741TIP3   OH277713   1.399   0.280  11.346  0.0809  0.0529 -0.0665
18741TIP3    H177714   1.340   0.239  11.282 -0.1477  0.4221 -0.0946
18741TIP3    H277715   1.410   0.215  11.414 -0.3534 -0.0229 -0.0681
18742TIP3   OH277716   3.443   4.831   2.556 -0.0482 -0.0417  0.2451
18742TIP3    H177717   3.398   4.908   2.592  2.1296  1.4080  0.0209
18742TIP3    H277718   3.453   4.771   2.630  1.2046  1.3608  1.2500
18743TIP3   OH277719   0.598   5.394   6.144  0.9017  0.2100 -0.9172
18743TIP3    H177720   0.520   5.436   6.108  0.4110 -0.6707 -0.9297
18743TIP3    H277721   0.564   5.318   6.192  1.7938 -0.6101 -1.5333
18744TIP3   OH277722   5.506   3.848   3.157 -0.0255 -0.7703  0.1793
18744TIP3    H177723   5.569   3.873   3.089 -0.1942 -1.3022 -0.1821
18744TIP3    H277724   5.455   3.777   3.117  0.2380 -1.4730  1.0487
18745TIP3   OH277725   5.573   0.475  13.656  0.5369 -0.0859  0.2746
18745TIP3    H177726   5.621   0.517  13.585  1.2938 -3.1271 -1.2202
18745TIP3    H277727   5.482   0.496  13.640  0.7660 -0.1016 -1.2252
18746TIP3   OH277728   2.691   6.146  14.823 -0.3117  0.4963  0.0400
18746TIP3    H177729   2.695   6.180  14.733  1.3004 -3.0937 -1.4487
18746TIP3    H277730   2.782   6.131  14.847 -0.7466  0.9251  2.1394
18747TIP3   OH277731   0.178   3.801   5.510  0.0046  0.0902 -0.3557
18747TIP3    H177732   0.248   3.740   5.486 -0.0657  0.2015 -0.8553
18747TIP3    H277733   0.220   3.866   5.565  0.5888  0.8592 -1.6500
18748TIP3   OH277734   0.073   1.308  14.846 -0.2842 -0.2498  0.1208
18748TIP3    H177735   0.108   1.219  14.851 -0.9745 -0.4995  0.6118
18748TIP3    H277736   0.004   1.304  14.780  0.0860  0.0648 -0.2927
18749TIP3   OH277737   3.458   1.764   2.969 -0.0147 -0.7726 -0.3817
18749TIP3    H177738   3.518   1.740   2.898  0.0138  0.2536 -0.7250
18749TIP3    H277739   3.513   1.764   3.048 -0.0239 -1.8152 -0.3731
18750TIP3   OH277740   0.018   0.398  16.786  0.0690 -0.1705  0.5715
18750TIP3    H177741   0.057   0.484  16.770 -1.8074  0.7888  0.7793
18750TIP3    H277742   0.086   0.347  16.829  0.8940  1.5877  1.4236
18751TIP3   OH277743   3.956   3.034   0.732 -0.5672 -0.2435  0.2468
18751TIP3    H177744   3.926   2.999   0.648 -1.8949  1.2490  0.0484
18751TIP3    H277745   3.964   3.128   0.717 -0.5191  0.0066  1.7042
18752TIP3   OH277746   4.235   1.149   0.653 -0.3431 -0.1971 -1.0198
18752TIP3    H177747   4.232   1.055   0.638 -3.1224 -0.3606 -0.0093
18752TIP3    H277748   4.191   1.162   0.737  0.3881  1.9728 -0.8942
18753TIP3   OH277749   1.890   6.463  17.059  0.3288 -0.2903  0.5041
18753TIP3    H177750   1.909   6.381  17.105  2.0184  0.3126  0.9186
18753TIP3    H277751   1.916   6.446  16.968  1.6019  0.0808  0.7857
18754TIP3   OH277752   3.633   4.651   3.136  0.1112  0.1256 -0.1433
18754TIP3    H177753   3.719   4.694   3.136 -0.0053  0.5191 -3.0331
18754TIP3    H277754   3.649   4.567   3.094 -0.5538 -0.7429  1.2836
18755TIP3   OH277755   1.510   2.547  12.114  0.7444 -0.5778 -0.1218
18755TIP3    H177756   1.546   2.634  12.132  1.9570 -1.2779  0.9577
18755TIP3    H277757   1.520   2.536  12.019  4.0262 -0.9740  0.1684
18756TIP3   OH277758   1.213   1.890   2.878 -0.5203  0.0532  0.1130
18756TIP3    H177759   1.230   1.861   2.789  0.4738  0.4635  0.1611
18756TIP3    H277760   1.273   1.963   2.891 -0.1785 -0.4379  1.3615
18757TIP3   OH277761   6.825   6.819  12.351 -0.1520 -0.5338  0.2955
18757TIP3    H177762   6.736   6.831  12.384 -0.1370  1.7640 -0.3631
18757TIP3    H277763   6.831   6.878  12.276  2.0184 -0.4134  0.5080
18758TIP3   OH277764   0.829   2.725  14.997  0.0485 -0.0286 -0.6642
18758TIP3    H177765   0.745   2.771  14.999 -0.2499 -0.5848  0.4445
18758TIP3    H277766   0.890   2.788  14.960 -0.7987  0.4726 -1.2496
18759TIP3   OH277767   2.981   3.537  11.751  0.0146  0.3742  0.2034
18759TIP3    H177768   3.005   3.629  11.765 -1.1578  0.8188 -0.5575
18759TIP3    H277769   2.961   3.532  11.657 -1.4867 -0.2764  0.5346
18760TIP3   OH277770   1.698   0.691   4.161  0.3386 -0.7677  0.0339
18760TIP3    H177771   1.745   0.695   4.077 -1.5675 -0.5034 -1.0682
18760TIP3    H277772   1.679   0.783   4.181  0.8077 -0.8291  0.8013
18761TIP3   OH277773   5.913   4.439  15.823  0.4789 -0.1000  0.3140
18761TIP3    H177774   5.883   4.376  15.889 -0.5312 -1.0359 -0.9995
18761TIP3    H277775   5.875   4.408  15.741  1.5130  1.1801 -0.6844
18762TIP3   OH277776   2.567   5.749  14.202  0.2242 -0.1537 -0.2669
18762TIP3    H177777   2.588   5.802  14.279 -1.8719  1.9184 -1.0161
18762TIP3    H277778   2.553   5.661  14.237  1.0038  0.3612  1.4552
18763TIP3   OH277779   6.001   3.323   1.575 -0.4187  0.2072  0.0491
18763TIP3    H177780   5.949   3.385   1.626 -1.2537  0.4082 -0.9986
18763TIP3    H277781   6.043   3.377   1.507  0.4272 -0.0930  0.3180
18764TIP3   OH277782   1.479   3.830  12.583  0.4924  0.4112  0.0830
18764TIP3    H177783   1.450   3.759  12.641 -0.4737 -0.3869 -1.3047
18764TIP3    H277784   1.472   3.909  12.636 -1.6808 -0.1002  0.6610
18765TIP3   OH277785   1.220   4.405  11.144  0.7818 -0.4095  0.1647
18765TIP3    H177786   1.285   4.425  11.077 -1.7183  0.6105 -2.1786
18765TIP3    H277787   1.174   4.327  11.111 -2.8752  2.1377 -1.4526
18766TIP3   OH277788   6.187   1.165   4.499 -0.0312 -0.2448 -0.2559
18766TIP3    H177789   6.158   1.208   4.580  0.3910  1.4797 -0.9807
18766TIP3    H277790   6.138   1.083   4.497 -3.3394  1.5620 -0.3605
18767TIP3   OH277791   6.780   4.478  14.998 -0.1283 -0.2675  0.2236
18767TIP3    H177792   6.725   4.526  15.059 -1.4148  0.8680 -1.7002
18767TIP3    H277793   6.867   4.478  15.038 -0.6301  1.5819  1.4371
18768TIP3   OH277794   2.647   0.031  12.549 -0.6329  0.3928  0.3831
18768TIP3    H177795   2.587   0.051  12.621 -1.1467  0.2369  0.0021
18768TIP3    H277796   2.725   0.083  12.568 -1.5385  1.9759 -0.0135
18769TIP3   OH277797   3.427   5.721   0.589  0.8864 -0.6073 -0.2701
18769TIP3    H177798   3.449   5.811   0.565 -0.8939  0.6539  2.3022
18769TIP3    H277799   3.415   5.676   0.506  2.8043  1.2383 -1.6435
18770TIP3   OH277800   5.927   3.216  11.135 -0.6185  0.2621 -0.0178
18770TIP3    H177801   5.881   3.281  11.081 -0.1707 -0.1420 -0.9222
18770TIP3    H277802   5.878   3.214  11.217  0.0596  2.6035  0.5070
18771TIP3   OH277803   4.395   2.297  13.594 -0.4159 -0.3879  0.0553
18771TIP3    H177804   4.312   2.269  13.556 -0.4276  0.9073 -0.9547
18771TIP3    H277805   4.426   2.366  13.535  1.1920 -0.5851  0.6211
18772TIP3   OH277806   3.426   4.628   4.553 -0.0020 -0.1621  0.3872
18772TIP3    H177807   3.421   4.603   4.645  1.8156  1.4377  0.9820
18772TIP3    H277808   3.499   4.689   4.548 -0.5116  0.3766 -2.0044
18773TIP3   OH277809   4.251   6.828   2.131 -0.0437  0.1642 -0.2616
18773TIP3    H177810   4.168   6.872   2.147  0.4359  1.6812 -1.6920
18773TIP3    H277811   4.256   6.820   2.035  1.5152  0.2268 -0.2119
18774TIP3   OH277812   3.479   4.065  12.160  0.3198  0.3895  0.1666
18774TIP3    H177813   3.412   4.118  12.204 -1.0867 -2.2345  1.3877
18774TIP3    H277814   3.557   4.077  12.213 -0.7643 -0.9366  2.2051
18775TIP3   OH277815   0.696   5.959  12.038 -0.4650 -0.3746  0.1676
18775TIP3    H177816   0.610   6.002  12.038 -0.3558 -0.1435 -0.7567
18775TIP3    H277817   0.716   5.945  11.946  1.8415  2.3075  0.1118
18776TIP3   OH277818   3.322   3.039  14.370 -0.1026  0.4021 -0.1299
18776TIP3    H177819   3.308   2.949  14.341  0.2438 -0.3144  1.7673
18776TIP3    H277820   3.243   3.060  14.419  0.9349  0.0881  1.7741
18777TIP3   OH277821   2.216   3.165  16.839  0.1263  0.7449  0.7266
18777TIP3    H177822   2.286   3.129  16.893 -0.7376  1.5225  2.4465
18777TIP3    H277823   2.239   3.140  16.750  2.7050  1.1402  1.1954
18778TIP3   OH277824   6.430   4.491   2.255 -0.5023  0.1200  0.2679
18778TIP3    H177825   6.344   4.504   2.295 -0.1067  0.5799  1.0003
18778TIP3    H277826   6.468   4.418   2.304 -0.9918 -0.9965 -0.9509
18779TIP3   OH277827   1.754   0.356  10.900  0.4756 -0.5207 -0.2120
18779TIP3    H177828   1.668   0.341  10.939  0.3230 -0.2902 -0.4610
18779TIP3    H277829   1.747   0.320  10.812  0.0122  1.2300 -0.9268
18780TIP3   OH277830   5.997   0.212   3.927  0.0703 -0.1969 -0.4008
18780TIP3    H177831   5.903   0.205   3.945  0.0122 -1.7444 -1.1968
18780TIP3    H277832   6.039   0.159   3.994  0.7684  3.5157  2.4460
18781TIP3   OH277833   3.005   0.560   6.246  0.2447  0.2028 -0.1241
18781TIP3    H177834   3.035   0.560   6.337 -0.3171 -0.4857  0.0729
18781TIP3    H277835   2.912   0.580   6.251  0.6640  2.5634 -0.7495
18782TIP3   OH277836   0.865   6.291  15.410 -0.3391 -0.2180  0.0441
18782TIP3    H177837   0.805   6.360  15.382 -0.2710 -0.5739 -1.0299
18782TIP3    H277838   0.939   6.338  15.449 -0.8523  0.2622  0.4560
18783TIP3   OH277839   5.331   3.159  14.760  0.1926  0.0625  0.3285
18783TIP3    H177840   5.238   3.164  14.781  0.0356 -0.8961 -0.1038
18783TIP3    H277841   5.351   3.243  14.717 -0.8970 -0.4274 -1.2172
18784TIP3   OH277842   1.665   0.461   4.893  0.2393  0.1196  0.2883
18784TIP3    H177843   1.624   0.541   4.861 -0.1034  0.0495  0.5435
18784TIP3    H277844   1.599   0.393   4.879  0.4900 -0.0991  0.1644
18785TIP3   OH277845   3.384   6.139   5.123 -0.3188  1.3515 -0.2722
18785TIP3    H177846   3.393   6.108   5.034  1.3870  2.5706 -0.5924
18785TIP3    H277847   3.351   6.064   5.172  1.8039 -0.3937 -1.3235
18786TIP3   OH277848   5.441   5.527  13.143 -0.5471  0.3447  0.5083
18786TIP3    H177849   5.444   5.484  13.057 -0.0843 -0.9511  1.1466
18786TIP3    H277850   5.531   5.522  13.176 -0.5727  1.4523  0.7944
18787TIP3   OH277851   5.906   6.363  14.387  0.6456  0.4077  0.1432
18787TIP3    H177852   5.991   6.329  14.415 -0.3889 -2.2154  0.3357
18787TIP3    H277853   5.921   6.389  14.296  1.8144  0.7018  0.3922
18788TIP3   OH277854   6.191   1.194  15.243  0.5342 -0.5678  0.4343
18788TIP3    H177855   6.222   1.189  15.153 -0.5259 -0.7247  0.0631
18788TIP3    H277856   6.248   1.260  15.284  0.3680  0.2792 -0.6280
18789TIP3   OH277857   1.989   1.294  14.463  0.1726 -0.1256 -0.0455
18789TIP3    H177858   1.911   1.251  14.500  1.1752 -3.3797 -1.3525
18789TIP3    H277859   2.025   1.344  14.536 -2.8211  1.1781  0.7302
18790TIP3   OH277860   6.059   0.901  16.997 -0.3582 -0.0706 -0.7721
18790TIP3    H177861   5.999   0.899  16.922  0.8641 -1.1209 -1.7556
18790TIP3    H277862   6.042   0.818  17.043 -2.6581  1.4808  1.4571
18791TIP3   OH277863   0.637   0.581   1.912 -0.3628  0.4478  0.1143
18791TIP3    H177864   0.644   0.566   2.007 -0.5945 -0.3564  0.0152
18791TIP3    H277865   0.543   0.579   1.895 -0.3097  0.3437 -0.1680
18792TIP3   OH277866   2.871   5.882   6.119  0.0887  0.0716  0.6301
18792TIP3    H177867   2.928   5.954   6.093 -0.8180  0.3502 -0.7237
18792TIP3    H277868   2.786   5.923   6.136 -0.1943 -0.5482  0.7463
18793TIP3   OH277869   5.081   6.686   2.125 -0.2710  0.2541  0.6142
18793TIP3    H177870   5.130   6.687   2.043 -2.2415 -1.2851 -0.6924
18793TIP3    H277871   5.125   6.621   2.179  1.0162  1.2492  0.7964
18794TIP3   OH277872   3.688   5.570   1.809 -0.2332 -0.1073 -0.2537
18794TIP3    H177873   3.664   5.650   1.856 -1.6327  0.6281 -2.0386
18794TIP3    H277874   3.777   5.586   1.779 -0.2758  0.5381 -0.0685
18795TIP3   OH277875   6.665   5.276  11.801 -0.6447 -0.6215 -0.0068
18795TIP3    H177876   6.602   5.327  11.749 -1.6598 -1.9685 -0.1626
18795TIP3    H277877   6.721   5.235  11.736 -1.0104 -1.1676  0.0143
18796TIP3   OH277878   2.397   1.756  13.582 -0.2342 -0.4643 -0.0255
18796TIP3    H177879   2.380   1.728  13.672  1.4175 -0.2911  0.3763
18796TIP3    H277880   2.472   1.816  13.589 -1.3566  1.1695 -1.2892
18797TIP3   OH277881   2.250   0.948  10.633  0.4468 -0.2979  0.6275
18797TIP3    H177882   2.172   0.912  10.592  0.1980  0.0407  0.7886
18797TIP3    H277883   2.314   0.878  10.630  0.4356 -0.2816 -0.3266
18798TIP3   OH277884   4.162   3.569   2.471 -0.0899  0.0164 -0.1729
18798TIP3    H177885   4.181   3.658   2.501  1.1554 -0.7250  1.3974
18798TIP3    H277886   4.157   3.577   2.376 -3.9962  2.4465 -0.0140
18799TIP3   OH277887   0.824   3.004   3.427  0.1021 -0.0274  0.1236
18799TIP3    H177888   0.809   2.919   3.468  0.1947 -0.1618 -0.1201
18799TIP3    H277889   0.741   3.051   3.439  1.0840  1.1725  3.3207
18800TIP3   OH277890   2.059   4.958  13.139 -0.1167  0.6738  0.3430
18800TIP3    H177891   2.007   5.027  13.180 -2.0784 -0.8912  0.6303
18800TIP3    H277892   2.033   4.960  13.047 -1.3476 -0.6347  0.6382
18801TIP3   OH277893   1.535   3.564  13.438  0.2101 -0.0905  0.1561
18801TIP3    H177894   1.524   3.555  13.532  0.6099 -4.0238 -0.0080
18801TIP3    H277895   1.623   3.529  13.421 -0.2581 -0.4419 -1.7592
18802TIP3   OH277896   1.578   4.319  15.105  0.0463  0.0396 -0.2105
18802TIP3    H177897   1.562   4.413  15.111 -0.1711  0.0410 -0.7326
18802TIP3    H277898   1.491   4.279  15.110 -0.0585 -0.0185 -1.8078
18803TIP3   OH277899   5.023   3.333   5.765 -0.0585 -0.2711  0.2111
18803TIP3    H177900   5.115   3.309   5.780 -0.0231 -0.3665 -0.1520
18803TIP3    H277901   4.973   3.256   5.794 -0.0665  0.0135  0.9935
18804TIP3   OH277902   0.526   5.511   3.347 -0.0703 -0.3094  0.5039
18804TIP3    H177903   0.600   5.504   3.407 -0.0616 -0.0670  0.5211
18804TIP3    H277904   0.456   5.462   3.390  0.1295 -0.6885  0.4059
18805TIP3   OH277905   6.082   3.122  10.910  0.4946  0.1821 -0.4811
18805TIP3    H177906   6.036   3.130  10.826 -1.6281  0.5718  0.6606
18805TIP3    H277907   6.018   3.084  10.970  2.0220 -0.2777  0.9530
18806TIP3   OH277908   2.967   1.898  11.229  0.1077  0.1458  0.0696
18806TIP3    H177909   3.020   1.965  11.186  1.1454 -0.2827  0.6682
18806TIP3    H277910   2.876   1.923  11.207  0.5578 -0.0222 -2.2898
18807TIP3   OH277911   3.543   1.975   5.075 -0.6797 -0.1021  0.1580
18807TIP3    H177912   3.535   1.880   5.068  0.5364 -0.4422  2.4535
18807TIP3    H277913   3.586   1.989   5.160 -1.5520  2.5378  0.2348
18808TIP3   OH277914   4.587   6.439   2.194 -0.2950 -0.1263 -0.5053
18808TIP3    H177915   4.572   6.381   2.119  0.6664  0.1210 -0.8948
18808TIP3    H277916   4.505   6.434   2.244 -0.8296 -0.5463 -1.3926
18809TIP3   OH277917   3.126   2.077  12.710  0.3682 -0.0481  0.1165
18809TIP3    H177918   3.127   2.035  12.796 -0.4950 -2.0821 -0.7799
18809TIP3    H277919   3.042   2.122  12.707  0.0076 -0.7167  0.0243
18810TIP3   OH277920   1.173   5.060  11.812  0.4403 -0.1098  0.0497
18810TIP3    H177921   1.127   5.001  11.872  0.3633 -0.8272 -0.6988
18810TIP3    H277922   1.142   5.034  11.725  1.8211 -0.2287 -0.4289
18811TIP3   OH277923   5.634   3.083   2.866 -0.7756 -0.5704  0.2129
18811TIP3    H177924   5.728   3.091   2.851 -0.5480 -2.3712  0.3745
18811TIP3    H277925   5.596   3.163   2.830  0.9215  0.8108  1.3651
18812TIP3   OH277926   3.696   1.714  13.137 -0.0277  0.4435  0.2703
18812TIP3    H177927   3.645   1.635  13.117 -0.1665  0.2554  1.3044
18812TIP3    H277928   3.644   1.785  13.101 -0.7333  0.1989  0.7856
18813TIP3   OH277929   5.310   6.778  15.308 -0.1051 -0.1723 -0.5514
18813TIP3    H177930   5.292   6.842  15.377  0.8459 -1.8522  1.3626
18813TIP3    H277931   5.381   6.817  15.257 -0.9227  1.1631 -0.7453
18814TIP3   OH277932   4.515   3.661  17.117 -0.1043 -0.8453  0.2413
18814TIP3    H177933   4.486   3.588  17.172 -0.1590 -0.2801  0.9827
18814TIP3    H277934   4.435   3.711  17.100 -0.6909 -2.5050 -2.7807
18815TIP3   OH277935   4.826   3.995  10.938 -0.1519 -0.1884  0.2131
18815TIP3    H177936   4.805   4.009  11.030  0.2735  2.0202  0.0374
18815TIP3    H277937   4.754   4.038  10.891  0.0357 -0.6145 -0.4654
18816TIP3   OH277938   3.627   6.286   3.964 -0.6947 -0.0753  0.6407
18816TIP3    H177939   3.605   6.300   4.056 -1.3785 -1.3788  0.6859
18816TIP3    H277940   3.715   6.322   3.955 -0.6642  0.1657  1.7710
18817TIP3   OH277941   3.351   5.752   5.827  0.7135 -0.3163  0.0818
18817TIP3    H177942   3.445   5.748   5.843  0.6022 -1.9373  0.4828
18817TIP3    H277943   3.320   5.663   5.842 -0.8694  0.1534 -0.1998
18818TIP3   OH277944   1.503   0.503   4.113 -0.0421  0.4880  0.7482
18818TIP3    H177945   1.533   0.412   4.112 -1.6714 -0.0963 -0.3043
18818TIP3    H277946   1.567   0.549   4.168  1.4807 -1.0427  0.3494
18819TIP3   OH277947   2.675   0.249   4.789  0.1320 -0.0562  0.0787
18819TIP3    H177948   2.595   0.275   4.836  1.2087  0.9504  1.4403
18819TIP3    H277949   2.672   0.153   4.789 -0.9321 -0.0398  0.3406
18820TIP3   OH277950   2.514   5.872  13.573  0.1694 -0.6519 -0.2142
18820TIP3    H177951   2.486   5.784  13.598  0.5206 -0.5102  0.7661
18820TIP3    H277952   2.453   5.930  13.618  1.4875 -0.3600  1.3029
18821TIP3   OH277953   4.588   1.972   2.448  0.4636 -0.2173  0.1070
18821TIP3    H177954   4.507   2.022   2.441  0.0776 -0.6862  1.0142
18821TIP3    H277955   4.570   1.890   2.402  1.1774  0.5388 -1.5901
18822TIP3   OH277956   4.766   6.120   2.512  0.2113 -0.3926 -0.4417
18822TIP3    H177957   4.741   6.101   2.603 -1.2878  0.1930 -0.7095
18822TIP3    H277958   4.851   6.077   2.502  0.7591  0.1118  1.4463
18823TIP3   OH277959   6.720   1.811  16.463  0.3736 -0.4276  0.7656
18823TIP3    H177960   6.718   1.899  16.425 -0.2736 -0.5213  0.5803
18823TIP3    H277961   6.752   1.825  16.552  0.2784 -0.0057  0.7380
18824TIP3   OH277962   3.711   3.335   2.391  0.3427  0.0871 -0.5617
18824TIP3    H177963   3.690   3.242   2.391  3.2802 -0.6780 -1.1674
18824TIP3    H277964   3.718   3.359   2.299 -0.0151  0.8310 -0.4062
18825TIP3   OH277965   6.614   3.556  16.859  0.2105  0.2113 -0.1757
18825TIP3    H177966   6.579   3.480  16.812  0.7140 -0.6059  0.7506
18825TIP3    H277967   6.541   3.619  16.860 -0.2775 -0.3315 -0.7713
18826TIP3   OH277968   6.522   5.287  12.477 -0.2176 -0.6160  0.4631
18826TIP3    H177969   6.514   5.307  12.570 -2.7061 -0.4566  0.2754
18826TIP3    H277970   6.546   5.371  12.437 -0.2006 -0.4333  0.8537
18827TIP3   OH277971   0.533   0.155   2.162  0.2396  0.3592 -0.6245
18827TIP3    H177972   0.569   0.094   2.227  0.5621  2.1450  0.9419
18827TIP3    H277973   0.511   0.099   2.087  0.1704 -1.7325  0.8624
18828TIP3   OH277974   0.018   0.654   3.605 -0.5584  0.4375  0.4865
18828TIP3    H177975   0.029   0.679   3.513 -0.6334  0.2431  0.4223
18828TIP3    H277976  -0.050   0.711   3.638 -2.1335 -0.9727 -0.1954
18829TIP3   OH277977   3.596   6.802   4.939  0.4730 -0.0142 -0.2460
18829TIP3    H177978   3.674   6.817   4.992 -0.0686 -1.4499  1.0356
18829TIP3    H277979   3.628   6.802   4.848  1.5786  1.5223  0.1142
18830TIP3   OH277980   0.900   2.085   0.943 -0.0597 -0.0855  0.1940
18830TIP3    H177981   0.844   2.163   0.943 -0.4836 -0.3822  0.4281
18830TIP3    H277982   0.984   2.115   0.975 -0.1000  0.3604 -0.1118
18831TIP3   OH277983   2.499   0.739  15.294  0.0887  0.4488  0.3052
18831TIP3    H177984   2.425   0.686  15.264 -0.1776  1.3345 -0.6507
18831TIP3    H277985   2.576   0.697  15.254 -0.1951  1.2062 -1.0994
18832TIP3   OH277986   4.568   5.221   3.120  0.4275 -0.0448 -0.0302
18832TIP3    H177987   4.488   5.262   3.088  1.0627  1.0178 -0.3054
18832TIP3    H277988   4.621   5.294   3.152  0.5080 -0.9028  1.9291
18833TIP3   OH277989   0.234   6.180   4.627  0.6855 -0.1131 -0.0494
18833TIP3    H177990   0.218   6.274   4.635 -1.6145 -0.4170 -0.1571
18833TIP3    H277991   0.158   6.148   4.578  0.9759 -2.1363  0.7466
18834TIP3   OH277992   4.671   3.011  14.988 -0.2514 -0.2148 -0.0409
18834TIP3    H177993   4.596   3.038  14.934 -0.3864  1.9683  1.1083
18834TIP3    H277994   4.632   2.960  15.059 -0.3616 -1.0614 -0.7061
18835TIP3   OH277995   5.457   0.189   0.217 -0.6926  0.5086 -0.0323
18835TIP3    H177996   5.385   0.241   0.181 -0.2828  2.0319  1.2634
18835TIP3    H277997   5.452   0.203   0.311  0.8826  0.0803  0.1404
18836TIP3   OH277998   3.218   1.548   5.837  0.5629 -0.3383 -0.1775
18836TIP3    H177999   3.199   1.530   5.930 -0.2649 -0.3409 -0.3351
18836TIP3    H278000   3.304   1.510   5.823  0.9977  0.2438  0.7571
18837TIP3   OH278001   6.809   4.774   4.991  0.0181  0.3861 -0.4521
18837TIP3    H178002   6.838   4.748   4.904 -0.5701  1.4822 -1.0023
18837TIP3    H278003   6.758   4.700   5.024  0.9812 -0.3914 -0.6560
18838TIP3   OH278004   5.779   3.325  11.376 -0.3033  0.1299 -0.8157
18838TIP3    H178005   5.808   3.245  11.418  0.4035 -0.7633 -2.8836
18838TIP3    H278006   5.837   3.393  11.410  1.2915 -0.8394 -1.4795
18839TIP3   OH278007   2.904   6.082   4.768  0.4312 -0.0903  0.0100
18839TIP3    H178008   2.998   6.082   4.752  0.4480 -0.6474  0.0756
18839TIP3    H278009   2.866   6.042   4.689  0.1224  1.4641 -0.6584
18840TIP3   OH278010   4.039   6.650   1.864 -0.4287  0.0398  0.1515
18840TIP3    H178011   3.959   6.680   1.821  1.1805  2.6049 -1.2852
18840TIP3    H278012   4.106   6.713   1.838  2.2476 -2.3249  0.8119
18841TIP3   OH278013   2.821   5.251   1.621  0.3445  0.0808 -0.4497
18841TIP3    H178014   2.834   5.336   1.578 -1.6892  0.4484 -0.4311
18841TIP3    H278015   2.856   5.188   1.559 -0.9304  0.7397 -1.9192
18842TIP3   OH278016   2.606   5.505  12.780 -0.2982 -0.1992 -0.1997
18842TIP3    H178017   2.683   5.452  12.757 -0.5086 -0.3951 -0.4584
18842TIP3    H278018   2.557   5.450  12.841 -1.1075 -0.7857 -1.3573
18843TIP3   OH278019   4.067   2.972   1.153  0.5674  0.1840  0.0569
18843TIP3    H178020   4.146   2.977   1.099  0.7098  2.6047  0.3914
18843TIP3    H278021   4.098   2.988   1.242 -0.2972  1.3267  0.1709
18844TIP3   OH278022   4.445   3.804   1.371 -0.3030  0.0319 -0.1567
18844TIP3    H178023   4.381   3.841   1.311 -1.2350  0.2580  0.9267
18844TIP3    H278024   4.481   3.880   1.418 -0.3689 -0.2163  0.3052
18845TIP3   OH278025   1.793   6.174  15.266  0.0607  0.4678 -0.3832
18845TIP3    H178026   1.844   6.158  15.346  1.1583  1.8643 -0.7634
18845TIP3    H278027   1.855   6.161  15.195 -0.6781  0.1330 -0.9787
18846TIP3   OH278028   0.836   6.423   4.118  0.1724  0.1292  0.5280
18846TIP3    H178029   0.856   6.401   4.027  1.5534 -1.1148  1.0922
18846TIP3    H278030   0.895   6.495   4.140  0.8100 -0.4720  0.8232
18847TIP3   OH278031   2.410   4.136  15.842  0.1545 -0.5071  0.2928
18847TIP3    H178032   2.338   4.100  15.894  0.0578 -0.4254  0.2134
18847TIP3    H278033   2.476   4.161  15.907 -0.1110 -0.0838  0.3955
18848TIP3   OH278034   4.206   4.026   0.713  0.3905 -0.3995 -0.0808
18848TIP3    H178035   4.142   4.025   0.642  1.6193  0.2798 -1.2648
18848TIP3    H278036   4.190   3.945   0.761 -2.5661  0.6274  0.8729
18849TIP3   OH278037   2.125   4.420  16.543 -0.0640 -0.8483  0.3589
18849TIP3    H178038   2.207   4.461  16.514 -0.5968  0.0639  0.0929
18849TIP3    H278039   2.083   4.487  16.597 -0.9121 -1.0782  0.0004
18850TIP3   OH278040   1.438   3.745  15.681 -0.9192  0.1189 -0.1604
18850TIP3    H178041   1.401   3.820  15.729 -4.3081 -1.2416 -0.3197
18850TIP3    H278042   1.461   3.780  15.596 -0.2499  1.4264  0.5292
18851TIP3   OH278043   2.870   4.439  13.200 -0.4596  0.5673 -0.1623
18851TIP3    H178044   2.871   4.372  13.269 -0.1040  2.4733  1.7837
18851TIP3    H278045   2.922   4.401  13.130 -1.1106 -1.6006  0.4392
18852TIP3   OH278046   1.816   5.163  15.515 -0.4081 -0.0778 -0.3946
18852TIP3    H178047   1.727   5.160  15.482 -0.1134 -0.7830 -1.1586
18852TIP3    H278048   1.808   5.201  15.602 -1.5252 -0.6720 -0.2194
18853TIP3   OH278049   2.621   5.207  15.090 -0.1879  0.2855  0.4433
18853TIP3    H178050   2.550   5.269  15.076 -1.8768 -1.7286 -0.3765
18853TIP3    H278051   2.580   5.132  15.133  1.5533 -0.7094  0.4730
18854TIP3   OH278052   0.621   5.926   6.214  0.8602  0.2476 -0.1569
18854TIP3    H178053   0.682   5.858   6.242  0.5986 -0.6510 -1.7139
18854TIP3    H278054   0.592   5.967   6.296  1.3656 -1.2038  0.7771
18855TIP3   OH278055   0.263   5.141   5.008  0.4391  0.0278 -0.7510
18855TIP3    H178056   0.293   5.208   4.947 -2.3310  3.4644  1.2572
18855TIP3    H278057   0.170   5.129   4.986  0.0773 -0.7131  0.9967
18856TIP3   OH278058   3.225   0.957   4.432 -0.7000  0.2210  0.9186
18856TIP3    H178059   3.271   0.984   4.511 -2.2475  0.9204  1.6189
18856TIP3    H278060   3.281   0.889   4.394  1.2592  1.5282  1.3069
18857TIP3   OH278061   3.639   2.185  13.768  0.2660  0.0443 -0.2508
18857TIP3    H178062   3.686   2.114  13.725 -0.1767 -0.4421  0.0454
18857TIP3    H278063   3.629   2.252  13.701  0.3049 -0.3591 -0.6634
18858TIP3   OH278064   0.340   1.746  17.115 -0.6136 -0.1799  0.1433
18858TIP3    H178065   0.311   1.834  17.094 -1.5062 -0.5830 -0.3667
18858TIP3    H278066   0.396   1.721  17.041 -2.4743 -0.9995 -1.0634
18859TIP3   OH278067   1.590   5.710   0.460  0.3881 -0.2660  0.0093
18859TIP3    H178068   1.639   5.789   0.483  0.1405 -0.0417 -0.2243
18859TIP3    H278069   1.575   5.717   0.366 -0.4506 -0.1193  0.1405
18860TIP3   OH278070   1.982   2.161   4.301  0.1111  0.6921  0.0249
18860TIP3    H178071   1.948   2.201   4.221  0.1505  1.2450  0.2805
18860TIP3    H278072   1.957   2.068   4.294  0.7420  0.5840 -0.9649
18861TIP3   OH278073   2.455   3.278   4.554 -0.5873 -0.1170 -0.0943
18861TIP3    H178074   2.548   3.284   4.533 -0.4149  0.6009  0.8156
18861TIP3    H278075   2.448   3.313   4.643 -1.7661  0.0958 -0.2538
18862TIP3   OH278076   4.170   2.113  14.672 -0.3373 -0.5404  0.0744
18862TIP3    H178077   4.212   2.191  14.635 -1.0893  0.0775  0.4956
18862TIP3    H278078   4.233   2.043  14.658  0.0278 -0.0130 -1.0174
18863TIP3   OH278079   1.541   0.906  14.304  0.6139 -0.3455  0.1024
18863TIP3    H178080   1.466   0.965  14.310 -0.8256 -2.0142 -0.4548
18863TIP3    H278081   1.573   0.917  14.214 -0.8203 -1.6488 -0.6314
18864TIP3   OH278082   2.461   4.064   3.462  0.3854 -0.0151 -0.3951
18864TIP3    H178083   2.397   4.008   3.418  0.5477  0.4476 -1.2442
18864TIP3    H278084   2.421   4.085   3.546  0.5459 -1.8243  0.1909
18865TIP3   OH278085   5.239   6.589  11.198  0.6269  0.2038  0.2619
18865TIP3    H178086   5.211   6.514  11.251  1.2661 -0.2709 -0.0477
18865TIP3    H278087   5.260   6.657  11.261 -2.4108  1.0447  0.4713
18866TIP3   OH278088   0.763   5.917   2.103 -0.3348 -0.5356 -0.4553
18866TIP3    H178089   0.832   5.897   2.040  0.0116 -0.5068 -0.0891
18866TIP3    H278090   0.709   5.984   2.059 -0.4660 -0.9728 -0.9659
18867TIP3   OH278091   4.912   4.747   3.040  0.0445 -0.1274 -0.5994
18867TIP3    H178092   4.829   4.753   3.089  0.4700 -1.0711  0.2708
18867TIP3    H278093   4.937   4.837   3.024 -0.2689  0.2044  0.6788
18868TIP3   OH278094   3.711   6.134   1.966 -0.4515 -0.0093 -0.4501
18868TIP3    H178095   3.640   6.127   1.903 -0.9249 -0.3578  0.1076
18868TIP3    H278096   3.669   6.120   2.051  0.1104  0.7919 -0.0236
18869TIP3   OH278097   3.416   6.748  15.439 -0.2292 -0.1377 -0.8210
18869TIP3    H178098   3.509   6.767  15.432  0.4450 -2.4666  0.6539
18869TIP3    H278099   3.373   6.818  15.389  2.3548  0.0723 -2.9508
18870TIP3   OH278100   5.382   5.331  13.329  0.2505  0.3993 -0.2055
18870TIP3    H178101   5.366   5.388  13.253 -1.1300  0.6900  0.2648
18870TIP3    H278102   5.294   5.310  13.362  0.8168  0.4988  1.4722
18871TIP3   OH278103   5.762   5.316  12.370  0.1741  0.0474  0.2471
18871TIP3    H178104   5.769   5.248  12.437 -2.4223 -0.9441 -0.3405
18871TIP3    H278105   5.756   5.268  12.288 -1.2200  0.9497 -0.2257
18872TIP3   OH278106   0.410   6.116  13.257 -0.3268  0.2861  0.8885
18872TIP3    H178107   0.349   6.163  13.201  1.0595 -0.7657 -1.6826
18872TIP3    H278108   0.482   6.177  13.272  0.2996 -0.1204 -0.3422
18873TIP3   OH278109   1.810   3.236  11.742 -0.2025 -0.2069  0.4083
18873TIP3    H178110   1.901   3.227  11.772  0.1406  0.6978 -0.3165
18873TIP3    H278111   1.762   3.172  11.795  0.7371 -0.2296  1.2888
18874TIP3   OH278112   5.597   4.779  15.539 -0.1361  0.2124  0.1607
18874TIP3    H178113   5.559   4.849  15.593 -1.5638 -0.7026  0.3999
18874TIP3    H278114   5.558   4.792  15.453  1.3340  1.0350 -0.4158
18875TIP3   OH278115   1.391   2.894   4.147  0.0842  0.5803 -0.6462
18875TIP3    H178116   1.457   2.851   4.092  1.8750  1.2845  0.8435
18875TIP3    H278117   1.383   2.982   4.111 -0.0572  0.4840 -0.8490
18876TIP3   OH278118   5.338   3.033   5.492 -0.2106 -1.0475 -0.3910
18876TIP3    H178119   5.369   3.121   5.514 -0.9932 -0.7012 -0.6346
18876TIP3    H278120   5.403   2.999   5.431 -0.4841 -0.1943 -1.1887
18877TIP3   OH278121   2.538   5.497  13.421 -0.4604 -0.1483 -0.1887
18877TIP3    H178122   2.476   5.502  13.348 -1.4270 -0.2535  0.6071
18877TIP3    H278123   2.605   5.435  13.390 -1.3442 -0.9137 -0.6425
18878TIP3   OH278124   2.938   0.494  16.825  0.2316  0.4124 -0.2202
18878TIP3    H178125   2.913   0.552  16.896  0.5022  1.6940 -1.1496
18878TIP3    H278126   2.908   0.537  16.746  1.0297 -0.3919 -0.9863
18879TIP3   OH278127   6.735   2.938   4.565 -0.0300  0.0411 -0.0325
18879TIP3    H178128   6.655   2.916   4.614 -0.3557 -0.6783 -0.8641
18879TIP3    H278129   6.729   2.886   4.485  1.4390 -0.2564  0.0313
18880TIP3   OH278130   3.242   5.684   3.466 -0.3444  0.3249 -0.1725
18880TIP3    H178131   3.326   5.660   3.425 -0.0976 -0.4773  0.7457
18880TIP3    H278132   3.221   5.770   3.431  0.7753  0.4505 -0.5638
18881TIP3   OH278133   0.270   1.115  13.572 -0.2664 -0.2936 -0.1059
18881TIP3    H178134   0.321   1.048  13.617  2.7794 -0.3132 -3.2056
18881TIP3    H278135   0.267   1.085  13.481 -1.0011  2.5435 -1.0994
18882TIP3   OH278136   5.883   0.765   0.483  0.0399 -0.7179 -0.3482
18882TIP3    H178137   5.947   0.786   0.550  0.0640  1.6489 -0.9908
18882TIP3    H278138   5.798   0.774   0.526  0.0848 -0.6979 -0.2656
18883TIP3   OH278139   1.867   1.908   0.540  0.0582  1.0877 -0.1026
18883TIP3    H178140   1.776   1.888   0.562  0.2451 -0.7625 -0.8077
18883TIP3    H278141   1.863   1.939   0.450  0.2860 -1.0859 -0.9236
18884TIP3   OH278142   2.273   3.281  11.639  0.1690 -0.2884  0.7594
18884TIP3    H178143   2.301   3.372  11.627  0.5085 -0.5363 -0.4266
18884TIP3    H278144   2.331   3.248  11.708  1.3534 -0.1458 -0.1239
18885TIP3   OH278145   2.434   5.298   1.233  0.1920 -1.1096  0.2191
18885TIP3    H178146   2.365   5.243   1.272 -0.7224  0.2143  0.5276
18885TIP3    H278147   2.482   5.238   1.175  0.8066 -2.8463  2.3676
18886TIP3   OH278148   3.405   3.158   2.353 -0.2594  0.7870 -0.0258
18886TIP3    H178149   3.334   3.107   2.314  0.9154  0.4414 -1.8813
18886TIP3    H278150   3.376   3.249   2.346 -0.2783  0.7000 -1.3924
18887TIP3   OH278151   6.089   4.108  16.687  0.4580 -0.2786  0.6095
18887TIP3    H178152   6.049   4.091  16.602 -0.3251  2.0708  0.4429
18887TIP3    H278153   6.183   4.109  16.668  0.3366 -0.5645 -0.0657
18888TIP3   OH278154   0.404   2.128   3.884  0.4843  0.4310  0.4397
18888TIP3    H178155   0.393   2.033   3.876 -0.0794  0.4135  1.2911
18888TIP3    H278156   0.383   2.162   3.797  0.5473 -0.2108  0.1676
18889TIP3   OH278157   1.727   3.188   1.034 -0.2086 -0.3263 -0.6031
18889TIP3    H178158   1.655   3.127   1.052 -0.3923  0.3660  1.1766
18889TIP3    H278159   1.689   3.250   0.971 -0.9634 -0.3500 -0.1874
18890TIP3   OH278160   5.657   2.019  16.795  0.1630 -0.1025  0.1218
18890TIP3    H178161   5.598   2.082  16.837  0.0992 -0.0125 -0.1009
18890TIP3    H278162   5.728   2.072  16.760  0.6676 -0.2666  0.8680
18891TIP3   OH278163   3.302   3.049  13.311  0.0842 -0.0267  0.3289
18891TIP3    H178164   3.338   3.005  13.233 -0.3804  0.3191 -0.0865
18891TIP3    H278165   3.372   3.110  13.337  0.4934 -0.5838  0.5606
18892TIP3   OH278166   4.423   0.627  14.088 -0.6768  0.0232 -0.1346
18892TIP3    H178167   4.461   0.715  14.093 -0.1025 -0.0964 -1.6900
18892TIP3    H278168   4.363   0.631  14.013  1.1633 -1.4806 -1.8248
18893TIP3   OH278169   4.268   3.040   0.168  0.0518 -0.3745  0.1188
18893TIP3    H178170   4.203   2.975   0.141 -1.1820  1.0292 -0.4183
18893TIP3    H278171   4.305   3.005   0.249 -0.8177 -1.5646  0.0346
18894TIP3   OH278172   4.394   0.326  15.114 -0.5551  0.0062  0.3788
18894TIP3    H178173   4.388   0.234  15.087  2.7561 -0.4501  0.7510
18894TIP3    H278174   4.408   0.374  15.032 -0.1295 -0.1330  0.3651
18895TIP3   OH278175   3.533   6.623  12.109  0.2337  0.1492  0.4045
18895TIP3    H178176   3.589   6.549  12.087 -1.4192 -1.3602  1.0337
18895TIP3    H278177   3.479   6.637  12.031  0.8611  1.0157  0.1174
18896TIP3   OH278178   6.036   3.291   4.421 -0.6591 -0.0474 -0.0699
18896TIP3    H178179   5.959   3.239   4.395  0.1748 -1.1595 -0.4065
18896TIP3    H278180   6.000   3.372   4.456 -2.0364 -0.9971  0.7992
18897TIP3   OH278181   2.463   1.997   5.085 -0.0507  0.0575 -0.2702
18897TIP3    H178182   2.547   2.014   5.129  0.2333 -0.3394 -0.6565
18897TIP3    H278183   2.397   2.021   5.150  0.3642 -0.6298  0.4170
18898TIP3   OH278184   0.412   6.579  15.873  0.2882 -0.6541  0.0103
18898TIP3    H178185   0.506   6.563  15.885  0.4166 -0.1050 -0.2420
18898TIP3    H278186   0.370   6.503  15.913  0.8099 -0.4697  0.9440
18899TIP3   OH278187   4.279   2.834   1.406  0.4549 -0.0694  0.7039
18899TIP3    H178188   4.318   2.882   1.334  0.5169  0.8443  1.3334
18899TIP3    H278189   4.279   2.743   1.377  0.5288  0.2774 -0.4167
18900TIP3   OH278190   1.106   4.540  15.050 -0.3318 -0.2937 -0.4345
18900TIP3    H178191   1.138   4.603  14.986  1.6943 -0.3393  0.4321
18900TIP3    H278192   1.183   4.521  15.104 -1.4120 -1.9327  0.6100
18901TIP3   OH278193   3.847   4.040   0.224 -0.3777  0.1781 -0.0510
18901TIP3    H178194   3.840   4.135   0.228 -0.8726  0.1785 -0.7007
18901TIP3    H278195   3.762   4.011   0.191 -0.0786 -0.4613 -0.2840
18902TIP3   OH278196   2.713   6.257   3.102 -0.1250  0.0460  1.1110
18902TIP3    H178197   2.662   6.266   3.022 -0.6112  0.1483  1.4324
18902TIP3    H278198   2.796   6.218   3.073  0.2409  1.3191  0.3615
18903TIP3   OH278199   0.926   6.753   6.524 -0.6611 -0.2060  0.0168
18903TIP3    H178200   0.875   6.761   6.604 -0.3626 -0.9784  0.2919
18903TIP3    H278201   1.015   6.733   6.553 -0.8439 -1.9368 -0.5155
18904TIP3   OH278202   4.099   0.221  15.254 -0.7077  0.4165  0.1041
18904TIP3    H178203   4.129   0.130  15.245 -0.7416  0.3338  0.7912
18904TIP3    H278204   4.179   0.273  15.245 -0.2971  0.1906  2.0045
18905TIP3   OH278205   5.436   1.739  14.012  0.0468  0.1110 -0.3320
18905TIP3    H178206   5.406   1.658  14.053  1.4082 -0.1451  0.2337
18905TIP3    H278207   5.364   1.766  13.955 -1.0419 -0.6731  0.6207
18906TIP3   OH278208   2.525   6.746   0.681  0.3390  0.3220 -0.1993
18906TIP3    H178209   2.539   6.788   0.596  0.1183  0.2192 -0.2874
18906TIP3    H278210   2.473   6.809   0.731 -1.7322 -0.6316 -1.0217
18907TIP3   OH278211   5.202   6.804   0.462  0.5868  0.2019  0.0140
18907TIP3    H178212   5.176   6.766   0.378 -0.1269  2.7006 -0.9716
18907TIP3    H278213   5.296   6.786   0.468  0.6083 -0.1948 -1.2136
18908TIP3   OH278214   2.334   6.093   0.461 -0.3302  0.6210 -1.0379
18908TIP3    H178215   2.377   6.015   0.426 -1.5228 -0.5858  0.0633
18908TIP3    H278216   2.257   6.105   0.405 -1.4645 -0.4703  0.2238
18909TIP3   OH278217   4.831   0.459   0.026 -0.5840  0.4417  0.4349
18909TIP3    H178218   4.871   0.396  -0.034 -0.8955  0.2160  0.4602
18909TIP3    H278219   4.780   0.405   0.086  0.9370  0.5180  1.8804
18910TIP3   OH278220   4.154   2.690   2.662  0.3105  0.5885 -0.5882
18910TIP3    H178221   4.168   2.676   2.756 -0.2326  1.1214 -0.4247
18910TIP3    H278222   4.235   2.657   2.622  0.8020  0.8915  0.1124
18911TIP3   OH278223   0.831   4.501  16.032  0.2428  0.7542 -0.0346
18911TIP3    H178224   0.840   4.406  16.034 -0.7375  0.5794 -1.7954
18911TIP3    H278225   0.814   4.525  16.122 -2.7333 -1.1246  0.0287
18912TIP3   OH278226   5.146   2.597  12.467  0.4424  0.2470 -0.4865
18912TIP3    H178227   5.215   2.624  12.407 -0.5229 -1.0543 -2.2874
18912TIP3    H278228   5.157   2.502  12.475  0.1320  0.3053  0.8890
18913TIP3   OH278229   2.684   1.945  15.128 -0.1589  0.3263 -0.1954
18913TIP3    H178230   2.780   1.953  15.136 -0.2484  0.1109  1.4547
18913TIP3    H278231   2.652   2.035  15.132 -0.0806  0.3367  0.2059
18914TIP3   OH278232   2.979   4.754   5.237 -0.5067 -0.4131  0.1235
18914TIP3    H178233   2.920   4.681   5.256  0.7547 -1.7214 -0.7601
18914TIP3    H278234   2.987   4.801   5.320 -1.0029 -1.5311  0.8275
18915TIP3   OH278235   4.354   3.258  12.599 -0.0330  0.2935 -0.3814
18915TIP3    H178236   4.368   3.209  12.517 -0.1629 -0.6788  0.1620
18915TIP3    H278237   4.441   3.286  12.626  0.1065 -0.0935 -0.4240
18916TIP3   OH278238   6.417   3.845  14.841 -0.3842  0.6921  0.1472
18916TIP3    H178239   6.432   3.842  14.746 -1.1068 -0.6150  0.0497
18916TIP3    H278240   6.403   3.938  14.860  1.5713  1.2114 -0.7143
18917TIP3   OH278241   3.063   3.993   4.206 -0.4447 -0.0955  0.4365
18917TIP3    H178242   3.118   4.021   4.279 -1.4935  2.2318  0.4049
18917TIP3    H278243   2.990   4.055   4.205 -0.5100 -0.0660 -2.5117
18918TIP3   OH278244   4.266   6.636  16.466 -0.4343  0.7261  0.8542
18918TIP3    H178245   4.192   6.645  16.527 -0.6826  0.9122  0.5319
18918TIP3    H278246   4.238   6.567  16.406 -0.6321  1.2523  0.3326
18919TIP3   OH278247   2.062   4.747  13.353 -0.3438 -0.2750  0.2204
18919TIP3    H178248   2.110   4.822  13.390 -1.4404  0.6326 -0.1288
18919TIP3    H278249   2.080   4.752  13.259  1.2570 -1.7109  0.4145
18920TIP3   OH278250   0.988   6.178  11.886  0.0066 -0.2286  0.3242
18920TIP3    H178251   0.939   6.148  11.962  2.3208 -0.4916  1.8356
18920TIP3    H278252   0.988   6.274  11.894 -0.4482 -0.2197  0.1974
18921TIP3   OH278253   3.996   0.638   4.223  0.2433 -0.3842  0.4342
18921TIP3    H178254   3.926   0.680   4.172  0.1184  1.6843  2.1954
18921TIP3    H278255   4.071   0.697   4.215 -0.2206  0.8642  3.7380
18922TIP3   OH278256   6.026   1.845  10.723  0.5360  0.1296 -0.5562
18922TIP3    H178257   6.092   1.892  10.672  0.2451  1.7988  0.5568
18922TIP3    H278258   5.943   1.883  10.696  0.3721  1.0353  1.1123
18923TIP3   OH278259   6.420   4.067  10.504 -0.1440 -0.1648 -0.1076
18923TIP3    H178260   6.382   4.130  10.443 -1.1281 -0.8551 -0.2258
18923TIP3    H278261   6.401   4.103  10.591 -0.6741 -0.2822 -0.1759
18924TIP3   OH278262   3.152   4.756   5.764  0.3995 -0.0691  0.3366
18924TIP3    H178263   3.074   4.734   5.714 -0.5117  0.1534  1.5913
18924TIP3    H278264   3.186   4.672   5.795 -0.9565 -0.0534  2.0534
18925TIP3   OH278265   5.989   4.365   3.136  0.7260 -0.4361  0.2943
18925TIP3    H178266   5.958   4.291   3.188  0.1790  0.0211  0.6249
18925TIP3    H278267   5.912   4.396   3.090  0.1690  1.9407  2.6058
18926TIP3   OH278268   3.110   2.847   2.522 -0.3016  0.7162 -0.3778
18926TIP3    H178269   3.178   2.854   2.454 -1.0158 -1.7578 -1.4771
18926TIP3    H278270   3.147   2.787   2.587 -1.1713 -0.1886 -0.6956
18927TIP3   OH278271   1.059   1.025  12.921  0.1174  0.5203  0.3747
18927TIP3    H178272   0.965   1.041  12.935  0.3367  0.8397  1.5092
18927TIP3    H278273   1.096   1.020  13.008  0.9878 -0.7627 -0.0384
18928TIP3   OH278274   2.782   3.194   1.182  0.1276 -0.0644  0.2013
18928TIP3    H178275   2.706   3.185   1.239  1.2591  0.0462  1.7971
18928TIP3    H278276   2.805   3.287   1.187 -0.5615  0.2330 -1.5563
18929TIP3   OH278277   6.085   6.656  12.795  0.4033 -0.4850 -0.2556
18929TIP3    H178278   6.171   6.692  12.819  0.2192 -1.3504  1.9758
18929TIP3    H278279   6.101   6.562  12.787 -0.2783 -0.6104 -0.1474
18930TIP3   OH278280   0.252   3.400  14.172 -0.1272 -0.1731 -0.1426
18930TIP3    H178281   0.291   3.441  14.095 -0.2347  0.1214 -0.0431
18930TIP3    H278282   0.193   3.467  14.207 -0.6168 -0.5611 -0.2114
18931TIP3   OH278283   1.888   2.440   3.164 -0.2470 -0.2617  0.0464
18931TIP3    H178284   1.910   2.360   3.117 -0.1903 -0.6603  0.7407
18931TIP3    H278285   1.859   2.501   3.096  1.2301 -0.3320 -0.6806
18932TIP3   OH278286   6.039   2.143  11.492  0.3206  0.4430 -0.5681
18932TIP3    H178287   6.076   2.209  11.552 -0.0104  0.3843 -0.2916
18932TIP3    H278288   6.031   2.064  11.546  1.5038 -0.0808 -1.1280
18933TIP3   OH278289   3.636   0.472   1.613  0.4285 -0.2618  0.5516
18933TIP3    H178290   3.647   0.404   1.680  0.8326 -1.2259 -0.4488
18933TIP3    H278291   3.589   0.428   1.542  1.4365  0.2543 -0.4639
18934TIP3   OH278292   0.673   6.791  14.993  0.4221  0.1760 -0.5528
18934TIP3    H178293   0.597   6.824  15.040  0.8254 -0.4614  0.5847
18934TIP3    H278294   0.707   6.868  14.946 -0.9396  0.4508 -1.1543
18935TIP3   OH278295   2.299   6.188   0.940 -0.0247 -0.2919  0.0742
18935TIP3    H178296   2.331   6.198   0.851 -0.9292  0.6510 -0.1690
18935TIP3    H278297   2.378   6.184   0.994  0.5157  0.4485 -0.6435
18936TIP3   OH278298   2.222   5.713  16.481 -0.3380  0.1814 -0.2579
18936TIP3    H178299   2.292   5.704  16.545  0.0232  2.2810 -0.2734
18936TIP3    H278300   2.147   5.669  16.520  0.3644 -0.1176  0.7935
18937TIP3   OH278301   6.049   6.133  15.037 -0.2236  0.1317  0.3447
18937TIP3    H178302   6.014   6.189  14.968  2.1305  0.3090 -0.8069
18937TIP3    H278303   5.972   6.100  15.083 -1.8163  1.1524 -1.4638
18938TIP3   OH278304   4.894   3.163  17.001  0.3144 -0.3066 -0.3925
18938TIP3    H178305   4.839   3.175  17.078 -0.7886  0.1634 -1.2300
18938TIP3    H278306   4.902   3.068  16.991  0.1208 -0.3697  0.0523
18939TIP3   OH278307   0.033   0.703  14.513  0.2246 -0.4249 -0.4187
18939TIP3    H178308   0.074   0.697  14.427  0.2477  0.5647 -0.4822
18939TIP3    H278309  -0.022   0.625  14.519  2.0776 -1.7893 -0.3363
18940TIP3   OH278310   1.306   3.618   3.918  0.0335  0.4204  0.0591
18940TIP3    H178311   1.372   3.618   3.987  0.0985  2.9960  0.0998
18940TIP3    H278312   1.356   3.621   3.836 -0.0193  1.1834  0.0495
18941TIP3   OH278313   4.827   1.429  13.882  0.4761  0.6070 -0.0016
18941TIP3    H178314   4.823   1.442  13.977  0.9016  0.2131  0.0737
18941TIP3    H278315   4.893   1.491  13.852  0.3344  0.7382 -0.0416
18942TIP3   OH278316   6.042   3.254  16.052  0.5490 -0.2257  0.1091
18942TIP3    H178317   6.087   3.305  15.985 -0.3494  1.8724  1.0157
18942TIP3    H278318   5.973   3.208  16.005  1.3796 -0.6543 -0.7280
18943TIP3   OH278319   1.794   2.825  12.628 -0.3685 -0.2445 -0.2622
18943TIP3    H178320   1.806   2.786  12.715 -0.5914 -0.0785 -0.1534
18943TIP3    H278321   1.878   2.865  12.607 -0.4929  0.2604  0.1574
18944TIP3   OH278322   2.765   2.950  12.780 -0.0491  0.4121 -0.0234
18944TIP3    H178323   2.794   3.038  12.806 -0.6100  0.9081 -1.0136
18944TIP3    H278324   2.693   2.966  12.720 -0.8174 -0.7540  0.5457
18945TIP3   OH278325   6.239   5.176   4.398  0.5675  0.0995  0.3563
18945TIP3    H178326   6.270   5.203   4.485  0.8825 -0.6883  0.4908
18945TIP3    H278327   6.168   5.114   4.416 -1.0177  1.7088  0.0556
18946TIP3   OH278328   4.013   1.648  16.306 -0.3588 -0.2593  0.1074
18946TIP3    H178329   3.979   1.589  16.239 -0.4198 -2.7010  2.0975
18946TIP3    H278330   3.968   1.731  16.291 -0.2596 -0.6507 -2.8642
18947TIP3   OH278331   3.489   4.332   5.837  0.2810  0.0928 -0.0990
18947TIP3    H178332   3.508   4.387   5.761  0.4705  1.3769  0.8424
18947TIP3    H278333   3.395   4.314   5.831  0.2931  0.1989 -0.6269
18948TIP3   OH278334   1.947   4.776   2.441 -0.1158 -0.2597  0.0268
18948TIP3    H178335   1.896   4.753   2.518 -0.4666  2.9236  0.8460
18948TIP3    H278336   2.027   4.814   2.475 -0.2845  1.2340 -1.1414
18949TIP3   OH278337   2.832   6.531  12.714  0.7340 -0.2473 -0.0816
18949TIP3    H178338   2.866   6.586  12.644  2.0433 -0.8323  0.0650
18949TIP3    H278339   2.739   6.520  12.693  1.1734 -0.7324 -1.9333
18950TIP3   OH278340   1.070   5.895  16.047  0.3550  0.3963 -0.4999
18950TIP3    H178341   1.071   5.889  16.142 -0.9921 -0.0295 -0.4875
18950TIP3    H278342   1.155   5.934  16.024  0.4786  1.0075  0.8924
18951TIP3   OH278343   0.103   5.380  11.638  0.1202 -0.2519  0.2342
18951TIP3    H178344   0.104   5.403  11.730  1.2291 -0.8554  0.3913
18951TIP3    H278345   0.192   5.397  11.607  0.1059 -1.2456 -0.4085
18952TIP3   OH278346   6.312   1.671  14.137  0.1118 -0.1181  0.3205
18952TIP3    H178347   6.317   1.714  14.052 -1.0466 -0.2853  0.1518
18952TIP3    H278348   6.280   1.739  14.196  2.3527  0.4543  0.9972
18953TIP3   OH278349   3.761   6.052  15.722  0.3698 -0.0002 -0.7894
18953TIP3    H178350   3.751   5.957  15.731  2.4625 -0.2959 -1.0408
18953TIP3    H278351   3.708   6.088  15.793  0.1540 -1.3749 -0.2105
18954TIP3   OH278352   4.982   2.500  14.498  0.4435 -0.3644 -0.3103
18954TIP3    H178353   4.975   2.594  14.511  0.6323 -0.4095  0.1350
18954TIP3    H278354   5.022   2.490  14.412  0.1529 -0.0431 -0.4817
18955TIP3   OH278355   1.116   6.674  12.589  0.6970 -0.4054  0.2188
18955TIP3    H178356   1.130   6.587  12.628  0.0369 -0.7024 -0.1808
18955TIP3    H278357   1.065   6.721  12.654  0.5434 -0.5231  0.1847
18956TIP3   OH278358   0.274   1.342  13.310 -0.5098  0.4047  0.1651
18956TIP3    H178359   0.370   1.335  13.309 -0.5940 -1.0034 -1.1600
18956TIP3    H278360   0.246   1.300  13.229 -2.3081  0.0418  0.9325
18957TIP3   OH278361   6.170   0.359  12.376 -0.6077 -0.0222 -0.2082
18957TIP3    H178362   6.084   0.402  12.378 -0.7597 -0.1400 -2.4954
18957TIP3    H278363   6.232   0.431  12.365 -0.5808 -0.1008 -0.5725
18958TIP3   OH278364   1.623   2.506   5.985  0.6474  0.4338  0.5011
18958TIP3    H178365   1.616   2.421   6.029 -0.1225  1.3895  2.3004
18958TIP3    H278366   1.545   2.510   5.929  0.2330  0.3131  1.0662
18959TIP3   OH278367   6.136   4.177  16.066 -0.3342 -0.1049 -0.0502
18959TIP3    H178368   6.077   4.245  16.036 -0.4531  0.1829  0.8246
18959TIP3    H278369   6.224   4.211  16.048 -0.3832  0.4482  0.7170
18960TIP3   OH278370   6.529   0.118  10.450 -0.3125 -0.1522 -0.0970
18960TIP3    H178371   6.586   0.053  10.409  0.0838 -0.0176  0.2428
18960TIP3    H278372   6.562   0.127  10.539  0.7746  1.8226 -0.6402
18961TIP3   OH278373   0.901   2.218  16.192  0.0966 -0.2393  0.4634
18961TIP3    H178374   0.927   2.260  16.274  1.5458  0.6296 -0.3959
18961TIP3    H278375   0.884   2.292  16.133  0.9217 -0.8376 -0.5511
18962TIP3   OH278376   3.884   6.303   1.611  0.6393 -0.7469  0.0555
18962TIP3    H178377   3.824   6.377   1.605 -0.3615 -1.6266 -1.9832
18962TIP3    H278378   3.953   6.332   1.670 -0.3865  1.3106  0.3369
18963TIP3   OH278379   0.223   5.016   3.810  0.1277 -0.0970  0.6766
18963TIP3    H178380   0.313   5.049   3.819 -0.4346  1.9950 -0.7009
18963TIP3    H278381   0.187   5.018   3.898  0.6354  1.5510  0.8694
18964TIP3   OH278382   5.092   2.188  16.833  0.4615 -0.1023  0.4332
18964TIP3    H178383   5.135   2.189  16.747 -1.1983  1.0528 -0.4482
18964TIP3    H278384   5.054   2.275  16.842 -3.3219 -1.5232  0.2129
18965TIP3   OH278385   5.581   6.539   5.513 -0.2703 -0.1237  0.1679
18965TIP3    H178386   5.536   6.623   5.522 -1.3488 -0.4320 -1.7934
18965TIP3    H278387   5.574   6.518   5.420 -0.6975 -2.7565  0.7147
18966TIP3   OH278388   1.982   2.799  15.559  0.6498  0.5423  0.1888
18966TIP3    H178389   1.935   2.850  15.494 -0.1213  0.5630  0.7422
18966TIP3    H278390   1.932   2.812  15.640  1.2711  0.0795  0.6558
18967TIP3   OH278391   1.641   0.544   3.721  0.4796 -0.9488 -0.3319
18967TIP3    H178392   1.683   0.555   3.807  0.5012  0.7994 -0.5212
18967TIP3    H278393   1.548   0.557   3.739  0.6475  1.5106 -0.8018
18968TIP3   OH278394   3.816   4.375  15.273  0.2227 -0.1108  0.1716
18968TIP3    H178395   3.896   4.333  15.242  0.7488 -0.3326  1.7318
18968TIP3    H278396   3.774   4.309  15.328 -0.8304  0.1496 -0.3020
18969TIP3   OH278397   3.814   6.091  13.736 -0.2844 -0.2061  0.2593
18969TIP3    H178398   3.833   6.086  13.642 -2.2368  1.0910 -0.2757
18969TIP3    H278399   3.878   6.152  13.771  0.7945 -1.0988 -0.1129
18970TIP3   OH278400   3.068   1.513  14.015 -0.7825  0.2254 -0.3324
18970TIP3    H178401   3.067   1.591  14.069 -0.0236 -0.6773  1.0501
18970TIP3    H278402   2.996   1.525  13.953 -1.2841  1.5601  0.4754
18971TIP3   OH278403   2.355   6.440   1.339  0.0434 -0.3852 -0.0820
18971TIP3    H178404   2.302   6.516   1.315 -0.0740 -0.3356  0.3312
18971TIP3    H278405   2.431   6.444   1.280 -0.0518 -0.0512 -0.1816
18972TIP3   OH278406   3.747   2.039  13.279  0.0297 -0.0816 -0.3506
18972TIP3    H178407   3.717   2.058  13.190 -3.3082  1.2349  0.8932
18972TIP3    H278408   3.714   1.951  13.296 -1.4537  0.5580  0.2948
18973TIP3   OH278409   4.239   0.778  13.851  0.2560 -0.3404 -0.1216
18973TIP3    H178410   4.321   0.826  13.839  0.6743  0.7051  4.8079
18973TIP3    H278411   4.176   0.846  13.877 -1.4708 -1.5175 -1.0294
18974TIP3   OH278412   4.711   5.196  11.595 -0.4789 -0.3860 -0.0352
18974TIP3    H178413   4.717   5.108  11.558  1.0996 -0.4041  0.1760
18974TIP3    H278414   4.735   5.254  11.522 -0.8775 -0.1712  0.0014
18975TIP3   OH278415   6.685   3.715  12.977  0.3034 -0.0169  0.1570
18975TIP3    H178416   6.743   3.690  12.906 -0.3350  0.0489 -0.4039
18975TIP3    H278417   6.692   3.643  13.040  0.4910 -0.3320 -0.2153
18976TIP3   OH278418   3.965   0.811   5.947  0.3224 -0.2844  0.5698
18976TIP3    H178419   3.907   0.864   6.002  0.8539  0.4593  0.4289
18976TIP3    H278420   4.044   0.864   5.938  0.9979 -1.2575  0.6969
18977TIP3   OH278421   6.391   2.906  11.828  0.4973 -0.2063  0.1426
18977TIP3    H178422   6.360   2.912  11.738 -1.8656 -1.5451  0.7797
18977TIP3    H278423   6.422   2.815  11.836 -0.2351 -0.3920  0.9345
18978TIP3   OH278424   2.717   3.984  10.752 -0.3471  0.8612  0.1620
18978TIP3    H178425   2.642   3.983  10.692  1.2799 -0.0006 -2.0285
18978TIP3    H278426   2.678   3.976  10.839 -2.7514 -2.8514 -0.9924
18979TIP3   OH278427   5.372   3.978   0.606  0.7945 -0.0274 -0.1895
18979TIP3    H178428   5.416   4.044   0.659 -1.1345  1.1087  0.1180
18979TIP3    H278429   5.315   4.029   0.548 -1.4384 -1.3890  0.6639
18980TIP3   OH278430   6.217   0.824  11.455 -0.4210  0.2673  0.1659
18980TIP3    H178431   6.131   0.795  11.424  0.1399 -0.4155 -0.8108
18980TIP3    H278432   6.206   0.837  11.549 -1.1211 -1.6177  0.3764
18981TIP3   OH278433   6.563   4.125  15.428  0.7417  0.5044 -0.6677
18981TIP3    H178434   6.631   4.061  15.408 -0.3184 -0.4663 -1.2562
18981TIP3    H278435   6.588   4.203  15.378 -0.4854 -1.0352 -3.9726
18982TIP3   OH278436   4.807   6.258  11.763  0.2429  0.0579 -0.2989
18982TIP3    H178437   4.721   6.269  11.723  0.4674  1.5427 -0.3986
18982TIP3    H278438   4.866   6.312  11.710  1.2824 -1.0437 -0.3268
18983TIP3   OH278439   5.779   5.843  16.781  0.4431  0.2185 -1.0780
18983TIP3    H178440   5.756   5.936  16.781  0.4338  0.2249 -1.9320
18983TIP3    H278441   5.721   5.804  16.715  0.5925 -0.3526 -0.8730
18984TIP3   OH278442   1.971   2.342   3.419 -0.2134 -0.2242  0.2931
18984TIP3    H178443   2.044   2.402   3.434  1.1084 -1.6370 -0.1318
18984TIP3    H278444   1.944   2.359   3.329 -0.8866  0.7729  0.6715
18985TIP3   OH278445   1.979   4.853   2.038 -0.3182 -0.5260 -0.0822
18985TIP3    H178446   1.891   4.821   2.057 -0.4916 -0.0665 -0.1031
18985TIP3    H278447   1.977   4.945   2.064  0.5245 -0.8209  1.1106
18986TIP3   OH278448   1.685   0.645  10.435 -0.0205 -0.2118 -0.2677
18986TIP3    H178449   1.750   0.661  10.504  0.5247  1.3701 -1.0908
18986TIP3    H278450   1.693   0.552  10.416  2.7583  0.0954 -1.0226
18987TIP3   OH278451   5.845   4.499   4.489 -0.1776  0.3353  0.2532
18987TIP3    H178452   5.824   4.473   4.400 -0.3752 -0.9390  0.6585
18987TIP3    H278453   5.774   4.463   4.542  0.4079  0.2993  1.0328
18988TIP3   OH278454   2.893   4.932  12.952 -0.5135  0.7296  0.0483
18988TIP3    H178455   2.819   4.963  13.003 -0.3895  1.8048 -0.4027
18988TIP3    H278456   2.934   5.011  12.919 -0.8770  0.0791 -2.1254
18989TIP3   OH278457   4.300   5.105   3.828  0.4652 -0.1403  0.0051
18989TIP3    H178458   4.309   5.191   3.870  1.8673  0.6865 -1.8535
18989TIP3    H278459   4.365   5.050   3.871  1.0111  0.3379 -0.1981
18990TIP3   OH278460   0.365   6.519   2.491  0.7184 -0.2304 -0.1989
18990TIP3    H178461   0.309   6.475   2.427  0.4149 -0.4689  0.2264
18990TIP3    H278462   0.365   6.611   2.463 -0.5991 -0.0588  0.2808
18991TIP3   OH278463   6.042   2.481   0.822  0.0329 -0.0664 -0.0158
18991TIP3    H178464   6.086   2.445   0.899 -1.0729 -0.1013  0.6162
18991TIP3    H278465   5.950   2.482   0.845 -0.1252  1.8732 -0.5458
18992TIP3   OH278466   6.017   0.588   3.164  0.4661 -0.8224 -0.1339
18992TIP3    H178467   6.052   0.543   3.241 -0.0591 -0.2085  0.4683
18992TIP3    H278468   5.928   0.612   3.188 -0.2645 -1.9953 -1.5075
18993TIP3   OH278469   1.897   6.460   4.943 -0.0390 -0.4159  0.0218
18993TIP3    H178470   1.932   6.482   5.030 -1.0477  0.1013  0.3047
18993TIP3    H278471   1.843   6.383   4.958 -0.0411 -0.4545 -0.1879
18994TIP3   OH278472   2.464   1.759  10.567  0.8796 -0.6236 -0.1963
18994TIP3    H178473   2.388   1.770  10.510 -0.7571 -1.0063  1.8097
18994TIP3    H278474   2.493   1.849  10.586  0.0817 -0.4123  0.0702
18995TIP3   OH278475   5.110   4.391   1.465  0.0262  0.6461  1.2159
18995TIP3    H178476   5.166   4.468   1.474  1.1902 -0.1756  1.2707
18995TIP3    H278477   5.130   4.338   1.542  1.3909 -1.0222 -0.2013
18996TIP3   OH278478   1.387   4.242  10.974  0.2772  0.0275 -0.2658
18996TIP3    H178479   1.440   4.320  10.958 -0.4305  0.4292 -0.7016
18996TIP3    H278480   1.347   4.223  10.889 -0.4994 -0.0992  0.1208
18997TIP3   OH278481   5.480   6.080  10.804 -0.4599 -0.6475 -0.6237
18997TIP3    H178482   5.395   6.102  10.767  0.4942  0.0309 -2.5547
18997TIP3    H278483   5.488   5.986  10.794 -1.6407 -0.9684  1.1219
18998TIP3   OH278484   3.742   4.962   5.471  0.1486 -0.3852  0.0993
18998TIP3    H178485   3.650   4.989   5.474  0.4499  0.6009  1.7518
18998TIP3    H278486   3.785   5.030   5.419  0.0631 -0.4337 -0.0344
18999TIP3   OH278487   3.224   1.857   3.386  0.2101  0.0238  0.0960
18999TIP3    H178488   3.132   1.836   3.399 -0.1841 -0.6568 -3.0923
18999TIP3    H278489   3.270   1.773   3.394  0.3466  0.1008  0.1293
19000TIP3   OH278490   1.710   5.023   3.072  0.5524  0.0542 -0.3844
19000TIP3    H178491   1.781   5.005   3.134  0.6949 -2.4825 -1.1410
19000TIP3    H278492   1.754   5.033   2.987  0.0867 -0.7908 -0.7377
19001TIP3   OH278493   3.533   3.624   0.084  0.0666 -0.1924 -0.2990
19001TIP3    H178494   3.578   3.540   0.083  2.5763  1.0041  1.6461
19001TIP3    H278495   3.440   3.601   0.087  0.6628 -2.8861  0.3325
19002TIP3   OH278496   3.966   4.509  13.158  0.0500  0.6255 -0.6953
19002TIP3    H178497   3.916   4.591  13.153 -0.9104  0.1601  0.6495
19002TIP3    H278498   4.038   4.521  13.096  1.0118  3.2200  0.7644
19003TIP3   OH278499   2.833   1.781  15.691 -0.2988  0.2392 -0.0347
19003TIP3    H178500   2.812   1.688  15.696 -0.8949  0.3712  0.0502
19003TIP3    H278501   2.764   1.824  15.742  0.7024  0.6321  1.0533
19004TIP3   OH278502   1.853   3.863  11.625  0.4896  0.0772  0.2162
19004TIP3    H178503   1.890   3.945  11.658  1.0520 -0.8837  2.1317
19004TIP3    H278504   1.911   3.837  11.553  0.7817  0.9454  0.1329
19005TIP3   OH278505   5.686   6.080  13.823  0.1029 -0.0665  0.3328
19005TIP3    H178506   5.750   6.125  13.768 -1.9044  0.2680 -1.8890
19005TIP3    H278507   5.735   6.010  13.865  2.1301  0.8246 -0.4481
19006TIP3   OH278508   0.550   0.796   4.787 -0.0866 -0.4532 -0.4687
19006TIP3    H178509   0.603   0.717   4.803 -0.5889 -0.9402 -1.1760
19006TIP3    H278510   0.545   0.803   4.692 -0.6624  0.0207 -0.4100
19007TIP3   OH278511   6.803   0.555   2.968 -0.2581  0.0240 -0.1026
19007TIP3    H178512   6.782   0.566   3.061  1.2828  1.4609  0.1276
19007TIP3    H278513   6.862   0.480   2.966  1.3403  1.1981  0.4125
19008TIP3   OH278514   1.741   3.562   5.506 -0.3725 -0.0896  0.0136
19008TIP3    H178515   1.789   3.491   5.548  1.3220  1.3714  0.6972
19008TIP3    H278516   1.809   3.618   5.469 -1.6773  0.9239 -0.9344
19009TIP3   OH278517   0.316   2.782  10.982 -0.3113  0.1915  0.3164
19009TIP3    H178518   0.286   2.861  11.027 -0.4858 -0.5423  1.5290
19009TIP3    H278519   0.306   2.802  10.889 -0.4438  1.5561  0.5991
19010TIP3   OH278520   5.488   2.848   2.760 -0.1154 -0.4739 -0.0199
19010TIP3    H178521   5.541   2.902   2.818 -0.9166 -0.3159  0.5792
19010TIP3    H278522   5.486   2.896   2.677  0.7756 -0.5503 -0.0885
19011TIP3   OH278523   3.435   4.560  14.996 -0.0763  0.2253  0.1360
19011TIP3    H178524   3.377   4.547  15.070  0.9529 -2.5166  0.5749
19011TIP3    H278525   3.410   4.646  14.961 -4.7381 -0.9340 -0.0693
19012TIP3   OH278526   3.649   4.491   5.628 -0.1857  0.1914  0.4121
19012TIP3    H178527   3.678   4.552   5.560 -1.1827 -0.5918 -0.7790
19012TIP3    H278528   3.728   4.465   5.674  0.3081  2.0268  0.6504
19013TIP3   OH278529   0.171   2.407   5.521 -0.4268  0.7948  0.1416
19013TIP3    H178530   0.180   2.502   5.512 -0.4895  0.7967  0.0980
19013TIP3    H278531   0.174   2.392   5.615 -0.2269  0.8206  0.1397
19014TIP3   OH278532   3.576   6.313  11.713 -0.0797 -0.5416  0.2272
19014TIP3    H178533   3.532   6.230  11.695 -0.8826 -0.0124 -0.3627
19014TIP3    H278534   3.529   6.377  11.659  2.5221 -0.2000 -1.8558
19015TIP3   OH278535   4.929   2.765  14.544 -0.6547  0.4083  0.2398
19015TIP3    H178536   5.010   2.813  14.527 -0.2960 -0.4961 -0.7497
19015TIP3    H278537   4.890   2.809  14.620  0.3133  1.4056  0.1838
19016TIP3   OH278538   6.391   5.864   3.797  0.1153  0.2457 -0.1922
19016TIP3    H178539   6.363   5.801   3.864 -0.6382  0.9376  0.1625
19016TIP3    H278540   6.372   5.821   3.714  1.1842 -0.6836  0.0120
19017TIP3   OH278541   1.593   3.919  11.668 -0.1378 -0.0356  0.4297
19017TIP3    H178542   1.554   3.842  11.709  0.4563 -0.4784  0.1864
19017TIP3    H278543   1.673   3.886  11.628 -0.4918  0.4736 -0.7221
19018TIP3   OH278544   5.100   3.447   0.330 -0.0374  0.5514 -0.4645
19018TIP3    H178545   5.022   3.491   0.294 -2.1348 -1.7535  0.9697
19018TIP3    H278546   5.096   3.359   0.294  0.6922 -0.2597  1.3362
19019TIP3   OH278547   2.011   6.151   1.365  0.0075  0.1456  0.1513
19019TIP3    H178548   2.031   6.234   1.408  2.2293 -0.2537 -0.0078
19019TIP3    H278549   1.932   6.169   1.314  0.2744  2.0904  0.3485
19020TIP3   OH278550   6.292   0.076   1.896 -0.0364 -0.2611  0.0187
19020TIP3    H178551   6.359   0.138   1.868 -1.1807  1.0024 -0.0163
19020TIP3    H278552   6.329  -0.010   1.875  2.0709  0.3009  1.1120
19021TIP3   OH278553   1.538   6.119  16.274  0.7166 -0.0991  0.0912
19021TIP3    H178554   1.632   6.136  16.266  0.3547  2.0059 -0.3430
19021TIP3    H278555   1.510   6.175  16.347  0.1470 -2.4852  1.8361
19022TIP3   OH278556   2.728   2.597   4.068  0.3634  0.2403 -0.4491
19022TIP3    H178557   2.784   2.520   4.077  0.1846  0.0339 -1.0354
19022TIP3    H278558   2.639   2.561   4.071  0.2610  0.5800  0.6099
19023TIP3   OH278559   1.948   6.685   6.525  0.1960 -0.2775 -0.2988
19023TIP3    H178560   1.992   6.678   6.610 -0.4943 -0.8069  0.0209
19023TIP3    H278561   1.855   6.670   6.545  0.0104 -0.2447 -1.1271
19024TIP3   OH278562   3.217   1.650   3.062  0.1784  0.2884 -0.0734
19024TIP3    H178563   3.239   1.641   3.155 -1.0017 -0.6519  0.1285
19024TIP3    H278564   3.299   1.680   3.021  1.2667 -1.1750  0.9514
19025TIP3   OH278565   5.108   4.633  14.295  0.0275  0.4028  0.4381
19025TIP3    H178566   5.044   4.574  14.256  0.3866  0.4896 -0.3064
19025TIP3    H278567   5.090   4.631  14.389  1.1013 -2.1735  0.6540
19026TIP3   OH278568   3.540   0.636  14.515  0.1915  0.1220  0.1086
19026TIP3    H178569   3.595   0.712  14.498  0.5896  0.0585  1.0794
19026TIP3    H278570   3.482   0.631  14.439 -0.5480  2.0183  0.5038
19027TIP3   OH278571   1.724   4.085  12.587  0.0171 -0.6738  0.0159
19027TIP3    H178572   1.803   4.093  12.640  0.1449 -0.2800 -0.2291
19027TIP3    H278573   1.653   4.114  12.645  0.2910  0.8833 -0.3627
19028TIP3   OH278574   0.745   4.393  13.318 -0.3182 -0.0627  0.0622
19028TIP3    H178575   0.753   4.489  13.322  0.7309 -0.1792  1.9352
19028TIP3    H278576   0.686   4.371  13.391 -2.8166 -0.7054 -2.0178
19029TIP3   OH278577   2.400   2.700  15.274  0.0042  0.1181 -0.5146
19029TIP3    H178578   2.363   2.670  15.191 -1.1275 -1.2373  0.4207
19029TIP3    H278579   2.326   2.698  15.335  0.3496  2.9129  0.1333
19030TIP3   OH278580   4.508   3.847  11.639  0.2310  0.2509 -0.2220
19030TIP3    H178581   4.461   3.766  11.623 -0.4833  0.2902  1.4533
19030TIP3    H278582   4.561   3.829  11.717 -0.0152  1.3936  0.2317
19031TIP3   OH278583   3.101   5.115   0.069 -0.1348 -0.0114  0.3851
19031TIP3    H178584   3.045   5.188   0.093  1.0190  0.4472  1.8651
19031TIP3    H278585   3.086   5.102  -0.025 -3.4898 -0.6698  0.9047
19032TIP3   OH278586   1.840   3.166   1.867 -0.1577 -0.5325  0.1475
19032TIP3    H178587   1.867   3.176   1.776  0.4544  0.1596  0.3994
19032TIP3    H278588   1.746   3.187   1.866  0.2009  1.2126 -0.0455
19033TIP3   OH278589   1.670   4.567   3.252 -0.9100 -0.6402 -0.5659
19033TIP3    H178590   1.723   4.560   3.172  1.1443  3.1191  0.2301
19033TIP3    H278591   1.613   4.642   3.236 -1.9666 -1.1272  0.7762
19034TIP3   OH278592   5.087   2.256   5.372 -0.5805  0.4745  0.6386
19034TIP3    H178593   5.016   2.313   5.342  0.0476 -0.0705 -2.1586
19034TIP3    H278594   5.166   2.292   5.334 -0.1110 -1.9651 -0.9357
19035TIP3   OH278595   3.786   1.364  11.917  0.3927 -0.5577 -0.1900
19035TIP3    H178596   3.730   1.422  11.866  1.7336  0.0723 -0.9890
19035TIP3    H278597   3.778   1.278  11.874 -1.1562 -0.8816  0.6606
19036TIP3   OH278598   4.493   1.742   3.315  0.3594  0.7803  0.1327
19036TIP3    H178599   4.399   1.742   3.331  0.5075 -2.5122  2.0937
19036TIP3    H278600   4.503   1.780   3.228 -2.8497  0.5613 -0.4587
19037TIP3   OH278601   4.172   2.778  12.228 -0.1507 -0.5679 -0.2125
19037TIP3    H178602   4.190   2.742  12.142 -0.3153 -1.4903  0.1337
19037TIP3    H278603   4.253   2.766  12.278  0.9280  2.4693 -1.0289
19038TIP3   OH278604   5.430   5.847   4.489  0.0386 -0.2791  0.4067
19038TIP3    H178605   5.377   5.868   4.566 -0.2849 -1.8789  0.6521
19038TIP3    H278606   5.390   5.899   4.418 -0.2285  0.5013  1.1098
19039TIP3   OH278607   0.597   0.236   0.188  0.5785  0.0627  0.1235
19039TIP3    H178608   0.692   0.233   0.194  0.5724 -0.4045 -0.0267
19039TIP3    H278609   0.579   0.232   0.094  0.3796 -0.7403  0.1937
19040TIP3   OH278610   4.340   0.384  12.534  0.2239 -0.3364 -0.5621
19040TIP3    H178611   4.409   0.330  12.573  1.1376  0.3340 -1.2312
19040TIP3    H278612   4.342   0.362  12.441 -1.5305 -1.4651 -0.4010
19041TIP3   OH278613   4.554   2.933   1.776  0.2916 -0.6698  0.5858
19041TIP3    H178614   4.488   2.975   1.830 -0.4428  0.7829 -1.3091
19041TIP3    H278615   4.504   2.883   1.711  0.9708  0.6371 -1.0232
19042TIP3   OH278616   4.592   3.772  16.361  0.0629 -0.4042  0.3552
19042TIP3    H178617   4.527   3.703  16.364 -0.0459 -0.3858 -0.9872
19042TIP3    H278618   4.567   3.826  16.286 -1.2363  2.5084  2.6666
19043TIP3   OH278619   3.514   1.285  10.852  0.4563 -0.5529  0.4957
19043TIP3    H178620   3.436   1.259  10.901  0.7074 -0.0198  1.2047
19043TIP3    H278621   3.495   1.375  10.824 -0.0045 -1.0986 -1.0786
19044TIP3   OH278622   2.238   4.287  15.706  0.2280  0.3875 -0.2544
19044TIP3    H178623   2.270   4.348  15.640  1.2339  0.7866  0.5878
19044TIP3    H278624   2.315   4.239  15.735 -0.1833  0.2585  0.6701
19045TIP3   OH278625   2.457   5.546  17.039 -0.5666 -0.0575  0.5907
19045TIP3    H178626   2.463   5.484  17.112  0.5571 -1.3402 -0.5269
19045TIP3    H278627   2.364   5.548  17.017 -0.6224 -1.4433  0.6003
19046TIP3   OH278628   6.001   3.411   4.017  0.0160 -0.3886 -0.9474
19046TIP3    H178629   6.065   3.341   4.021 -0.7302 -1.3964 -4.1497
19046TIP3    H278630   5.955   3.407   4.101  1.5280 -2.1886 -0.1611
19047TIP3   OH278631   3.842   3.672   6.236 -0.2094  0.7779 -0.0253
19047TIP3    H178632   3.863   3.615   6.162  2.2467  0.0706  1.1166
19047TIP3    H278633   3.820   3.613   6.308  2.6927  1.1110  1.2671
19048TIP3   OH278634   1.419   3.712   2.227 -0.1764 -0.2814  0.1362
19048TIP3    H178635   1.376   3.734   2.309  0.0229 -0.6916  0.3531
19048TIP3    H278636   1.507   3.748   2.235 -0.4055  0.3857 -0.2291
19049TIP3   OH278637   4.146   5.425  13.850 -0.4254 -0.6447  0.1635
19049TIP3    H178638   4.127   5.335  13.878  0.9051 -1.1474 -0.4807
19049TIP3    H278639   4.153   5.421  13.755  0.1114  0.0514  0.1627
19050TIP3   OH278640   0.295   3.311   3.188 -0.1842  0.2635  1.0240
19050TIP3    H178641   0.230   3.284   3.123  0.2835  1.0776  0.1789
19050TIP3    H278642   0.335   3.230   3.218 -0.9034 -0.1755  0.8077
19051TIP3   OH278643   4.156   2.263   2.961 -0.5931 -0.1157 -0.5623
19051TIP3    H178644   4.168   2.187   3.019  0.8551  0.7501  0.3431
19051TIP3    H278645   4.200   2.238   2.880  0.3784 -0.0491 -0.0700
19052TIP3   OH278646   1.184   3.287   2.043 -0.0261  0.4003 -0.4611
19052TIP3    H178647   1.266   3.336   2.046  0.8515 -0.9655 -0.8697
19052TIP3    H278648   1.153   3.286   2.133  1.6536 -1.0163  0.1605
19053TIP3   OH278649   4.659   3.994   3.932  0.3054  0.2504 -0.2478
19053TIP3    H178650   4.724   3.982   3.864  0.8219  0.1993  0.2464
19053TIP3    H278651   4.618   4.078   3.912  0.4158  0.2076 -0.6519
19054TIP3   OH278652   0.878   3.296  17.006 -0.7685 -0.3790 -0.5390
19054TIP3    H178653   0.905   3.330  16.921 -0.9788  0.6418 -0.2173
19054TIP3    H278654   0.793   3.255  16.990 -1.1943  0.5391 -0.6742
19055TIP3   OH278655   2.000   2.243   1.083 -0.0826 -0.0317 -0.6269
19055TIP3    H178656   2.058   2.262   1.156 -0.0986  0.8067 -0.8219
19055TIP3    H278657   1.913   2.268   1.113 -0.4856 -1.8935 -0.0995
19056TIP3   OH278658   1.410   4.891  15.071  0.0969  0.1380  0.0083
19056TIP3    H178659   1.460   4.863  14.995 -1.6872  0.1438 -1.2226
19056TIP3    H278660   1.375   4.810  15.109  0.8492  0.1478  0.7396
19057TIP3   OH278661   4.413   6.181   1.678 -0.0757 -0.1092  0.6617
19057TIP3    H178662   4.361   6.115   1.724 -0.5051 -1.1029 -1.1294
19057TIP3    H278663   4.388   6.170   1.586  1.4912  1.0821  0.0560
19058TIP3   OH278664   3.039   5.856  15.718  0.3728 -0.2787 -0.1106
19058TIP3    H178665   2.988   5.933  15.745 -0.7732 -1.5859  1.6290
19058TIP3    H278666   2.986   5.815  15.650 -0.1222 -0.7490  0.5521
19059TIP3   OH278667   2.149   2.342   1.291 -0.0790  0.2822  0.3539
19059TIP3    H178668   2.102   2.279   1.346 -0.7813  1.7504  1.5160
19059TIP3    H278669   2.235   2.348   1.332 -0.4785  1.0936  1.1242
19060TIP3   OH278670   1.267   0.569   0.285 -0.2289  0.5144  0.0063
19060TIP3    H178671   1.273   0.508   0.212 -1.7301  0.3353  0.0044
19060TIP3    H278672   1.347   0.622   0.279  0.7370 -0.9500 -0.4228
19061TIP3   OH278673   5.526   5.994  17.003  0.4600 -0.3312 -0.1194
19061TIP3    H178674   5.468   6.026  17.072  0.8645 -1.9752  1.0705
19061TIP3    H278675   5.612   6.029  17.027  0.6468 -1.1080  0.3857
19062TIP3   OH278676   4.852   0.992   5.583 -0.3460 -0.1570  0.5206
19062TIP3    H178677   4.942   0.980   5.552 -0.5768  0.0682 -0.2560
19062TIP3    H278678   4.859   0.984   5.679 -0.0702 -3.7890  0.3180
19063TIP3   OH278679   1.968   2.855  13.365  0.1283  0.3000 -0.1170
19063TIP3    H178680   1.892   2.870  13.421 -0.2266  2.9291 -1.1591
19063TIP3    H278681   1.933   2.809  13.288 -0.1253  0.2328  0.0383
19064TIP3   OH278682   6.203   1.492  12.672 -0.2580  0.0186 -0.0454
19064TIP3    H178683   6.189   1.421  12.609 -0.6618 -0.7477  0.8788
19064TIP3    H278684   6.227   1.567  12.618 -0.2446 -0.7026 -1.0850
19065TIP3   OH278685   0.749   6.765  13.200  0.2283  0.4458  0.1656
19065TIP3    H178686   0.785   6.726  13.280  1.2320  0.6252 -0.1884
19065TIP3    H278687   0.818   6.753  13.135 -0.4633  0.5795 -0.5954
19066TIP3   OH278688   3.806   5.052   2.446  0.4997  0.1840  0.1371
19066TIP3    H178689   3.753   4.973   2.432 -0.7244  0.9849  0.1166
19066TIP3    H278690   3.808   5.063   2.541  0.5638  0.2041  0.1336
19067TIP3   OH278691   3.956   3.036  16.556 -0.0728 -0.0555  0.1817
19067TIP3    H178692   3.878   3.064  16.508 -0.6820 -0.5758  0.8442
19067TIP3    H278693   3.985   3.115  16.602 -0.0011  0.2272 -0.3418
19068TIP3   OH278694   2.580   3.687  12.539  0.0186  0.3910 -0.1945
19068TIP3    H178695   2.589   3.781  12.554 -0.2142  0.4401 -0.3544
19068TIP3    H278696   2.636   3.646  12.605  1.1717  0.6713 -0.9711
19069TIP3   OH278697   6.789   5.870  10.950 -0.2585  0.1410 -0.0581
19069TIP3    H178698   6.787   5.842  10.859 -0.6112  0.4224 -0.1360
19069TIP3    H278699   6.700   5.858  10.982 -1.0517  3.2580 -0.7326
19070TIP3   OH278700   1.443   1.357  11.364  0.0499 -0.0273  0.1995
19070TIP3    H178701   1.391   1.309  11.299 -0.2684  0.6427 -0.0514
19070TIP3    H278702   1.534   1.343  11.338  0.0239 -1.3276  0.7222
19071TIP3   OH278703   0.175   1.112   0.038 -0.8033 -0.6166  0.4014
19071TIP3    H178704   0.251   1.169   0.049 -0.6789 -0.1918 -2.0361
19071TIP3    H278705   0.190   1.040   0.098  0.8226  0.1755  0.9987
19072TIP3   OH278706   1.651   1.358  12.698  0.7531  0.5656  0.2003
19072TIP3    H178707   1.671   1.429  12.759 -0.7038  1.1184  0.0805
19072TIP3    H278708   1.573   1.388  12.651  1.5202 -0.0745 -1.5648
19073TIP3   OH278709   4.208   1.608  16.496  0.0819  0.1624 -0.1345
19073TIP3    H178710   4.152   1.592  16.572 -0.9615  0.7285 -0.7507
19073TIP3    H278711   4.146   1.625  16.425  0.9657  4.1710 -0.1807
19074TIP3   OH278712   0.166   4.638   1.744  0.1959  0.7430 -0.0917
19074TIP3    H178713   0.220   4.706   1.784 -0.4567  1.0801  0.2176
19074TIP3    H278714   0.076   4.667   1.757 -0.0678  1.4843 -2.8189
19075TIP3   OH278715   6.181   6.503  12.218 -0.4919 -0.3987 -0.3377
19075TIP3    H178716   6.117   6.445  12.176 -1.1120 -0.6754  0.9348
19075TIP3    H278717   6.233   6.537  12.146 -1.4576 -0.9222 -1.3184
19076TIP3   OH278718   4.848   0.547  14.516  0.0629  0.2938 -0.3657
19076TIP3    H178719   4.927   0.521  14.468 -0.5773 -1.3797 -0.5692
19076TIP3    H278720   4.852   0.496  14.597 -0.2105  1.1351  0.2000
19077TIP3   OH278721   6.497   2.120   5.853  0.2039 -0.1517  0.0138
19077TIP3    H178722   6.581   2.154   5.883  0.1157 -0.3537  0.4837
19077TIP3    H278723   6.498   2.137   5.758  0.0006  1.5305  0.2789
19078TIP3   OH278724   4.647   3.914  12.813  0.1752  0.0764 -0.4937
19078TIP3    H178725   4.701   3.868  12.749 -1.7059 -1.2554 -1.1928
19078TIP3    H278726   4.643   3.854  12.888 -1.4755 -0.5422 -1.0244
19079TIP3   OH278727   3.048   2.284  16.694 -0.3004 -0.0300 -0.1238
19079TIP3    H178728   3.075   2.367  16.657  0.2066 -0.5570 -0.9599
19079TIP3    H278729   3.008   2.236  16.621 -0.6333 -0.4981  0.3558
19080TIP3   OH278730   5.274   4.102   2.472  0.0025 -0.2931 -0.3655
19080TIP3    H178731   5.216   4.174   2.451 -2.3052 -1.6390  0.9879
19080TIP3    H278732   5.341   4.140   2.529 -2.4254  0.4771  2.1784
19081TIP3   OH278733   1.301   1.658   0.122 -0.4317  0.5032 -0.2950
19081TIP3    H178734   1.367   1.609   0.073  0.0865  0.5456  0.3535
19081TIP3    H278735   1.235   1.593   0.147 -0.2011  0.3023 -0.2093
19082TIP3   OH278736   3.423   4.750   2.269 -0.0283 -0.6920  0.7949
19082TIP3    H178737   3.398   4.775   2.358  0.3675  1.4027  0.3558
19082TIP3    H278738   3.506   4.795   2.253 -0.5737 -0.2245 -0.9625
19083TIP3   OH278739   0.251   1.178  14.434  0.2591 -0.1982  0.3567
19083TIP3    H178740   0.196   1.099  14.433  0.0043 -0.0538 -1.7762
19083TIP3    H278741   0.193   1.247  14.465  0.0352 -0.5473  0.7365
19084TIP3   OH278742   1.764   4.932  14.319  0.0877  0.2672  0.3160
19084TIP3    H178743   1.838   4.970  14.272  0.2527  0.6140  0.8476
19084TIP3    H278744   1.689   4.986  14.292 -0.3393 -1.1523 -1.6005
19085TIP3   OH278745   4.200   2.910   2.031 -0.3080  0.3178 -0.0332
19085TIP3    H178746   4.161   2.841   1.979 -1.5028  1.3878 -0.6199
19085TIP3    H278747   4.185   2.990   1.980 -2.4168  1.5717  2.3622
19086TIP3   OH278748   4.899   3.865   0.869  0.2228 -0.1522 -0.2045
19086TIP3    H178749   4.845   3.929   0.915  0.1286  0.2234 -0.8165
19086TIP3    H278750   4.989   3.888   0.890  0.2194  0.6019 -0.9296
19087TIP3   OH278751   2.925   4.029  15.706 -0.0481  0.3144 -0.0153
19087TIP3    H178752   2.889   3.947  15.741 -1.3361  0.6647 -0.4527
19087TIP3    H278753   2.923   4.018  15.611 -1.1157  1.1857 -0.1168
19088TIP3   OH278754   1.545   3.283   4.559 -0.4033 -0.1227  0.4944
19088TIP3    H178755   1.515   3.368   4.592 -1.0750 -0.5270  0.9276
19088TIP3    H278756   1.477   3.221   4.584  0.8075 -1.0748  1.5533
19089TIP3   OH278757   2.940   4.141   4.936 -0.0259  0.2464 -0.1347
19089TIP3    H178758   3.008   4.151   5.002 -0.9076  1.2100  0.6560
19089TIP3    H278759   2.877   4.081   4.975  1.4708 -2.6729 -1.8243
19090TIP3   OH278760   1.533   4.049  13.710 -0.7348  0.1531  0.2158
19090TIP3    H178761   1.604   4.008  13.661 -0.7184  0.5945 -0.1367
19090TIP3    H278762   1.558   4.039  13.802 -1.1158 -1.3088  0.1770
19091TIP3   OH278763   0.599   5.008   1.299 -0.1299  0.6064 -0.3931
19091TIP3    H178764   0.522   4.952   1.306  0.4431 -0.0678  0.8190
19091TIP3    H278765   0.665   4.965   1.353  0.5636  2.0561 -0.0302
19092TIP3   OH278766   3.859   6.375  16.940 -0.1218  0.7767 -0.1229
19092TIP3    H178767   3.925   6.442  16.961  0.4670  0.0381  0.4030
19092TIP3    H278768   3.824   6.347  17.024  1.6220 -1.5606 -0.0867
19093TIP3   OH278769   0.744   5.727  16.888 -0.0988 -0.2620 -0.2318
19093TIP3    H178770   0.768   5.661  16.823 -0.8293 -1.4121  0.6256
19093TIP3    H278771   0.809   5.717  16.957  1.2138  1.5519 -1.1025
19094TIP3   OH278772   0.332   6.017   2.353 -0.1222 -0.1236  0.0076
19094TIP3    H178773   0.302   6.036   2.264 -3.2089 -0.1968  0.9404
19094TIP3    H278774   0.279   5.942   2.381  0.7344 -0.0682  1.9548
19095TIP3   OH278775   2.581   5.646  12.535  0.2820 -0.0190  0.2410
19095TIP3    H178776   2.670   5.653  12.499  0.4527 -2.3543  0.0401
19095TIP3    H278777   2.589   5.582  12.606 -0.8635  1.3839  1.7209
19096TIP3   OH278778   5.108   0.753   6.419  0.4171  0.2082 -0.1380
19096TIP3    H178779   5.061   0.670   6.428 -1.8689  1.5544  1.3877
19096TIP3    H278780   5.088   0.783   6.331 -1.1407  0.4580  0.2763
19097TIP3   OH278781   4.001   2.132  16.170  0.5204  0.3333 -0.1021
19097TIP3    H178782   4.032   2.222  16.157  1.7677 -0.3141 -1.9398
19097TIP3    H278783   4.023   2.112  16.261  1.8019  1.3108 -0.1725
19098TIP3   OH278784   0.244   0.632   2.561 -0.4917 -0.2733  0.2356
19098TIP3    H178785   0.158   0.594   2.546 -0.6156  0.5694 -1.3765
19098TIP3    H278786   0.226   0.718   2.599 -0.3437 -0.2502  0.2538
19099TIP3   OH278787   5.099   1.271   5.326 -0.6050  0.7754 -0.6447
19099TIP3    H178788   5.163   1.341   5.314 -0.3487  0.2327 -3.0125
19099TIP3    H278789   5.068   1.281   5.416  0.7684  2.7614 -0.3367
19100TIP3   OH278790   2.736   0.436  10.861  0.0085  0.4319  0.2907
19100TIP3    H178791   2.689   0.488  10.796  1.7180  1.1738 -0.4165
19100TIP3    H278792   2.783   0.501  10.914  0.4472 -0.2877  0.7999
19101TIP3   OH278793   0.253   0.428  14.536 -0.0009  0.2605 -0.2699
19101TIP3    H178794   0.290   0.341  14.523 -0.7886 -0.1760  0.3630
19101TIP3    H278795   0.168   0.425  14.492  0.5666  1.1873 -1.5265
19102TIP3   OH278796   2.764   2.152  16.049  0.2109 -0.0166 -0.3958
19102TIP3    H178797   2.795   2.228  16.098  3.6642 -0.3876 -1.7272
19102TIP3    H278798   2.799   2.077  16.098 -1.8655 -0.7412  0.0616
19103TIP3   OH278799   6.245   0.303  14.672 -0.1251  0.1650  0.5904
19103TIP3    H178800   6.254   0.220  14.718  0.3911  0.0463  0.2886
19103TIP3    H278801   6.246   0.278  14.579 -1.2495  0.3862  0.4980
19104TIP3   OH278802   2.407   0.029   5.719  0.0485  0.5464  0.1387
19104TIP3    H178803   2.319   0.019   5.682  0.1797 -1.7869  0.2971
19104TIP3    H278804   2.465  -0.003   5.651  0.7149  1.1999  0.3935
19105TIP3   OH278805   1.476   4.145   1.654  0.9586 -0.2462  0.3598
19105TIP3    H178806   1.408   4.133   1.587  1.1562 -1.4886  0.3630
19105TIP3    H278807   1.556   4.161   1.604  0.7225  1.0769  0.3547
19106TIP3   OH278808   0.114   4.839  15.934 -0.1250  0.3215  0.1246
19106TIP3    H178809   0.170   4.761  15.932 -1.6496 -0.8379  0.8673
19106TIP3    H278810   0.070   4.839  15.849 -0.6713 -0.0525  0.4040
19107TIP3   OH278811   0.001   6.157  11.091  0.0559 -0.0029  0.1395
19107TIP3    H178812   0.044   6.162  11.005  1.2369  0.0937  0.7130
19107TIP3    H278813  -0.088   6.129  11.071  0.8411 -1.9249 -1.0032
19108TIP3   OH278814   5.111   0.902  16.444  0.1356 -0.0080  0.5049
19108TIP3    H178815   5.164   0.963  16.495 -0.0243  0.7078 -0.1617
19108TIP3    H278816   5.047   0.958  16.399 -0.7147 -0.7775  0.7146
19109TIP3   OH278817   3.232   5.683   4.390 -0.6122 -0.1344 -0.3137
19109TIP3    H178818   3.297   5.737   4.434  0.9588 -1.8691 -0.3844
19109TIP3    H278819   3.264   5.675   4.300 -1.4221 -0.2541 -0.6022
19110TIP3   OH278820   3.676   5.458   0.201  0.4354  0.3686 -0.3370
19110TIP3    H178821   3.583   5.467   0.182  0.4701 -0.9329 -1.2097
19110TIP3    H278822   3.694   5.365   0.192  1.4064  0.2823  1.9038
19111TIP3   OH278823   6.469   5.389  16.665 -0.1138  0.0358 -0.6104
19111TIP3    H178824   6.387   5.438  16.660 -0.1847 -0.1139 -1.0066
19111TIP3    H278825   6.442   5.297  16.669  0.0296 -0.0038 -0.5448
19112TIP3   OH278826   3.908   3.234   5.366  0.0590  0.1060 -0.2389
19112TIP3    H178827   3.856   3.232   5.286  0.2007  0.0199 -0.3278
19112TIP3    H278828   3.895   3.148   5.406  1.4864 -0.5516 -1.1161
19113TIP3   OH278829   2.513   3.219   5.658  0.3072  0.3573  0.2723
19113TIP3    H178830   2.528   3.250   5.747  0.1870 -0.9257  0.7598
19113TIP3    H278831   2.553   3.133   5.655  1.0674  0.7246 -1.1879
19114TIP3   OH278832   1.919   2.301   3.790 -0.3989  0.0930 -0.0870
19114TIP3    H178833   1.873   2.361   3.731 -1.6383 -1.2692 -0.5730
19114TIP3    H278834   2.011   2.326   3.783 -0.9400  2.4051  0.3147
19115TIP3   OH278835   5.890   5.550  12.320 -0.3054  0.3294 -0.1653
19115TIP3    H178836   5.848   5.469  12.349 -1.3358  0.7879 -0.3523
19115TIP3    H278837   5.896   5.603  12.399 -0.1139  0.2832 -0.1477
19116TIP3   OH278838   6.253   1.453  16.496 -0.0407 -0.5398 -0.2019
19116TIP3    H178839   6.214   1.484  16.578  1.9588 -0.1031  0.6367
19116TIP3    H278840   6.284   1.365  16.516  0.1988 -0.5368 -0.5579
19117TIP3   OH278841   4.146   4.510  14.823  0.6477  0.0890 -0.3158
19117TIP3    H178842   4.230   4.554  14.818  1.1652 -0.8569 -0.1533
19117TIP3    H278843   4.129   4.480  14.734  0.2666  0.6553 -0.4388
19118TIP3   OH278844   0.869   2.372  14.441 -0.1452  0.4063  0.0421
19118TIP3    H178845   0.788   2.335  14.408 -0.8131  2.6744 -1.0204
19118TIP3    H278846   0.849   2.395  14.532  0.1334 -1.2441  0.5670
19119TIP3   OH278847   3.442   6.104   2.559  0.1819 -0.6318  1.0902
19119TIP3    H178848   3.532   6.132   2.544  0.7246 -1.7646  2.1294
19119TIP3    H278849   3.438   6.081   2.652 -1.0304 -1.1368  0.9385
19120TIP3   OH278850   2.028   6.809   0.720 -0.0717  0.2954 -0.2841
19120TIP3    H178851   2.078   6.851   0.650  0.9748 -0.5165 -0.0412
19120TIP3    H278852   1.999   6.726   0.682  1.3186 -0.5896  0.5376
19121TIP3   OH278853   5.579   6.487  14.835  0.4066  0.1683 -0.0938
19121TIP3    H178854   5.576   6.540  14.915 -1.0591  0.4389 -0.2960
19121TIP3    H278855   5.491   6.497  14.796  1.8071  2.3318 -3.1984
19122TIP3   OH278856   0.296   3.907   5.753 -0.5133 -0.1859  0.5340
19122TIP3    H178857   0.224   3.895   5.815 -0.6591 -2.0000  0.0560
19122TIP3    H278858   0.357   3.837   5.773  1.0518  1.1983  0.7806
19123TIP3   OH278859   1.548   6.020  15.815  0.7910 -0.4269  0.3395
19123TIP3    H178860   1.531   6.065  15.732 -1.3876 -1.3783  0.2072
19123TIP3    H278861   1.601   6.081  15.865  0.1115  1.1903 -0.8353
19124TIP3   OH278862   6.538   6.828   3.651 -0.5999 -0.5661 -0.0135
19124TIP3    H178863   6.621   6.792   3.682 -0.4757 -0.7548 -0.5549
19124TIP3    H278864   6.472   6.778   3.697 -0.5000 -3.2746 -2.5440
19125TIP3   OH278865   0.614   1.758   1.080  0.2162 -0.4192 -0.0707
19125TIP3    H178866   0.613   1.827   1.013 -2.4159 -0.1768  0.1087
19125TIP3    H278867   0.634   1.678   1.032 -1.9583 -0.3067 -1.2993
19126TIP3   OH278868   2.131   3.482  15.414  0.4272 -0.0571 -0.6324
19126TIP3    H178869   2.052   3.473  15.360  0.4612 -0.0505 -0.6835
19126TIP3    H278870   2.161   3.392  15.427  0.5957 -0.0366 -0.8859
19127TIP3   OH278871   3.038   1.724   0.313 -0.2154  0.3653  0.2162
19127TIP3    H178872   3.117   1.709   0.261 -0.5272 -0.3758 -0.0661
19127TIP3    H278873   3.033   1.819   0.323  1.3072  0.3806  1.1694
19128TIP3   OH278874   4.643   0.466   4.754  0.0897  0.6824  0.2277
19128TIP3    H178875   4.670   0.386   4.799  0.7616  0.7936  0.0401
19128TIP3    H278876   4.623   0.438   4.665  1.9294  0.9486 -0.3198
19129TIP3   OH278877   4.892   1.422   1.973 -0.2115 -0.2596 -0.0634
19129TIP3    H178878   4.900   1.513   1.945  0.1800  0.1207  1.1866
19129TIP3    H278879   4.871   1.373   1.894 -1.5706  1.0780 -0.5776
19130TIP3   OH278880   2.994   4.221  12.395  0.3953 -0.4211  0.1956
19130TIP3    H178881   2.963   4.265  12.475  2.5585  0.5752  0.5451
19130TIP3    H278882   2.997   4.129  12.419  2.7180  0.0256  1.9476
19131TIP3   OH278883   1.436   1.581  17.045 -0.4850 -0.0999 -0.4278
19131TIP3    H178884   1.380   1.622  16.979  0.7181  2.1613 -0.1169
19131TIP3    H278885   1.524   1.585  17.008 -0.0710 -0.6240  0.4636
19132TIP3   OH278886   3.959   5.385   6.678  0.3614  0.0812  0.3593
19132TIP3    H178887   4.040   5.412   6.721 -0.1154  0.2897  1.1497
19132TIP3    H278888   3.924   5.316   6.734 -0.3903  0.5199  0.4391
19133TIP3   OH278889   4.732   6.128  11.175  0.2080 -0.6675  0.0241
19133TIP3    H178890   4.653   6.182  11.179 -0.9389 -2.2441 -0.4411
19133TIP3    H278891   4.744   6.110  11.082  1.4439 -0.0170  0.0414
19134TIP3   OH278892   0.073   2.978  15.263 -0.0321  0.0619 -0.2419
19134TIP3    H178893   0.125   2.899  15.281  0.2450  0.0896 -0.8765
19134TIP3    H278894  -0.004   2.945  15.215 -0.1232  0.1302 -0.1426
19135TIP3   OH278895   1.158   4.211  14.363  0.1138  0.0406 -0.1958
19135TIP3    H178896   1.246   4.219  14.327 -0.4668  2.1252 -1.3290
19135TIP3    H278897   1.114   4.150  14.305 -0.2523  1.9244 -2.0140
19136TIP3   OH278898   2.584   6.295   2.864 -0.0633 -0.1644 -0.1887
19136TIP3    H178899   2.569   6.230   2.796 -1.3135 -2.1486  1.8544
19136TIP3    H278900   2.501   6.342   2.872  0.3444  0.6408 -0.5826
19137TIP3   OH278901   1.741   3.752   5.049 -0.5135 -0.6341 -0.1141
19137TIP3    H178902   1.778   3.766   4.962 -1.0533  0.4253 -0.2009
19137TIP3    H278903   1.812   3.771   5.110 -0.6739  0.6118 -0.2930
19138TIP3   OH278904   1.106   5.065  16.070  0.5103 -0.1443  0.2616
19138TIP3    H178905   1.142   4.976  16.080  0.2033 -0.4918 -1.4522
19138TIP3    H278906   1.018   5.052  16.036 -0.1534  0.8017  1.5347
19139TIP3   OH278907   6.148   2.152  14.729  0.0951 -0.3780  0.1594
19139TIP3    H178908   6.180   2.128  14.816  0.0066 -3.3327 -0.5349
19139TIP3    H278909   6.120   2.243  14.739  0.7171 -0.3894  3.0247
19140TIP3   OH278910   1.987   3.940  15.951  0.4072 -0.3759 -0.0441
19140TIP3    H178911   1.967   3.957  16.043 -0.8974  1.3345 -0.5901
19140TIP3    H278912   1.902   3.943  15.907  0.9164 -1.9764 -1.2075
19141TIP3   OH278913   0.105   2.807   2.451  0.3420 -0.5717  0.2535
19141TIP3    H178914   0.092   2.799   2.356  1.0585 -0.8065  0.1645
19141TIP3    H278915   0.164   2.882   2.461 -0.1386 -0.2308  0.5516
19142TIP3   OH278916   0.985   2.218   1.329 -0.6647  0.5453  0.1662
19142TIP3    H178917   1.051   2.160   1.291  0.6192  1.6068  0.6626
19142TIP3    H278918   0.940   2.256   1.254  1.0251  1.7014 -0.3465
19143TIP3   OH278919   0.999   5.764  12.585 -0.2726 -0.1091 -0.3048
19143TIP3    H178920   1.050   5.684  12.576 -0.0294 -0.1054  0.8978
19143TIP3    H278921   1.037   5.809  12.660 -0.1919  1.3099 -1.1653
19144TIP3   OH278922   4.147   5.366   1.211 -0.3919 -0.5247 -0.0214
19144TIP3    H178923   4.128   5.398   1.123 -1.1132  0.2318  0.3856
19144TIP3    H278924   4.235   5.331   1.206 -0.6805 -1.1393 -1.2154
19145TIP3   OH278925   1.129   2.780   0.068 -0.0477 -0.4265  0.6561
19145TIP3    H178926   1.126   2.747   0.158 -1.9691  0.9934  1.1649
19145TIP3    H278927   1.180   2.861   0.074 -0.7835  0.0483  0.6215
19146TIP3   OH278928   6.113   2.320   3.339 -0.3107 -0.0333  0.0487
19146TIP3    H178929   6.168   2.310   3.416 -0.3190  1.4621  0.2847
19146TIP3    H278930   6.165   2.282   3.268  0.0927 -0.5894  0.6286
19147TIP3   OH278931   2.650   2.590  15.014  0.4536 -0.2996  0.1519
19147TIP3    H178932   2.660   2.579  15.109  0.6523  0.0308  0.1695
19147TIP3    H278933   2.610   2.676  15.004 -0.9844 -0.9458  0.0036
19148TIP3   OH278934   5.326   5.926  14.260  0.2670 -0.1849 -0.2267
19148TIP3    H178935   5.374   5.878  14.327  1.7398  2.3787  0.6940
19148TIP3    H278936   5.250   5.963  14.306 -1.9665 -3.0017 -1.3523
19149TIP3   OH278937   0.199   2.449  16.720 -0.1560  0.1587  0.2582
19149TIP3    H178938   0.239   2.535  16.705  1.9616 -1.1036 -2.1048
19149TIP3    H278939   0.237   2.420  16.803  3.1445 -0.4731 -1.3150
19150TIP3   OH278940   3.708   1.930   2.112 -0.2469 -0.3864  0.0369
19150TIP3    H178941   3.715   1.853   2.168  1.5323 -0.7487 -0.5989
19150TIP3    H278942   3.777   1.989   2.143  0.2220 -0.2409 -1.1986
19151TIP3   OH278943   4.001   2.794  13.990 -0.4712  0.0700  0.1492
19151TIP3    H178944   3.916   2.824  14.021  0.6699  0.8610  2.7461
19151TIP3    H278945   4.022   2.720  14.047  1.1863  0.7882  0.5169
19152TIP3   OH278946   6.779   5.983  16.987 -0.5387  0.2726 -0.6956
19152TIP3    H178947   6.712   6.043  16.955 -1.3093 -1.3293 -2.2871
19152TIP3    H278948   6.729   5.910  17.025  0.3235 -0.2041 -0.4555
19153TIP3   OH278949   2.687   4.227  16.939 -0.2742 -0.0278  0.2338
19153TIP3    H178950   2.663   4.136  16.920  0.5216 -0.4097  0.9827
19153TIP3    H278951   2.642   4.248  17.021 -1.5456  0.7253 -0.6237
19154TIP3   OH278952   4.305   2.424  15.659 -0.0049 -0.0189 -0.4094
19154TIP3    H178953   4.291   2.369  15.582 -0.1618 -0.3080 -0.1777
19154TIP3    H278954   4.224   2.415  15.710 -1.4659  3.0588 -1.9484
19155TIP3   OH278955   5.655   1.535   5.424 -0.0077  0.3517 -0.0585
19155TIP3    H178956   5.574   1.504   5.465  1.6321 -3.6617  0.5739
19155TIP3    H278957   5.703   1.576   5.496 -0.3019  0.1616  0.2513
19156TIP3   OH278958   4.692   4.467   5.456 -0.0488  0.2656 -0.3044
19156TIP3    H178959   4.707   4.541   5.399  0.0142  0.3648 -0.1608
19156TIP3    H278960   4.764   4.471   5.520 -0.8204  0.9033  0.5584
19157TIP3   OH278961   2.353   1.024   5.280  0.0361 -0.1314  0.2062
19157TIP3    H178962   2.349   0.965   5.205 -3.0819  1.8777 -1.4120
19157TIP3    H278963   2.437   1.069   5.270  0.0058 -0.4168 -1.7075
19158TIP3   OH278964   5.403   2.434   2.367 -0.0892 -0.2761 -0.2205
19158TIP3    H178965   5.468   2.446   2.298 -1.7866 -0.6050 -1.9348
19158TIP3    H278966   5.391   2.521   2.404  1.5547 -0.2685  0.3823
19159TIP3   OH278967   2.386   6.808  15.466 -0.4470  0.3435 -0.0962
19159TIP3    H178968   2.443   6.782  15.394 -0.4119 -1.4171  0.5324
19159TIP3    H278969   2.299   6.816  15.427 -0.4178 -0.5487 -0.3466
19160TIP3   OH278970   0.006   2.065  10.923 -0.5720  0.3138 -0.1322
19160TIP3    H178971   0.075   2.102  10.978  0.4614 -0.7801 -0.6412
19160TIP3    H278972  -0.066   2.047  10.983 -0.1751  0.8705  0.5271
19161TIP3   OH278973   5.072   4.783   4.885  0.2203 -0.2127  0.4392
19161TIP3    H178974   5.077   4.870   4.925 -0.7298  0.1051 -0.1060
19161TIP3    H278975   5.002   4.790   4.820  0.2414 -1.3422  0.2714
19162TIP3   OH278976   2.413   0.230   4.564  0.1548 -0.4379  0.5454
19162TIP3    H178977   2.456   0.168   4.623 -2.5390 -2.1484  0.8766
19162TIP3    H278978   2.481   0.253   4.501  1.2996 -4.0053  0.2424
19163TIP3   OH278979   4.843   1.893   3.491 -0.0928 -0.5894 -0.0376
19163TIP3    H178980   4.811   1.940   3.568  0.2741  0.9035 -0.7651
19163TIP3    H278981   4.883   1.960   3.436 -0.9152 -1.5081 -1.8461
19164TIP3   OH278982   6.786   6.108   5.997  0.1765 -0.3186 -0.6724
19164TIP3    H178983   6.857   6.046   6.015  1.8885  1.2557 -1.6830
19164TIP3    H278984   6.709   6.070   6.040  1.7696 -1.7484  1.0760
19165TIP3   OH278985   0.284   3.909  15.628 -0.3373 -0.0604 -0.4749
19165TIP3    H178986   0.367   3.861  15.624  0.0095  0.3512  1.1451
19165TIP3    H278987   0.269   3.939  15.539 -0.1173 -2.3995 -1.3739
19166TIP3   OH278988   3.135   1.280   3.856  0.4632  0.2097 -0.0682
19166TIP3    H178989   3.045   1.272   3.885  0.3384  1.4109 -0.1023
19166TIP3    H278990   3.150   1.202   3.803 -1.1739  0.9365 -1.6999
19167TIP3   OH278991   6.492   5.615  15.080  0.2136 -0.2825  0.3776
19167TIP3    H178992   6.470   5.604  14.988  1.1605 -0.3449  0.1388
19167TIP3    H278993   6.554   5.688  15.082  0.3569 -0.4075  0.9364
19168TIP3   OH278994   0.500   5.725   4.622  0.3583  0.0406  0.4837
19168TIP3    H178995   0.582   5.691   4.658  1.0872  0.2271 -0.9346
19168TIP3    H278996   0.511   5.820   4.626  0.0727  0.0707  0.5698
19169TIP3   OH278997   0.105   4.215   0.748  0.0093 -0.5460  0.2924
19169TIP3    H178998   0.068   4.298   0.720 -1.3800 -0.8997  0.9888
19169TIP3    H278999   0.035   4.172   0.798  0.0790 -2.8803 -1.4236
19170TIP3   OH279000   0.667   3.563   2.725  0.5084 -0.1630  0.0923
19170TIP3    H179001   0.726   3.573   2.799  1.7098 -2.0367 -0.5441
19170TIP3    H279002   0.628   3.476   2.737 -2.0787  0.9357  0.4125
19171TIP3   OH279003   0.636   4.819  16.787  0.2091  0.1864  0.3134
19171TIP3    H179004   0.573   4.804  16.858  0.2687  0.1717  0.3622
19171TIP3    H279005   0.587   4.797  16.708 -0.0489  0.7848  0.3026
19172TIP3   OH279006   5.817   5.442  13.749 -0.0163 -0.4267  0.4085
19172TIP3    H179007   5.758   5.516  13.760  0.6276  0.2136 -0.3969
19172TIP3    H279008   5.809   5.416  13.657 -0.6856 -1.7588  0.8111
19173TIP3   OH279009   1.788   3.992   0.338 -0.1597  0.0240 -0.7052
19173TIP3    H179010   1.855   3.985   0.270 -1.9183  0.2974 -2.5446
19173TIP3    H279011   1.827   3.949   0.414  1.7696 -0.5617 -1.9440
19174TIP3   OH279012   2.436   0.591  10.308  0.0389 -0.2715  0.1126
19174TIP3    H179013   2.400   0.680  10.303 -2.5111 -1.1720  0.7711
19174TIP3    H279014   2.529   0.604  10.327 -0.2000  2.2432 -0.0589
19175TIP3   OH279015   5.735   2.216   2.606 -0.4181  0.0078 -0.6175
19175TIP3    H179016   5.644   2.212   2.576 -0.9198  1.1090  0.6664
19175TIP3    H279017   5.771   2.294   2.563 -0.2561 -0.0808 -0.6441
19176TIP3   OH279018   2.925   6.634  17.121  0.4236  0.1707  0.1688
19176TIP3    H179019   2.901   6.721  17.091 -0.8490 -0.5684 -1.0197
19176TIP3    H279020   2.942   6.584  17.041  1.4027 -0.6240  0.8418
19177TIP3   OH279021   1.483   0.870  12.829  0.3350 -0.5695  0.5410
19177TIP3    H179022   1.437   0.830  12.755 -0.3132 -0.6697  0.9902
19177TIP3    H279023   1.522   0.950  12.793 -0.6827 -0.1810  0.2864
19178TIP3   OH279024   3.063   2.421   0.654  0.4439  0.0053  0.1930
19178TIP3    H179025   3.115   2.348   0.688 -0.3123 -0.1360  1.0975
19178TIP3    H279026   2.980   2.381   0.628  0.5602  0.3197 -0.6977
19179TIP3   OH279027   6.058   4.187  10.992  1.1891 -0.2218  0.0626
19179TIP3    H179028   6.015   4.101  10.991  0.0643  0.3280 -0.5241
19179TIP3    H279029   6.068   4.209  10.900  0.3422  0.8119  0.2027
19180TIP3   OH279030   4.739   2.944  16.404  0.7490 -0.4040 -0.4670
19180TIP3    H179031   4.746   3.034  16.437  0.6360 -0.6167  0.1399
19180TIP3    H279032   4.731   2.890  16.482 -0.2758 -0.8512 -0.8551
19181TIP3   OH279033   1.643   6.270   5.225 -0.3923  0.3243  0.3235
19181TIP3    H179034   1.728   6.313   5.235  0.9332 -1.7375 -1.3317
19181TIP3    H279035   1.610   6.260   5.315  1.7927 -0.0879  1.1267
19182TIP3   OH279036   5.600   5.622   2.583 -0.3987  0.0885 -0.3317
19182TIP3    H179037   5.585   5.545   2.638 -1.3024 -0.1358 -0.8790
19182TIP3    H279038   5.604   5.695   2.645  1.5636 -0.4965  0.3008
19183TIP3   OH279039   2.682   2.021  11.110 -0.4459 -0.6002  0.1670
19183TIP3    H179040   2.736   2.080  11.057 -0.9062 -0.2054  0.1299
19183TIP3    H279041   2.683   1.938  11.062  0.5576 -0.7565  0.4402
19184TIP3   OH279042   2.358   4.644  12.931  0.5740 -0.1139 -0.4201
19184TIP3    H179043   2.372   4.721  12.877  1.8384 -0.6882 -0.9695
19184TIP3    H279044   2.279   4.603  12.895 -0.6102  1.3425  0.4255
19185TIP3   OH279045   3.319   0.465   0.462  0.6785  0.1630  0.6519
19185TIP3    H179046   3.346   0.513   0.541 -0.2552 -0.6300  1.4713
19185TIP3    H279047   3.340   0.374   0.481 -1.2145 -0.2863  0.7415
19186TIP3   OH279048   6.222   1.706   6.097 -0.2403 -0.4837 -0.2273
19186TIP3    H179049   6.268   1.742   6.021  0.7296 -0.7017  0.2335
19186TIP3    H279050   6.280   1.638   6.130 -1.5437 -1.7209 -0.4130
19187TIP3   OH279051   3.243   5.347   2.682  0.0280  0.5447  0.1866
19187TIP3    H179052   3.206   5.425   2.723  0.6784  1.6443 -1.2745
19187TIP3    H279053   3.194   5.336   2.600  0.0498 -0.5123  0.2906
19188TIP3   OH279054   0.006   2.988  16.063  0.2150 -0.5555  0.3374
19188TIP3    H179055  -0.027   3.036  15.987 -0.4807 -0.8496  0.4477
19188TIP3    H279056   0.077   2.934  16.029 -0.9513 -1.6943 -0.3926
19189TIP3   OH279057   5.545   6.451  10.951 -0.3156 -0.0410 -0.8772
19189TIP3    H179058   5.456   6.421  10.971 -0.6934  1.0291 -0.8406
19189TIP3    H279059   5.532   6.538  10.912  0.7600  0.5765  0.0666
19190TIP3   OH279060   3.302   2.456   5.169  0.0024  0.6284  0.0613
19190TIP3    H179061   3.258   2.464   5.253  0.7437  0.9483  0.4307
19190TIP3    H279062   3.260   2.381   5.126 -0.5475  0.6249  0.6071
19191TIP3   OH279063   5.015   5.057   4.711 -0.3198  0.4702  0.3092
19191TIP3    H179064   4.954   5.128   4.693 -1.2916 -0.0242  1.5148
19191TIP3    H279065   5.035   5.066   4.805 -0.1293 -0.5791  0.3817
19192TIP3   OH279066   3.166   1.123  13.099 -0.8746  0.6333  0.0361
19192TIP3    H179067   3.165   1.159  13.188  0.9285  0.7904  0.0381
19192TIP3    H279068   3.142   1.030  13.110 -2.0179  0.9605  0.4800
19193TIP3   OH279069   2.307   6.233  11.587  0.1761  0.3195  0.0698
19193TIP3    H179070   2.392   6.201  11.558 -0.0077  1.3542 -1.7892
19193TIP3    H279071   2.327   6.305  11.646  0.5643 -0.2442  0.6431
19194TIP3   OH279072   1.717   1.204  11.311  0.0070  0.2647  0.0193
19194TIP3    H179073   1.651   1.135  11.309 -1.0691  1.2364  0.4303
19194TIP3    H279074   1.796   1.162  11.346 -1.1939 -0.2973  2.1977
19195TIP3   OH279075   3.246   5.699  15.763  0.3951  0.4912 -0.3675
19195TIP3    H179076   3.293   5.660  15.689 -0.8745  0.5653 -1.2468
19195TIP3    H279077   3.197   5.772  15.725 -0.9992 -0.0296  0.3454
19196TIP3   OH279078   2.059   0.973   4.771 -0.0945 -0.1779  0.3484
19196TIP3    H179079   1.979   0.922   4.763  0.1839 -0.5030 -0.4836
19196TIP3    H279080   2.127   0.917   4.732  0.4639  0.2634  0.6702
19197TIP3   OH279081   0.977   3.636   0.876  0.5090  0.0869  0.2967
19197TIP3    H179082   1.030   3.675   0.807  1.7174 -1.5311  0.2587
19197TIP3    H279083   0.887   3.654   0.850  0.9725  0.6696 -0.9912
19198TIP3   OH279084   4.163   2.307   1.473 -0.2415 -0.0484 -0.0087
19198TIP3    H179085   4.217   2.275   1.545 -2.1847 -1.8053  0.7933
19198TIP3    H279086   4.073   2.288   1.501 -1.1602  0.8427 -2.1535
19199TIP3   OH279087   4.690   5.108  14.052 -0.5369  0.7012  0.2486
19199TIP3    H179088   4.598   5.117  14.027 -0.1244  0.5336 -1.4454
19199TIP3    H279089   4.707   5.014  14.044 -0.3924  0.6378  1.2422
19200TIP3   OH279090   2.406   5.229   0.443 -0.0194 -0.0256  0.0798
19200TIP3    H179091   2.317   5.250   0.470  0.0047  0.4347 -0.1839
19200TIP3    H279092   2.461   5.293   0.488 -0.0134  1.0110 -1.3226
19201TIP3   OH279093   0.834   0.020  11.578 -0.1471  0.0574 -0.2431
19201TIP3    H179094   0.866   0.094  11.631 -1.1958  0.4841 -0.1717
19201TIP3    H279095   0.770   0.060  11.519 -2.5797 -1.1032  1.4344
19202TIP3   OH279096   0.922   5.245  12.796  0.5350 -0.1399 -0.0833
19202TIP3    H179097   0.861   5.275  12.729  0.4275  1.4051  0.6643
19202TIP3    H279098   1.008   5.276  12.768  0.7113 -0.7309 -0.2144
19203TIP3   OH279099   1.119   4.783   1.465 -0.4844 -0.4012  0.3085
19203TIP3    H179100   1.047   4.821   1.415 -0.4251 -0.9890 -0.2334
19203TIP3    H279101   1.182   4.754   1.399  0.9742  1.4735  0.8202
19204TIP3   OH279102   2.925   5.850  15.463 -0.0747  0.7056  0.3898
19204TIP3    H179103   2.979   5.909  15.410  0.2560  0.2427  0.2044
19204TIP3    H279104   2.898   5.782  15.402 -1.0324  1.0281  0.4338
19205TIP3   OH279105   1.689   3.483  16.386  0.1032  0.0835  0.1502
19205TIP3    H179106   1.627   3.437  16.444  0.7947 -0.9170  0.1030
19205TIP3    H279107   1.770   3.486  16.436  0.2942  0.5325 -0.1856
19206TIP3   OH279108   3.114   3.708   4.705 -0.5505  0.3344  0.3781
19206TIP3    H179109   3.186   3.760   4.670 -0.3497 -0.9279 -1.2304
19206TIP3    H279110   3.156   3.645   4.764 -0.6647  1.2465  1.4552
19207TIP3   OH279111   5.743   2.937   4.856  0.2621 -0.1821 -0.6153
19207TIP3    H179112   5.772   3.014   4.806 -0.1027  1.1046  1.0632
19207TIP3    H279113   5.798   2.938   4.935  2.0197 -3.1474 -1.6292
19208TIP3   OH279114   5.570   4.393  15.153 -0.2302 -0.0922  0.3510
19208TIP3    H179115   5.573   4.410  15.059  0.7188  0.6353  0.4955
19208TIP3    H279116   5.516   4.463  15.188 -1.7097 -1.1147  0.2224
19209TIP3   OH279117   4.223   0.868   5.244  0.8537  0.0733  0.1945
19209TIP3    H179118   4.221   0.850   5.150 -1.5549 -1.2138  0.4164
19209TIP3    H279119   4.277   0.946   5.253 -1.3779  2.1363 -2.6499
19210TIP3   OH279120   4.781   0.224  11.842 -0.2205  0.4110 -0.8366
19210TIP3    H179121   4.717   0.155  11.858 -0.4080  0.9187  0.9077
19210TIP3    H279122   4.866   0.183  11.862 -0.3392  0.6615  0.2856
19211TIP3   OH279123   4.164   1.745   1.746 -0.3119  0.3936  0.0372
19211TIP3    H179124   4.224   1.735   1.820  0.0301  0.1543 -0.2683
19211TIP3    H279125   4.209   1.702   1.673 -0.0770  1.7139 -0.6281
19212TIP3   OH279126   0.193   2.665  11.800 -0.3136  0.0951  0.4052
19212TIP3    H179127   0.274   2.714  11.817 -0.1649 -0.0877  0.2255
19212TIP3    H279128   0.223   2.580  11.767 -0.5709 -0.1011  0.6733
19213TIP3   OH279129   4.742   2.708  14.361  0.3186  0.1716 -0.4393
19213TIP3    H179130   4.765   2.761  14.284 -0.9164 -1.5004 -2.0816
19213TIP3    H279131   4.806   2.732  14.427  0.6915  2.6148 -1.5497
19214TIP3   OH279132   2.530   2.001  14.551 -0.6468 -0.4344  0.1969
19214TIP3    H179133   2.496   2.020  14.638  1.2960 -1.9433  1.3700
19214TIP3    H279134   2.585   2.076  14.529  0.1532 -0.7584  1.0294
19215TIP3   OH279135   1.328   3.748  14.615 -0.1079  0.1293  0.0914
19215TIP3    H179136   1.287   3.827  14.648 -0.4806  0.1420 -0.3803
19215TIP3    H279137   1.420   3.770  14.605 -0.0505  0.2210  0.8013
19216TIP3   OH279138   5.952   1.021  15.008  0.0575  1.0579 -0.4855
19216TIP3    H179139   5.999   0.939  14.993 -0.5966  0.3536  1.1249
19216TIP3    H279140   6.019   1.089  15.001  0.8039  0.3056 -0.7942
19217TIP3   OH279141   3.799   3.548   4.596 -0.4243 -0.1249 -0.1645
19217TIP3    H179142   3.831   3.505   4.676 -0.2995 -1.8508 -1.0893
19217TIP3    H279143   3.875   3.593   4.561 -0.2444 -0.1345  0.2062
19218TIP3   OH279144   2.813   1.224  11.809  0.3995 -0.4997 -0.4720
19218TIP3    H179145   2.810   1.319  11.825  0.3244 -0.3400 -1.4047
19218TIP3    H279146   2.724   1.201  11.784  0.6277 -0.6525 -1.1472
19219TIP3   OH279147   3.771   3.498   5.771 -0.0157 -0.1197 -0.3797
19219TIP3    H179148   3.819   3.501   5.688 -0.9968  0.3654 -0.9529
19219TIP3    H279149   3.679   3.489   5.745 -0.1317 -3.8447  0.6804
19220TIP3   OH279150   5.093   2.736   0.752  0.4643  0.0470  0.2910
19220TIP3    H179151   5.131   2.659   0.794 -2.1745 -1.0191  0.9282
19220TIP3    H279152   5.100   2.805   0.818 -0.3978 -0.6550  1.1452
19221TIP3   OH279153   5.557   1.950   4.028 -0.1471  0.1136  0.3197
19221TIP3    H179154   5.627   1.893   4.061 -1.5233 -1.1622  1.1559
19221TIP3    H279155   5.603   2.024   3.990  1.6304  0.3514  2.7069
19222TIP3   OH279156   0.564   5.416  10.892 -0.1606 -0.2038 -0.2143
19222TIP3    H179157   0.471   5.394  10.894 -0.7764  1.9603 -1.4144
19222TIP3    H279158   0.609   5.332  10.887 -1.9700 -1.3551  1.3577
19223TIP3   OH279159   0.768   2.467  15.669 -0.5432  0.3590  0.6613
19223TIP3    H179160   0.857   2.499  15.685  0.6333 -1.1571 -2.0992
19223TIP3    H279161   0.755   2.399  15.735  0.4288  0.4287  0.9454
19224TIP3   OH279162   2.317   6.193  16.487  0.0664  0.0059  0.6443
19224TIP3    H179163   2.266   6.273  16.504 -2.0913 -1.6001  2.1666
19224TIP3    H279164   2.297   6.172  16.396 -0.1681  0.6206  0.5453
19225TIP3   OH279165   0.736   4.007  11.820  0.2165 -0.4710  0.1952
19225TIP3    H179166   0.699   3.918  11.820 -0.0779 -0.3489  0.4401
19225TIP3    H279167   0.758   4.023  11.911  0.0603 -0.2027  0.1850
19226TIP3   OH279168   4.367   2.421  12.494 -0.0124 -0.6654  0.2892
19226TIP3    H179169   4.358   2.344  12.550  2.6380 -0.1232  1.6431
19226TIP3    H279170   4.413   2.389  12.416 -1.7102 -0.9845 -0.6339
19227TIP3   OH279171   3.048   4.230   5.965  0.0363 -1.0454  0.2078
19227TIP3    H179172   3.043   4.137   5.945 -1.1803 -1.0269  0.3552
19227TIP3    H279173   3.047   4.234   6.061 -1.6308 -0.8346  0.2108
19228TIP3   OH279174   4.327   4.398   3.803  0.5141  0.3581 -0.1259
19228TIP3    H179175   4.398   4.346   3.840 -0.9497 -2.1553 -0.6814
19228TIP3    H279176   4.264   4.334   3.770 -1.9359  2.4758  0.1348
19229TIP3   OH279177   6.716   5.666  13.390 -0.1379 -0.2125  0.2907
19229TIP3    H179178   6.763   5.687  13.310  0.0073  2.1828  0.9511
19229TIP3    H279179   6.779   5.681  13.460 -0.2624 -2.2526  0.9127
19230TIP3   OH279180   5.070   4.043   1.493  0.2080 -0.0109  0.3601
19230TIP3    H179181   5.099   4.104   1.560  1.6935 -0.3402  0.0514
19230TIP3    H279182   5.149   4.023   1.443 -0.5880 -0.8751 -0.6008
19231TIP3   OH279183   3.024   0.452   1.593 -0.5889  0.1138  0.3565
19231TIP3    H179184   3.101   0.426   1.645  0.0074 -0.0453 -0.5940
19231TIP3    H279185   3.056   0.521   1.535 -1.0569 -0.2561 -0.3485
19232TIP3   OH279186   5.237   3.936   5.858  0.3374 -0.1091 -0.0779
19232TIP3    H179187   5.173   3.870   5.830  0.7198 -0.8721  0.7788
19232TIP3    H279188   5.294   3.889   5.919  1.5201  0.6349 -0.5767
19233TIP3   OH279189   5.522   2.513   4.750 -0.7533 -0.0004  0.3380
19233TIP3    H179190   5.525   2.558   4.835 -0.4650  0.2346  0.2002
19233TIP3    H279191   5.457   2.443   4.763  0.2561 -0.8244  1.1773
19234TIP3   OH279192   4.754   3.727  13.643 -0.1535  0.0282  0.1385
19234TIP3    H179193   4.818   3.791  13.673  0.1784 -0.9009  1.4939
19234TIP3    H279194   4.807   3.656  13.607 -0.3181 -1.1609  2.0982
19235TIP3   OH279195   5.601   5.576  17.059 -0.0681 -0.1185 -0.1500
19235TIP3    H179196   5.537   5.645  17.044 -0.6830 -0.5494  0.4171
19235TIP3    H279197   5.645   5.601  17.140 -2.4917 -1.9449  1.8649
19236TIP3   OH279198   1.050   3.711   5.388  0.0798  0.5804  0.0778
19236TIP3    H179199   0.990   3.761   5.332  1.6743 -0.4441 -2.7145
19236TIP3    H279200   1.137   3.747   5.368  0.6819  0.6963  2.5669
19237TIP3   OH279201   1.263   5.581   3.767 -0.0458 -0.0522 -0.4403
19237TIP3    H179202   1.181   5.626   3.746 -0.9400 -1.4725 -0.1439
19237TIP3    H279203   1.331   5.630   3.720 -0.9002  1.7946  0.1470
19238TIP3   OH279204   2.940   2.605  12.290 -0.4992 -0.1486 -0.2802
19238TIP3    H179205   2.863   2.549  12.289  0.0715 -0.9762  0.3179
19238TIP3    H279206   3.000   2.562  12.351 -0.4027  1.6209  0.9492
19239TIP3   OH279207   2.494   1.078   4.348  0.4688 -0.0966 -0.6170
19239TIP3    H179208   2.412   1.054   4.303 -0.0020  0.0322  0.1520
19239TIP3    H279209   2.563   1.043   4.292 -0.1358 -0.8261 -0.9251
19240TIP3   OH279210   2.985   3.382  15.140 -0.5203 -0.3042  0.0105
19240TIP3    H179211   3.074   3.362  15.109 -0.2921  1.5690 -0.7231
19240TIP3    H279212   2.929   3.321  15.092  0.3361 -1.3260  0.2695
19241TIP3   OH279213   4.794   4.136  12.875  0.7532  0.3097 -0.4747
19241TIP3    H179214   4.726   4.073  12.851  0.3869  1.2244 -1.9867
19241TIP3    H279215   4.818   4.112  12.965 -1.5367 -0.0836  0.1220
19242TIP3   OH279216   3.090   0.640  13.861 -0.6180  0.7148  0.7318
19242TIP3    H179217   3.162   0.645  13.798 -2.7503  0.0220 -1.9303
19242TIP3    H279218   3.051   0.728  13.860 -1.3818  0.3725  0.1650
19243TIP3   OH279219   2.212   3.149  14.446  0.1089  0.2292  0.3421
19243TIP3    H179220   2.158   3.074  14.471  1.3202 -0.9363 -0.3946
19243TIP3    H279221   2.237   3.131  14.355  2.5917  0.1762  0.9882
19244TIP3   OH279222   6.166   5.949   5.689  0.4956 -0.1027  0.9977
19244TIP3    H179223   6.236   5.884   5.702  0.4092 -0.3043  0.4494
19244TIP3    H279224   6.141   5.974   5.778  0.8741 -0.4512  1.2070
19245TIP3   OH279225   1.294   4.327   4.070 -0.4289  0.3990  0.7270
19245TIP3    H179226   1.332   4.334   3.983  0.5845  0.4066  1.1609
19245TIP3    H279227   1.206   4.364   4.061 -0.4777  0.0238 -0.3760
19246TIP3   OH279228   0.570   0.803  17.039 -0.1578 -0.1232  0.6292
19246TIP3    H179229   0.627   0.727  17.055 -0.2826 -0.4164 -0.2351
19246TIP3    H279230   0.610   0.848  16.965 -0.2901  0.4581  0.9050
19247TIP3   OH279231   0.972   1.729   2.777 -0.2922  0.0573  0.5528
19247TIP3    H179232   0.968   1.823   2.796  0.2817  0.4116 -0.9020
19247TIP3    H279233   1.051   1.719   2.724 -0.3797 -1.2444  0.6436
19248TIP3   OH279234   5.903   1.466   4.670 -0.1092  0.3971  0.1910
19248TIP3    H179235   5.867   1.443   4.756 -0.7142 -0.9612 -0.3942
19248TIP3    H279236   5.877   1.393   4.613 -0.0781  1.4674 -1.2427
19249TIP3   OH279237   4.278   6.719   3.484  0.5716  0.2121 -0.1502
19249TIP3    H179238   4.370   6.738   3.470  0.5273  1.1074  0.6396
19249TIP3    H279239   4.266   6.728   3.579 -0.2495 -0.2352 -0.2025
19250TIP3   OH279240   5.702   0.177   3.990  0.0724 -0.1490  0.4495
19250TIP3    H179241   5.639   0.117   4.031 -0.5365 -2.4448 -3.2821
19250TIP3    H279242   5.650   0.254   3.967 -0.2234 -0.0533  1.3855
19251TIP3   OH279243   2.947   5.216   3.980 -0.1349 -0.8490  0.1849
19251TIP3    H179244   2.935   5.306   3.949  1.2151 -1.1930 -1.5051
19251TIP3    H279245   2.974   5.167   3.902  3.4992 -1.8336  1.8684
19252TIP3   OH279246   1.897   0.411   3.898  0.0511 -0.1761 -0.4085
19252TIP3    H179247   1.958   0.394   3.826  0.5054 -2.1143  0.3841
19252TIP3    H279248   1.889   0.327   3.943 -1.7369  0.5179  0.6567
19253TIP3   OH279249   1.907   1.576   0.446 -0.4715 -0.2175 -0.1142
19253TIP3    H179250   1.995   1.602   0.418 -0.4248  1.4778  1.3650
19253TIP3    H279251   1.897   1.486   0.416  1.2708 -0.0150 -1.4249
19254TIP3   OH279252   1.416   6.749   5.876 -0.4752  0.1692  0.2723
19254TIP3    H179253   1.374   6.754   5.789 -2.3477 -0.2990  1.1029
19254TIP3    H279254   1.354   6.700   5.929  1.0680 -0.3237  1.6654
19255TIP3   OH279255   5.489   2.219   3.625  0.3331 -0.2314 -0.0718
19255TIP3    H179256   5.494   2.148   3.561 -1.9433 -0.4404 -0.0852
19255TIP3    H279257   5.468   2.296   3.574 -4.8094 -0.9283  0.4713
19256TIP3   OH279258   5.502   4.448   4.338 -0.1774  0.3986  0.1846
19256TIP3    H179259   5.475   4.518   4.398 -0.1751  0.5789 -0.0240
19256TIP3    H279260   5.440   4.453   4.266 -1.3959 -1.0598  1.0560
19257TIP3   OH279261   4.087   5.126  12.034 -0.1277  0.0716 -0.0114
19257TIP3    H179262   4.114   5.066  12.104 -0.3202  0.0996  0.0886
19257TIP3    H279263   4.126   5.090  11.955  0.6584  0.4133  0.2108
19258TIP3   OH279264   0.123   2.742   4.844 -0.2816 -0.0632  0.0998
19258TIP3    H179265   0.183   2.785   4.784 -1.9620  1.0410 -0.8608
19258TIP3    H279266   0.068   2.813   4.878 -1.0324 -1.0255  0.9562
19259TIP3   OH279267   6.762   1.564   1.726  0.5746  0.0369 -0.1589
19259TIP3    H179268   6.734   1.475   1.705 -0.6132  0.1859  0.6577
19259TIP3    H279269   6.727   1.618   1.656 -2.1281  0.3434  1.2857
19260TIP3   OH279270   5.879   6.462  13.854 -0.0179  0.2985 -0.0717
19260TIP3    H179271   5.818   6.451  13.926 -0.9255  0.6753 -0.7539
19260TIP3    H279272   5.840   6.414  13.781  0.6778  0.2496 -0.4284
19261TIP3   OH279273   1.539   6.420   1.819 -0.0120  0.3584 -0.2439
19261TIP3    H179274   1.469   6.469   1.861  2.4216  2.9598  1.1407
19261TIP3    H279275   1.534   6.332   1.858 -1.4660  0.9532  1.0148
19262TIP3   OH279276   2.667   5.294   3.365  0.7184  0.4311  0.1578
19262TIP3    H179277   2.638   5.217   3.415  1.3705 -0.1260 -0.3088
19262TIP3    H279278   2.595   5.311   3.304  1.5396 -1.2749 -1.3724
19263TIP3   OH279279   5.068   3.738   4.704  0.2264  0.0097 -0.2042
19263TIP3    H179280   5.025   3.778   4.628  0.9049  0.1398 -0.5270
19263TIP3    H279281   5.009   3.667   4.731 -0.8937  1.0690  0.2423
19264TIP3   OH279282   4.088   5.623   4.656 -0.4676 -0.3665 -0.1721
19264TIP3    H179283   4.019   5.669   4.703 -1.5627 -1.3563 -0.7567
19264TIP3    H279284   4.157   5.609   4.722 -0.5054  1.2474  0.2375
19265TIP3   OH279285   0.654   4.299   5.057  0.5919 -0.3283 -0.6286
19265TIP3    H179286   0.739   4.255   5.054  0.5246 -0.5040 -0.1545
19265TIP3    H279287   0.590   4.229   5.069  0.5149 -0.0924  0.4709
19266TIP3   OH279288   6.445   4.203  13.345 -0.3920 -0.2364 -0.1265
19266TIP3    H179289   6.495   4.123  13.329 -0.9967 -1.0218  1.5990
19266TIP3    H279290   6.391   4.214  13.267  1.1277 -0.3569 -1.2528
19267TIP3   OH279291   4.580   2.068   4.892 -0.0107 -0.5752  0.6575
19267TIP3    H179292   4.610   2.129   4.960 -1.3057 -0.4793  1.1742
19267TIP3    H279293   4.582   2.118   4.811 -0.5506 -0.0108  0.9919
19268TIP3   OH279294   6.558   2.704   2.017  0.0335  0.4255  0.3192
19268TIP3    H179295   6.622   2.765   2.054 -1.8174  1.9205  1.2819
19268TIP3    H279296   6.599   2.618   2.025  2.1131  1.3613  0.3612
19269TIP3   OH279297   1.857   6.257   1.900 -0.4176  0.1333 -0.2620
19269TIP3    H179298   1.908   6.177   1.907 -0.8154 -0.2014 -1.0893
19269TIP3    H279299   1.837   6.265   1.807 -0.2214  1.3010 -0.2182
19270TIP3   OH279300   1.689   0.211  11.307  0.2404  0.2621 -0.6458
19270TIP3    H179301   1.621   0.166  11.257  0.2716 -0.2648 -0.2216
19270TIP3    H279302   1.703   0.294  11.260  0.7876 -0.5272 -1.9182
19271TIP3   OH279303   2.184   2.503  12.461  0.6954 -0.3318  0.2243
19271TIP3    H179304   2.124   2.537  12.528 -0.4108  0.9444 -1.3212
19271TIP3    H279305   2.171   2.408  12.463  1.0729 -0.3815  2.1360
19272TIP3   OH279306   3.602   2.829  15.455 -0.4414 -0.8219  0.5407
19272TIP3    H179307   3.677   2.883  15.432 -0.5873 -0.4896  0.8274
19272TIP3    H279308   3.533   2.893  15.477 -0.1838 -1.0977  2.3107
19273TIP3   OH279309   5.537   2.962  14.283  0.3286  0.6702 -0.1303
19273TIP3    H179310   5.588   2.946  14.204 -1.0499  0.4681 -1.0100
19273TIP3    H279311   5.560   2.890  14.342  0.5560  0.2182 -0.7644
19274TIP3   OH279312   3.738   6.729  13.054  0.2762 -0.4084 -0.2514
19274TIP3    H179313   3.747   6.760  12.964 -3.1256  0.2874 -0.4709
19274TIP3    H279314   3.724   6.808  13.106 -2.4784 -1.0288  0.0967
19275TIP3   OH279315   4.976   4.412  10.947 -0.0667  0.5254  0.2455
19275TIP3    H179316   4.932   4.467  10.882 -0.3950  0.0827  0.0856
19275TIP3    H279317   5.056   4.382  10.903  0.0723  0.8081  0.3044
19276TIP3   OH279318   4.532   0.850   2.046 -0.5591  0.1982  0.3509
19276TIP3    H179319   4.526   0.778   1.982 -0.2179 -0.6651  1.2684
19276TIP3    H279320   4.444   0.888   2.047 -0.4426  0.5853 -1.0156
19277TIP3   OH279321   5.741   2.781   1.017  0.0134  0.3661 -0.7720
19277TIP3    H179322   5.786   2.716   1.072 -1.5919 -0.9550 -0.9371
19277TIP3    H279323   5.657   2.740   0.996 -1.2493  2.6820 -0.5463
19278TIP3   OH279324   4.320   4.891   4.244  0.6635 -0.4985  0.9162
19278TIP3    H179325   4.374   4.820   4.278  1.2662 -0.1515  0.6964
19278TIP3    H279326   4.297   4.864   4.155 -1.5785 -1.7827  1.7861
19279TIP3   OH279327   4.583   6.208  10.763  0.0451 -0.3286  0.6410
19279TIP3    H179328   4.515   6.270  10.735 -0.6248 -0.7533  1.2727
19279TIP3    H279329   4.536   6.126  10.774  1.2571 -1.5595 -2.2394
19280TIP3   OH279330   4.679   0.176   5.788  0.1177  0.1627 -0.3343
19280TIP3    H179331   4.629   0.098   5.765 -0.4350  0.3012  0.3467
19280TIP3    H279332   4.738   0.148   5.857  0.7873  0.0716 -0.9326
19281TIP3   OH279333   6.325   4.641  14.843 -0.3478  0.3394 -0.1461
19281TIP3    H179334   6.233   4.663  14.826 -1.5797 -2.9402  1.3393
19281TIP3    H279335   6.328   4.545  14.835  2.9006  0.3154  0.1511
19282TIP3   OH279336   3.423   4.202  14.184  0.0504  0.1899 -0.4036
19282TIP3    H179337   3.381   4.281  14.150  1.3076  0.9796 -0.2086
19282TIP3    H279338   3.362   4.131  14.163 -2.3527  1.4669  1.6663
19283TIP3   OH279339   0.548   6.109   2.986 -0.3142  0.1859 -0.2851
19283TIP3    H179340   0.542   6.202   2.963 -0.9871 -0.0141 -0.9551
19283TIP3    H279341   0.615   6.106   3.055  2.2332  0.7302 -2.5501
19284TIP3   OH279342   2.324   2.079  13.865 -0.1067  0.1306 -0.1286
19284TIP3    H179343   2.296   1.990  13.846 -0.3300 -0.1745  1.5008
19284TIP3    H279344   2.418   2.079  13.848 -0.3775  0.0472 -1.7117
19285TIP3   OH279345   6.189   0.149  11.528 -0.3258  0.9171 -0.2621
19285TIP3    H179346   6.256   0.103  11.579  0.3660 -0.8719 -2.6084
19285TIP3    H279347   6.106   0.115  11.561  0.1504 -3.3993 -2.7899
19286TIP3   OH279348   6.048   1.807   3.938 -0.1572 -0.3770 -0.1230
19286TIP3    H179349   6.122   1.747   3.931  1.2929  1.3978 -0.8743
19286TIP3    H279350   6.088   1.890   3.963 -2.2440 -0.0061  2.2621
19287TIP3   OH279351   0.333   5.373   1.861 -0.6197 -0.0166 -0.1908
19287TIP3    H179352   0.345   5.284   1.892 -0.3480  0.0780 -0.0171
19287TIP3    H279353   0.279   5.365   1.782  1.3138 -0.5687 -1.5602
19288TIP3   OH279354   4.738   6.536  12.392  0.1604  0.0023  0.0597
19288TIP3    H179355   4.663   6.580  12.431  0.7477  1.0468  0.0394
19288TIP3    H279356   4.708   6.447  12.376 -0.7341  0.1177  1.0197
19289TIP3   OH279357   2.568   1.189   0.565 -0.0057 -0.3916  0.0107
19289TIP3    H179358   2.562   1.225   0.653 -1.1212  0.7490 -0.5025
19289TIP3    H279359   2.499   1.233   0.516  0.0492 -1.6104 -1.2336
19290TIP3   OH279360   2.099   0.544   2.422 -0.2590  0.3702  0.1327
19290TIP3    H179361   2.121   0.628   2.381  0.1149  0.3682  0.3230
19290TIP3    H279362   2.004   0.538   2.416 -0.1204 -0.3815 -2.2006
19291TIP3   OH279363   4.020   4.252  12.367  0.4675 -0.0125 -0.0915
19291TIP3    H179364   3.945   4.244  12.309  0.1697 -0.7296  0.3850
19291TIP3    H279365   4.092   4.281  12.311  0.3431 -1.2874 -0.9394
19292TIP3   OH279366   2.007   2.055  16.643  0.6545 -0.1061 -0.3399
19292TIP3    H179367   2.062   2.131  16.661  0.6927 -0.3186  0.4807
19292TIP3    H279368   1.998   2.053  16.548  2.3315 -0.2515 -0.5111
19293TIP3   OH279369   6.026   4.105   5.511 -0.1078 -0.7092 -0.4236
19293TIP3    H179370   6.053   4.071   5.426 -0.0113 -0.4846 -0.4832
19293TIP3    H279371   5.952   4.162   5.491  1.2640  1.0741 -0.6264
19294TIP3   OH279372   3.734   1.687  16.897 -0.1792  0.3605  0.3530
19294TIP3    H179373   3.725   1.656  16.987  2.5019  1.2384  1.0097
19294TIP3    H279374   3.777   1.772  16.905 -2.2920  1.7289 -1.6658
19295TIP3   OH279375   5.336   5.155   2.533  0.7167  0.4406  0.3564
19295TIP3    H179376   5.295   5.240   2.525 -0.2417 -0.0552 -0.1756
19295TIP3    H279377   5.278   5.104   2.590  1.8580  0.4705  1.6216
19296TIP3   OH279378   0.219   0.736  16.794 -0.2552 -0.3734 -0.6479
19296TIP3    H179379   0.252   0.789  16.867 -1.4051  0.5294 -0.7589
19296TIP3    H279380   0.291   0.676  16.774  0.2524 -0.3314  0.9203
19297TIP3   OH279381   5.159   0.993   2.291 -0.2559  0.0890 -0.0618
19297TIP3    H179382   5.132   1.052   2.220 -0.4296 -0.8968 -0.8353
19297TIP3    H279383   5.138   0.905   2.258  2.4752 -0.6406 -0.0734
19298TIP3   OH279384   2.115   5.880   3.063  0.2029 -0.3371  0.6221
19298TIP3    H179385   2.143   5.972   3.065 -0.9165  0.0790 -1.0024
19298TIP3    H279386   2.035   5.880   3.011 -1.7220 -1.7890  3.3188
19299TIP3   OH279387   6.314   1.371   1.222  0.6802 -0.0603 -0.2214
19299TIP3    H179388   6.328   1.419   1.140 -0.3882 -1.4263 -1.2620
19299TIP3    H279389   6.239   1.415   1.263 -0.5660 -1.0017 -1.3775
19300TIP3   OH279390   0.762   0.400  16.718  0.1051 -0.7013 -0.0603
19300TIP3    H179391   0.784   0.309  16.697 -0.5483 -1.2496  1.4792
19300TIP3    H279392   0.820   0.423  16.790 -0.0857 -0.0609 -0.1029
19301TIP3   OH279393   2.094   5.688   3.252  0.4455 -0.0541  0.3758
19301TIP3    H179394   2.122   5.721   3.337  1.5448  0.5999 -0.2155
19301TIP3    H279395   2.139   5.744   3.189  1.1998 -1.7340 -0.6520
19302TIP3   OH279396   5.603   3.846   5.488  0.0825 -0.0781  0.0984
19302TIP3    H179397   5.688   3.852   5.445 -0.4923  0.0075 -1.0750
19302TIP3    H279398   5.622   3.861   5.581  1.2950  0.2682 -0.1826
19303TIP3   OH279399   1.752   1.974   4.447 -0.2868 -0.3496 -0.2233
19303TIP3    H179400   1.692   1.910   4.485 -0.8747  0.6022  0.4971
19303TIP3    H279401   1.774   2.033   4.519  1.6398 -0.7296 -0.4442
19304TIP3   OH279402   3.342   6.348  12.028 -0.2464  0.2056 -0.2772
19304TIP3    H179403   3.320   6.350  12.121  1.2971  0.7970  0.1214
19304TIP3    H279404   3.258   6.353  11.982 -0.9762  1.2137  1.0980
19305TIP3   OH279405   2.932   1.889   5.444  0.3014  0.2096 -0.0694
19305TIP3    H179406   3.015   1.936   5.449 -0.4280  1.4783  1.1559
19305TIP3    H279407   2.956   1.797   5.440  1.7591  0.5481  0.3672
19306TIP3   OH279408   2.733   5.600   0.842 -0.0600 -0.2145  0.4645
19306TIP3    H179409   2.725   5.633   0.752 -1.2823 -1.7050 -0.0416
19306TIP3    H279410   2.718   5.505   0.833  0.1613 -0.4414  2.2015
19307TIP3   OH279411   4.704   2.005  14.508 -0.0888  0.5971 -0.0142
19307TIP3    H179412   4.784   2.022  14.458 -0.9777 -0.3207 -1.8674
19307TIP3    H279413   4.636   2.054  14.462 -0.4292  2.4836  2.3380
19308TIP3   OH279414   0.875   3.565  11.358 -0.1083 -0.5570 -0.0472
19308TIP3    H179415   0.962   3.583  11.392 -0.2689 -0.2643  0.2152
19308TIP3    H279416   0.882   3.582  11.264  0.3808 -1.5355 -0.1994
19309TIP3   OH279417   1.442   0.762   5.526  0.2140 -0.2276  0.0198
19309TIP3    H179418   1.416   0.670   5.532  0.0374 -0.1031  1.8572
19309TIP3    H279419   1.490   0.778   5.608  0.4253  1.2595 -0.3672
19310TIP3   OH279420   4.409   0.237   3.603 -0.2516 -0.1917  0.1004
19310TIP3    H179421   4.383   0.327   3.623 -0.5015 -0.4037  0.7300
19310TIP3    H279422   4.445   0.243   3.514  1.9087  0.9693  0.9673
19311TIP3   OH279423   6.178   0.147  15.409 -0.1374  0.2825  0.0054
19311TIP3    H179424   6.107   0.208  15.432  0.0335  0.3182  0.4494
19311TIP3    H279425   6.239   0.200  15.356 -0.3155  0.3188 -0.1650
19312TIP3   OH279426   5.092   1.989   6.422  0.4799  0.4915  0.4241
19312TIP3    H179427   5.064   2.079   6.406 -0.7684  0.2115  0.9206
19312TIP3    H279428   5.028   1.935   6.376  1.3613 -0.1649 -0.0841
19313TIP3   OH279429   4.320   2.416   3.828 -0.0468  0.3093  0.5241
19313TIP3    H179430   4.266   2.394   3.904 -0.1117 -1.5809 -0.0077
19313TIP3    H279431   4.297   2.506   3.807 -2.4411 -0.1761  0.7733
19314TIP3   OH279432   0.775   4.785   5.132  0.6388 -0.1447  0.0059
19314TIP3    H179433   0.759   4.693   5.113 -0.8544  0.2007 -0.5293
19314TIP3    H279434   0.804   4.823   5.049  0.2812  0.0776 -0.0170
19315TIP3   OH279435   4.631   5.530  11.282 -0.0901  0.1133 -0.1733
19315TIP3    H179436   4.638   5.597  11.349 -0.1467 -0.3381  0.2860
19315TIP3    H279437   4.710   5.477  11.293  0.2329  0.4308 -0.8932
19316TIP3   OH279438   1.907   3.143  16.372  0.1366 -0.3423 -0.1621
19316TIP3    H179439   1.861   3.221  16.341 -1.6784 -0.8859  1.0253
19316TIP3    H279440   1.979   3.178  16.426 -1.1783  0.5515  1.0992
19317TIP3   OH279441   2.770   6.356  14.349 -0.0375  0.3852 -0.2971
19317TIP3    H179442   2.698   6.382  14.292 -0.4988  0.1582  0.1742
19317TIP3    H279443   2.727   6.326  14.429  0.5154 -0.8160 -0.4302
19318TIP3   OH279444   4.443   6.484   0.455 -0.4487 -0.2729  0.2585
19318TIP3    H179445   4.403   6.506   0.371  1.1251  1.9755  0.0113
19318TIP3    H279446   4.370   6.453   0.509 -1.9741  0.7551 -1.1053
19319TIP3   OH279447   3.113   3.630  15.590 -0.3026  0.6605  0.3070
19319TIP3    H179448   3.058   3.652  15.515 -2.9039  0.6522  2.0556
19319TIP3    H279449   3.129   3.536  15.581  0.1479  0.8168 -0.6467
19320TIP3   OH279450   0.695   2.924  13.799  0.2759 -0.0515  0.1574
19320TIP3    H179451   0.784   2.895  13.822  0.6065  0.0787 -0.8929
19320TIP3    H279452   0.705   3.017  13.780 -0.3763  0.2949  1.4440
19321TIP3   OH279453   6.659   4.128   2.654 -0.6220  0.2533  0.1681
19321TIP3    H179454   6.755   4.126   2.650 -0.6304  1.1107 -1.3419
19321TIP3    H279455   6.639   4.133   2.747  0.8504  1.3148  0.4645
19322TIP3   OH279456   2.802   2.591  10.773  0.0693  0.8091  0.3512
19322TIP3    H179457   2.769   2.674  10.740 -0.5187  0.3206 -0.3186
19322TIP3    H279458   2.737   2.563  10.836 -1.2108 -0.4591 -1.4226
19323TIP3   OH279459   6.137   5.472   0.215  0.1596 -0.1012 -0.1533
19323TIP3    H179460   6.126   5.377   0.225 -0.8715 -0.2990 -2.3962
19323TIP3    H279461   6.053   5.508   0.242 -0.4213 -0.1112 -1.8410
19324TIP3   OH279462   3.616   4.509   1.071 -0.4364 -0.3619 -0.4359
19324TIP3    H179463   3.574   4.430   1.037  0.0310 -1.0543  0.5509
19324TIP3    H279464   3.680   4.533   1.005 -2.8203  1.1575 -2.3572
19325TIP3   OH279465   2.407   1.721   0.292  0.5687  0.4535 -0.4784
19325TIP3    H179466   2.402   1.717   0.197  1.5042 -1.5380 -0.4925
19325TIP3    H279467   2.487   1.771   0.310  0.2698  1.0244 -0.7204
19326TIP3   OH279468   6.810   6.834   0.432  0.6040 -0.6441  0.2988
19326TIP3    H179469   6.775   6.754   0.472 -1.9514  0.7996  1.2005
19326TIP3    H279470   6.904   6.816   0.421  0.8568 -2.4565  3.8294
19327TIP3   OH279471   4.664   5.127   6.625  0.1872  0.4599 -0.4000
19327TIP3    H179472   4.695   5.037   6.625 -0.5685  0.1964 -1.0734
19327TIP3    H279473   4.729   5.175   6.573 -0.1511  0.0505 -1.1975
19328TIP3   OH279474   3.412   4.302   0.226  0.0043 -0.1866  0.0198
19328TIP3    H179475   3.344   4.369   0.234 -0.9014 -0.7781 -2.0920
19328TIP3    H279476   3.490   4.343   0.263 -1.4543  0.4771  2.6419
19329TIP3   OH279477   3.666   2.739   2.360  0.0854 -0.4470 -0.1770
19329TIP3    H179478   3.757   2.759   2.336 -0.5955  0.9200 -1.7738
19329TIP3    H279479   3.618   2.743   2.278 -1.5864 -0.2287  0.7817
19330TIP3   OH279480   5.534   4.601   1.014 -0.0780 -0.1474 -0.3412
19330TIP3    H179481   5.545   4.529   1.076 -1.5104  0.2564  0.4058
19330TIP3    H279482   5.463   4.573   0.957 -2.2538  1.5621  1.3676
19331TIP3   OH279483   6.040   5.858   5.396  0.4146 -0.1014  1.0681
19331TIP3    H179484   6.051   5.950   5.371  0.3383 -0.6880 -1.3786
19331TIP3    H279485   6.096   5.848   5.473  1.3925  1.6925  0.6584
19332TIP3   OH279486   6.715   2.887  16.824 -0.3486  0.2898 -0.0442
19332TIP3    H179487   6.770   2.915  16.752  0.3923 -1.5207 -0.2449
19332TIP3    H279488   6.759   2.809  16.859 -2.0191 -0.3724  0.7090
19333TIP3   OH279489   2.353   0.552   2.228  0.2317 -0.1200 -0.4768
19333TIP3    H179490   2.410   0.612   2.181 -1.9347  2.5398  0.0032
19333TIP3    H279491   2.283   0.608   2.262  0.1425 -2.2737  3.4907
19334TIP3   OH279492   0.563   6.366   4.274 -0.0665 -0.7986 -0.0630
19334TIP3    H179493   0.551   6.337   4.184 -0.4404 -2.1370  0.4011
19334TIP3    H279494   0.650   6.335   4.299 -0.9463 -2.6843  0.8308
19335TIP3   OH279495   3.822   3.028   3.110 -0.8401  0.1693  0.0945
19335TIP3    H179496   3.898   3.039   3.167 -0.6211 -1.5151  0.1786
19335TIP3    H279497   3.824   2.936   3.084 -3.2125 -0.1117  0.6371
19336TIP3   OH279498   6.093   5.250   0.368  0.0500 -0.5063  0.4345
19336TIP3    H179499   6.119   5.164   0.399 -0.3123 -1.0927 -0.8393
19336TIP3    H279500   6.145   5.311   0.421  1.1041 -1.5261  0.6151
19337TIP3   OH279501   5.282   3.503  10.459 -0.2323  0.6794  0.1831
19337TIP3    H179502   5.320   3.577  10.411  0.7314 -0.3991 -0.7910
19337TIP3    H279503   5.188   3.506  10.438 -0.1652  1.5094 -0.0073
19338TIP3   OH279504   4.653   3.173  10.918  0.7838  0.1106  0.3776
19338TIP3    H179505   4.680   3.262  10.894  0.1807  0.9045  2.4475
19338TIP3    H279506   4.558   3.178  10.928  0.2968 -1.5423 -2.2889
19339TIP3   OH279507   2.146   2.742   2.032 -0.3574 -0.3957 -0.4170
19339TIP3    H179508   2.084   2.812   2.015  0.5675  0.5566  0.0448
19339TIP3    H279509   2.101   2.685   2.095 -0.9647 -0.0115 -0.4922
19340TIP3   OH279510   1.875   3.665  11.787  0.0971  0.5730 -0.0597
19340TIP3    H179511   1.876   3.747  11.738 -0.0799 -1.3430 -3.5693
19340TIP3    H279512   1.807   3.613  11.745  1.7739 -2.2514  0.4621
19341TIP3   OH279513   1.823   2.572  12.211  0.4408  0.1383 -0.2841
19341TIP3    H179514   1.817   2.647  12.269 -1.0901  0.8579 -1.2977
19341TIP3    H279515   1.883   2.599  12.141  0.8346 -0.0396 -0.0174
19342TIP3   OH279516   3.480   2.090  13.441 -0.1737  0.0877 -0.9891
19342TIP3    H179517   3.547   2.066  13.377  0.7488 -0.0974  0.0220
19342TIP3    H279518   3.513   2.169  13.482  0.0841 -0.7402  0.4518
19343TIP3   OH279519   5.906   2.058  16.211  0.9926  0.2148  0.1392
19343TIP3    H179520   5.939   1.971  16.185  1.1526 -0.4050  2.2567
19343TIP3    H279521   5.816   2.059  16.178  0.9878 -0.7604  0.0694
19344TIP3   OH279522   5.260   2.318  16.059  0.3291 -0.3676  0.2525
19344TIP3    H179523   5.203   2.254  16.102 -1.5082  1.0626  0.0872
19344TIP3    H279524   5.285   2.378  16.129 -0.1106  0.1843 -0.0496
19345TIP3   OH279525   2.950   0.839  16.288 -0.7623  0.3359  0.0796
19345TIP3    H179526   3.010   0.857  16.361 -0.8543  1.3781 -0.0903
19345TIP3    H279527   2.939   0.744  16.290  1.9483 -0.0951 -0.6972
19346TIP3   OH279528   2.182   4.946   3.916 -0.4512  0.0599 -0.1454
19346TIP3    H179529   2.235   4.883   3.867  1.0160  0.7689  0.4638
19346TIP3    H279530   2.112   4.893   3.954  0.4354 -1.1277 -0.0720
19347TIP3   OH279531   4.334   0.710   2.713 -0.0824  0.1396 -0.3661
19347TIP3    H179532   4.292   0.660   2.783 -0.2589 -0.2180 -0.7207
19347TIP3    H279533   4.423   0.726   2.744 -0.2078  0.1166  0.0065
19348TIP3   OH279534   0.124   1.344  12.160  0.2878 -0.2613 -0.6203
19348TIP3    H179535   0.108   1.313  12.071  0.5180 -1.3455 -0.3008
19348TIP3    H279536   0.082   1.278  12.216  1.2895 -0.3005  0.1039
19349TIP3   OH279537   2.149   5.853   1.676  0.6366  0.5608 -0.2960
19349TIP3    H179538   2.087   5.783   1.656  0.1142  1.2844 -1.2727
19349TIP3    H279539   2.231   5.807   1.694  0.0117 -0.3623  0.2536
19350TIP3   OH279540   3.321   1.024   1.396  0.1558 -0.1848  0.3340
19350TIP3    H179541   3.285   0.950   1.347 -1.3821  1.3926 -1.0596
19350TIP3    H279542   3.311   0.998   1.488 -1.3710 -1.2855 -0.0873
19351TIP3   OH279543   0.266   4.659   3.078 -0.1186  0.0970  0.0770
19351TIP3    H179544   0.353   4.667   3.115 -0.1022  0.9953 -0.1240
19351TIP3    H279545   0.207   4.689   3.147 -0.1880  0.4781 -0.1458
19352TIP3   OH279546   6.535   6.535  14.171 -0.1065 -0.2787 -0.2392
19352TIP3    H179547   6.509   6.574  14.087 -3.4217 -2.0665 -0.2127
19352TIP3    H279548   6.482   6.581  14.236  0.5941 -0.6120  0.5866
19353TIP3   OH279549   0.700   6.759   3.870 -0.4823  0.4563 -0.3017
19353TIP3    H179550   0.691   6.854   3.860 -0.8072  0.3584 -1.0005
19353TIP3    H279551   0.793   6.741   3.856 -0.5144  0.6084 -0.6969
19354TIP3   OH279552   4.468   5.318   5.043 -0.6697 -0.0990 -0.1567
19354TIP3    H179553   4.534   5.258   5.077 -3.5103 -2.8726  0.9625
19354TIP3    H279554   4.477   5.312   4.948  1.0866  0.1678 -0.0468
19355TIP3   OH279555   1.540   2.398  12.354  0.7539 -0.7143  0.3779
19355TIP3    H179556   1.482   2.427  12.283  1.0181 -2.5738 -0.6488
19355TIP3    H279557   1.606   2.468  12.361 -1.9538  1.8810  2.1541
19356TIP3   OH279558   5.904   1.209  15.787  0.0235  0.1520 -0.2670
19356TIP3    H179559   5.819   1.204  15.743 -1.1469  2.9530  1.3687
19356TIP3    H279560   5.886   1.179  15.876  0.6551  1.0435  0.1730
19357TIP3   OH279561   2.925   5.899   2.644  0.0131  0.2585  0.1966
19357TIP3    H179562   2.968   5.815   2.661  1.7872  0.8662 -1.0154
19357TIP3    H279563   2.991   5.951   2.599 -1.2851  2.0775  0.2922
19358TIP3   OH279564   0.553   0.607  15.609  0.3393  0.0926 -0.5135
19358TIP3    H179565   0.530   0.699  15.622 -0.6053 -0.0483 -1.1626
19358TIP3    H279566   0.597   0.605  15.524  0.8740  0.0252 -0.2400
19359TIP3   OH279567   2.063   5.370  15.509  0.3318 -0.0924 -0.3970
19359TIP3    H179568   2.005   5.384  15.584  2.8380 -0.4599  1.7114
19359TIP3    H279569   2.081   5.276  15.510  3.0182  0.3756  0.6504
19360TIP3   OH279570   5.338   4.068   4.935 -0.0845  0.0682  0.6570
19360TIP3    H179571   5.257   4.024   4.909 -0.0300  0.0488  0.5202
19360TIP3    H279572   5.317   4.161   4.932  0.0738  0.0872  0.0295
19361TIP3   OH279573   4.106   2.019  12.263 -0.1750 -0.6702  0.2263
19361TIP3    H179574   4.065   2.088  12.315 -1.8213 -0.6576 -0.9911
19361TIP3    H279575   4.169   2.064  12.207  1.4473 -0.6613  1.9839
19362TIP3   OH279576   1.645   4.038  10.608  0.0084  0.0800 -0.0928
19362TIP3    H179577   1.648   3.943  10.600  1.2295  0.1518 -0.8244
19362TIP3    H279578   1.672   4.070  10.522 -0.1645  1.0802  0.2136
19363TIP3   OH279579   6.575   3.061  14.520  0.2618 -0.0538  0.3525
19363TIP3    H179580   6.636   3.040  14.591 -0.5544 -1.8649  0.5840
19363TIP3    H279581   6.507   3.113  14.562  0.0418 -0.6958  0.8098
19364TIP3   OH279582   5.096   1.285   2.345  0.0955 -0.3664  0.4274
19364TIP3    H179583   5.036   1.246   2.282  2.3054 -2.0872 -0.7520
19364TIP3    H279584   5.076   1.379   2.342 -1.6128 -0.7186 -0.8402
19365TIP3   OH279585   5.831   3.708   5.684 -0.0336  0.3113  0.0398
19365TIP3    H179586   5.864   3.637   5.630  0.8749 -0.3727  1.4319
19365TIP3    H279587   5.886   3.784   5.661 -2.1294  1.1587 -2.7371
19366TIP3   OH279588   3.485   1.082   5.824  0.3882 -0.0977 -0.3126
19366TIP3    H179589   3.397   1.048   5.841  0.0023  0.2723 -1.4607
19366TIP3    H279590   3.542   1.030   5.881 -0.6145 -0.0209  0.8032
19367TIP3   OH279591   2.782   0.868   1.125  0.2823  0.1038  0.0726
19367TIP3    H179592   2.839   0.937   1.157 -0.2926 -0.2651  2.0096
19367TIP3    H279593   2.832   0.788   1.136 -0.6159 -0.2487  1.9854
19368TIP3   OH279594   1.383   4.748  11.720  0.3906 -0.4694  0.1404
19368TIP3    H179595   1.318   4.780  11.782  0.3861  0.6269 -0.3958
19368TIP3    H279596   1.338   4.680  11.670 -1.0821  1.5832 -1.5543
19369TIP3   OH279597   4.878   1.497  15.937 -0.5045  0.4241 -0.2405
19369TIP3    H179598   4.825   1.561  15.985  0.0359  0.8968 -0.2592
19369TIP3    H279599   4.814   1.444  15.889 -0.9356  1.5238 -0.9344
19370TIP3   OH279600   3.134   2.007  16.294 -1.0323  0.7845 -0.0820
19370TIP3    H179601   3.195   2.019  16.222  0.0559 -0.2285  0.6188
19370TIP3    H279602   3.151   2.080  16.353 -1.7927  1.5098 -0.7527
19371TIP3   OH279603   4.949   5.356  12.520  0.3314 -0.5310  0.2102
19371TIP3    H179604   4.946   5.317  12.608  1.2045 -2.9694 -0.7520
19371TIP3    H279605   5.031   5.324  12.482  0.6170  1.5350 -1.0684
19372TIP3   OH279606   2.343   4.138  16.310 -0.1572  0.0088 -0.2332
19372TIP3    H179607   2.254   4.130  16.342 -0.1974  0.5436 -0.1982
19372TIP3    H279608   2.395   4.080  16.365 -0.6647 -1.2387 -1.0283
19373TIP3   OH279609   4.702   4.232  17.116  0.2834  0.4116  0.3724
19373TIP3    H179610   4.651   4.307  17.146 -0.3299 -0.1830  0.8299
19373TIP3    H279611   4.659   4.205  17.035  1.0933  1.1395 -0.3333
19374TIP3   OH279612   3.436   5.873   4.475  0.2500  0.1126  0.0709
19374TIP3    H179613   3.484   5.875   4.558 -0.5610  0.2591  0.5531
19374TIP3    H279614   3.491   5.920   4.414  1.5158 -1.1760  0.1571
19375TIP3   OH279615   4.970   2.066   3.328 -0.0051 -0.1681 -0.6903
19375TIP3    H179616   5.037   2.008   3.292  0.8871 -1.5254  2.8014
19375TIP3    H279617   5.019   2.142   3.361 -0.6232  0.4000 -1.0560
19376TIP3   OH279618   3.060   6.199  12.710 -0.0979 -0.2790  0.3477
19376TIP3    H179619   2.994   6.229  12.773 -0.7199 -1.0621  0.0949
19376TIP3    H279620   3.062   6.268  12.643  0.7851  0.7085  1.3437
19377TIP3   OH279621   0.573   3.575   2.013  0.2449  0.2703 -0.2773
19377TIP3    H179622   0.529   3.592   1.930  0.4730 -0.8808 -0.6530
19377TIP3    H279623   0.595   3.662   2.047 -0.7265  0.7853 -0.9387
19378TIP3   OH279624   2.829   1.156  14.685  0.3655  0.1696  0.6587
19378TIP3    H179625   2.800   1.124  14.771 -1.1002 -0.3412  0.0143
19378TIP3    H279626   2.824   1.079  14.628 -0.9525  0.9990 -0.4002
19379TIP3   OH279627   2.077   1.510   1.833 -0.5761 -0.2727  0.1239
19379TIP3    H179628   2.035   1.577   1.777 -0.3525 -0.4649 -0.2812
19379TIP3    H279629   2.022   1.432   1.821 -0.6189 -0.2693  0.2999
19380TIP3   OH279630   6.177   1.555  16.738  0.3943  0.2601  0.0128
19380TIP3    H179631   6.126   1.479  16.765  1.1812  0.4549  2.2483
19380TIP3    H279632   6.202   1.598  16.820  2.1028  1.5041 -1.0837
19381TIP3   OH279633   3.986   6.371  14.294 -0.1528  0.2973 -0.3721
19381TIP3    H179634   3.915   6.329  14.247  0.9941 -2.0081 -0.2184
19381TIP3    H279635   3.945   6.407  14.373 -1.6497  2.0255 -1.8513
19382TIP3   OH279636   5.259   0.596   3.443  0.9357 -0.0617  0.0395
19382TIP3    H179637   5.256   0.551   3.358  2.1422  1.2380 -0.7526
19382TIP3    H279638   5.178   0.647   3.445  0.1944 -1.2421  0.3502
19383TIP3   OH279639   3.632   1.565  16.395 -0.6977 -0.0141 -0.0452
19383TIP3    H179640   3.692   1.491  16.386  1.2958  1.2745  1.7318
19383TIP3    H279641   3.686   1.642  16.378 -2.3573  1.1328 -0.3498
19384TIP3   OH279642   4.500   6.285  14.268  0.0854  0.3009  0.2658
19384TIP3    H179643   4.587   6.306  14.302  0.2340 -2.8224  2.2745
19384TIP3    H279644   4.490   6.191  14.286 -3.3911  0.3735 -0.6184
19385TIP3   OH279645   3.517   3.227  13.178 -0.2933 -0.4607  0.2260
19385TIP3    H179646   3.519   3.161  13.108 -1.3231 -0.4346  0.1473
19385TIP3    H279647   3.498   3.309  13.132 -2.1334 -0.6210  0.6135
19386TIP3   OH279648   3.832   2.699  16.803 -0.8479  0.0689  0.0221
19386TIP3    H179649   3.828   2.790  16.832 -1.9738  0.2191 -0.5692
19386TIP3    H279650   3.832   2.704  16.707  2.0560 -0.4536 -0.1069
19387TIP3   OH279651   3.023   5.832   5.417  0.6206 -0.2065 -0.4865
19387TIP3    H179652   3.074   5.884   5.479 -1.0232  0.3007  0.5044
19387TIP3    H279653   3.024   5.743   5.453  0.5316 -0.1328 -0.3047
19388TIP3   OH279654   4.234   2.927  14.036 -0.1746 -0.0041  0.5461
19388TIP3    H179655   4.297   2.876  14.087 -1.6270 -0.9616  1.4701
19388TIP3    H279656   4.159   2.868  14.025 -1.7428  1.7641  1.2628
19389TIP3   OH279657   3.343   3.848  15.924  0.0515 -0.2496  0.2965
19389TIP3    H179658   3.323   3.755  15.913 -1.3678  0.0712 -0.0154
19389TIP3    H279659   3.286   3.892  15.861  2.0050  0.7381 -0.8726
19390TIP3   OH279660   4.488   2.595   5.663 -0.1968  0.0044  0.8429
19390TIP3    H179661   4.465   2.566   5.751  1.5381 -1.7430  0.8041
19390TIP3    H279662   4.572   2.552   5.645 -0.9589 -0.5048 -2.0405
19391TIP3   OH279663   4.381   5.986  13.199 -0.3954  0.4643 -0.2439
19391TIP3    H179664   4.424   6.065  13.164  0.7597 -0.6883 -1.5770
19391TIP3    H279665   4.410   5.916  13.140 -0.8160 -1.0806  1.3206
19392TIP3   OH279666   1.788   4.783   3.395 -0.1396  0.1972 -0.0550
19392TIP3    H179667   1.800   4.709   3.454 -1.8001  0.0409  0.1264
19392TIP3    H279668   1.773   4.743   3.309 -1.1865  0.2911  0.0692
19393TIP3   OH279669   2.778   3.825   0.373  0.3092  0.3056  0.0536
19393TIP3    H179670   2.866   3.799   0.398  0.8986  1.5177 -0.6975
19393TIP3    H279671   2.755   3.896   0.434  1.5616  2.9311 -2.3300
19394TIP3   OH279672   3.316   4.399   2.147 -0.1047 -1.2206  0.3478
19394TIP3    H179673   3.334   4.486   2.111  0.4093 -0.6175  1.9632
19394TIP3    H279674   3.334   4.408   2.240 -1.7502 -2.6120  0.8426
19395TIP3   OH279675   0.311   0.178  12.330  0.1239  0.1739 -0.0773
19395TIP3    H179676   0.387   0.126  12.354 -0.7943 -0.9867  0.4150
19395TIP3    H279677   0.244   0.113  12.305 -2.0211  0.8589  3.2628
19396TIP3   OH279678   2.814   0.048   5.357 -0.2582 -0.1249 -0.3613
19396TIP3    H179679   2.905   0.045   5.327  0.9817 -1.3795  3.0473
19396TIP3    H279680   2.772  -0.025   5.311  0.9575 -0.6869 -0.6329
19397TIP3   OH279681   1.110   5.969   0.166 -0.2995  0.1233 -0.3681
19397TIP3    H179682   1.137   5.949   0.076 -1.4559  0.9386 -0.9217
19397TIP3    H279683   1.130   6.062   0.177 -1.4267  0.3635 -0.2656
19398TIP3   OH279684   1.134   5.024  12.844 -0.3839 -0.1174  0.8541
19398TIP3    H179685   1.215   5.058  12.805  0.7900  0.3997  3.4807
19398TIP3    H279686   1.074   5.014  12.771  1.5054  1.0982 -0.9789
19399TIP3   OH279687   3.992   6.665  12.367 -0.0723  0.0508  0.2424
19399TIP3    H179688   4.015   6.699  12.281 -1.0928 -0.6524 -0.3299
19399TIP3    H279689   3.995   6.569  12.357  3.3728 -0.1922  1.9687
19400TIP3   OH279690   0.255   1.477  12.368 -0.4157  0.2586 -0.7576
19400TIP3    H179691   0.218   1.425  12.439 -1.1197  0.9647 -0.6007
19400TIP3    H279692   0.216   1.441  12.288 -0.4996  0.2082 -0.6932
19401TIP3   OH279693   3.939   4.505   3.202 -0.1289 -0.3484  0.4580
19401TIP3    H179694   3.982   4.437   3.255  1.0225 -0.3950 -0.4833
19401TIP3    H279695   3.989   4.506   3.121 -1.7549 -0.1661 -0.5750
19402TIP3   OH279696   6.442   5.582   1.250  0.7544 -0.4517 -0.2069
19402TIP3    H179697   6.472   5.547   1.166  1.6120  0.4055 -0.2719
19402TIP3    H279698   6.452   5.677   1.241 -0.6697 -0.2322  0.2916
19403TIP3   OH279699   6.141   6.028   0.106  0.1760  0.5083 -0.3554
19403TIP3    H179700   6.216   5.997   0.156 -1.7458 -1.9281  1.2663
19403TIP3    H279701   6.104   6.099   0.159  0.3165  0.4897 -0.2327
19404TIP3   OH279702   1.433   0.067  15.654  0.0401  0.0973  0.1378
19404TIP3    H179703   1.467   0.101  15.737 -0.6624  2.4821 -0.4684
19404TIP3    H279704   1.340   0.051  15.671  0.1861 -0.7537  0.1742
19405TIP3   OH279705   1.279   0.789   6.012  0.1870  0.3202 -0.3214
19405TIP3    H179706   1.306   0.864   6.066  1.3726 -0.1126 -0.2940
19405TIP3    H279707   1.275   0.716   6.073  0.3704  0.0709 -0.6111
19406TIP3   OH279708   5.533   6.669  14.289 -0.4959  0.0223 -0.6127
19406TIP3    H179709   5.495   6.602  14.231 -0.7933 -0.7995  0.4963
19406TIP3    H279710   5.566   6.620  14.364  0.3754  1.0137 -0.3273
19407TIP3   OH279711   3.509   0.733   2.747  0.3548 -0.1182 -0.1876
19407TIP3    H179712   3.542   0.817   2.777  0.0762 -0.1450  0.2086
19407TIP3    H279713   3.556   0.668   2.799  0.1899 -0.1849 -0.1194
19408TIP3   OH279714   0.249   1.697   6.314  0.0320 -0.3632 -0.2718
19408TIP3    H179715   0.334   1.663   6.284  0.1668  0.0371 -0.3433
19408TIP3    H279716   0.185   1.634   6.280  0.1616  0.1914 -1.5856
19409TIP3   OH279717   0.187   5.580  14.367 -0.0420  0.0455  0.1825
19409TIP3    H179718   0.262   5.580  14.426  0.2969  1.9110 -0.1870
19409TIP3    H279719   0.114   5.546  14.419  0.4278  0.9210  1.4454
19410TIP3   OH279720   2.054   5.424   5.719 -0.1008  0.2480  0.0470
19410TIP3    H179721   2.022   5.356   5.779  0.5036  1.5266  1.9110
19410TIP3    H279722   2.119   5.379   5.665 -0.3413 -0.8605  0.6435
19411TIP3   OH279723   0.737   4.920   2.631  0.2978  0.5463 -0.3825
19411TIP3    H179724   0.758   5.013   2.637 -1.6477  1.1279 -1.4820
19411TIP3    H279725   0.654   4.918   2.583  0.1028 -1.7399 -0.0509
19412TIP3   OH279726   0.343   5.095  16.775 -0.2794 -0.1048  0.0692
19412TIP3    H179727   0.409   5.042  16.731 -0.1101 -1.0688  1.4277
19412TIP3    H279728   0.266   5.089  16.718  0.5863  0.5081 -1.1989
19413TIP3   OH279729   0.785   4.848  16.077 -0.3833  0.1413 -0.4205
19413TIP3    H179730   0.839   4.810  16.008 -0.4479 -1.5686  0.4168
19413TIP3    H279731   0.772   4.777  16.139 -0.8043  1.4691  1.0798
19414TIP3   OH279732   5.543   3.209  14.491  0.0132  0.0490 -0.1516
19414TIP3    H179733   5.546   3.263  14.570  2.3742  0.5971 -0.5434
19414TIP3    H279734   5.543   3.119  14.523 -1.1156  0.2636  0.4793
19415TIP3   OH279735   4.145   0.293  12.124 -0.2180 -0.0032 -0.1423
19415TIP3    H179736   4.163   0.302  12.030 -0.4155 -0.8686 -0.2777
19415TIP3    H279737   4.228   0.312  12.167  0.4072 -1.4842 -0.6177
19416TIP3   OH279738   5.084   1.395   4.316  0.8764  0.0105  0.2804
19416TIP3    H179739   5.016   1.333   4.290  1.0735 -0.5834  1.1617
19416TIP3    H279740   5.090   1.456   4.242 -0.2494 -0.2296 -0.0252
19417TIP3   OH279741   2.256   6.837   5.279  0.7578 -0.5498  0.1621
19417TIP3    H179742   2.229   6.914   5.228 -2.4389 -1.2200  0.6152
19417TIP3    H279743   2.325   6.869   5.337 -0.6459  2.0928  0.5127
19418TIP3   OH279744   4.591   2.142   2.708  0.1178  0.7098  0.5260
19418TIP3    H179745   4.651   2.072   2.735  0.3750  0.5021 -0.5324
19418TIP3    H279746   4.536   2.101   2.641 -0.1603  1.3475  0.3603
19419TIP3   OH279747   6.087   1.201   5.031 -0.3843  0.4999  0.2732
19419TIP3    H179748   6.172   1.175   5.067  1.1145  1.8625 -1.9570
19419TIP3    H279749   6.047   1.120   5.002  0.3557 -0.1301  0.9526
19420TIP3   OH279750   0.271   3.727   5.158 -0.5080 -0.6453 -0.5172
19420TIP3    H179751   0.352   3.764   5.125 -0.9943 -1.1977 -2.4282
19420TIP3    H279752   0.221   3.802   5.190 -0.7126  0.1669 -2.6091
19421TIP3   OH279753   0.781   0.204  13.493 -0.5056 -0.5780  0.4092
19421TIP3    H179754   0.867   0.197  13.453 -1.0324 -1.9067 -0.5306
19421TIP3    H279755   0.727   0.246  13.426 -0.8302 -0.6819  0.6054
19422TIP3   OH279756   4.772   4.006   4.844  0.0717  1.1799  0.6694
19422TIP3    H179757   4.816   4.090   4.839 -0.2961  1.3685  0.5845
19422TIP3    H279758   4.823   3.956   4.908  2.2972  0.2619 -1.6653
19423TIP3   OH279759   3.585   3.777   2.350 -0.2998  0.1702  0.1115
19423TIP3    H179760   3.542   3.756   2.267  1.1400 -2.3003 -0.0847
19423TIP3    H279761   3.599   3.872   2.345 -2.8296  0.5833 -1.1442
19424TIP3   OH279762   2.453   4.464  10.855 -0.6169 -0.4326 -0.2096
19424TIP3    H179763   2.404   4.445  10.935 -1.0018  2.0212  0.2037
19424TIP3    H279764   2.427   4.553  10.831 -0.1988 -0.9502 -2.8582
19425TIP3   OH279765   2.740   6.127   5.428 -0.3841  0.3116  0.3064
19425TIP3    H179766   2.655   6.088   5.446 -0.4298  0.3436  0.1612
19425TIP3    H279767   2.761   6.176   5.507  0.9089 -2.1596  1.5869
19426TIP3   OH279768   5.588   4.447   1.956  0.1943  0.2930 -0.3793
19426TIP3    H179769   5.580   4.513   1.888  1.2251 -0.3323 -1.1465
19426TIP3    H279770   5.498   4.422   1.977 -0.1505  0.9155 -1.1009
19427TIP3   OH279771   5.446   2.014   0.071  0.0045  0.4742  0.6859
19427TIP3    H179772   5.456   2.080   0.003 -1.0631 -0.5845 -0.5677
19427TIP3    H279773   5.526   1.962   0.065 -0.6966 -0.5161 -0.8477
19428TIP3   OH279774   1.465   2.568   1.517  0.1083 -0.4368 -0.2763
19428TIP3    H179775   1.436   2.528   1.599  0.2230 -2.6333 -1.2346
19428TIP3    H279776   1.531   2.631   1.543 -0.1149 -0.8244  1.3439
19429TIP3   OH279777   3.718   4.296   3.985 -0.3756  0.1253 -0.4616
19429TIP3    H179778   3.637   4.261   3.949 -1.2039 -0.8186  2.0715
19429TIP3    H279779   3.787   4.243   3.945 -1.2950 -1.4649 -0.0335
19430TIP3   OH279780   3.970   2.605  14.218 -0.3722 -0.6339  0.3742
19430TIP3    H179781   3.879   2.577  14.226 -0.9122  0.1255 -2.2800
19430TIP3    H279782   4.021   2.532  14.253 -1.9409 -1.6966  0.5322
19431TIP3   OH279783   6.212   5.571  12.663 -0.3093  0.0369  0.4057
19431TIP3    H179784   6.228   5.654  12.707 -0.8232  0.1077  0.4628
19431TIP3    H279785   6.290   5.557  12.609 -0.3360  0.6847  0.1930
19432TIP3   OH279786   0.674   2.922  16.642 -0.3741  0.2060  0.1584
19432TIP3    H179787   0.769   2.906  16.641 -0.2478  0.6978  1.8492
19432TIP3    H279788   0.640   2.858  16.704 -1.2110 -0.1364 -0.6293
19433TIP3   OH279789   1.001   0.773  14.565 -0.0800 -0.1083  0.6665
19433TIP3    H179790   0.981   0.758  14.657  0.3363 -1.7091  0.5278
19433TIP3    H279791   1.034   0.863  14.561 -0.7941  0.2244  1.9506
19434TIP3   OH279792   6.113   6.106  13.594  0.4760  0.9345 -0.4011
19434TIP3    H179793   6.071   6.024  13.567 -2.3463  2.4767 -1.1107
19434TIP3    H279794   6.162   6.134  13.516  1.2794  0.0771 -0.2239
19435TIP3   OH279795   1.755   6.773  16.260 -0.5579  0.1406  0.4877
19435TIP3    H179796   1.778   6.681  16.269  3.4673  0.8600 -0.3476
19435TIP3    H279797   1.705   6.794  16.339 -0.5759 -2.4631  1.2417
19436TIP3   OH279798   4.369   4.368  14.626  0.0672 -0.1998  0.5352
19436TIP3    H179799   4.358   4.305  14.698 -2.1788  1.1676  1.5105
19436TIP3    H279800   4.280   4.383  14.595  0.9529 -0.5291 -2.4319
19437TIP3   OH279801   2.951   1.430   2.630 -0.2273 -0.0795  0.3663
19437TIP3    H179802   2.983   1.477   2.707 -0.7948  1.5627 -0.3544
19437TIP3    H279803   2.928   1.343   2.663 -1.3474  0.8727  2.2718
19438TIP3   OH279804   5.155   5.054  14.002 -0.3567 -0.1154  0.5884
19438TIP3    H179805   5.063   5.032  13.986  0.1900 -1.7169 -0.5938
19438TIP3    H279806   5.152   5.122  14.070 -2.3314 -1.3201  1.8020
19439TIP3   OH279807   5.935   3.054  10.663 -0.1918 -0.1337  0.2526
19439TIP3    H179808   5.872   3.125  10.669 -0.1805 -0.0203 -0.7599
19439TIP3    H279809   6.000   3.085  10.599 -0.0311 -0.9331  0.0186
19440TIP3   OH279810   4.957   1.289  16.094 -0.8954 -0.5507  0.4833
19440TIP3    H179811   4.894   1.353  16.062 -0.4364  0.0552  0.7503
19440TIP3    H279812   5.025   1.287  16.027 -1.1637 -1.1612  0.2207
19441TIP3   OH279813   2.334   6.441  11.771 -0.6480  0.0015 -0.1492
19441TIP3    H179814   2.277   6.390  11.830 -1.8311  1.2507 -0.1551
19441TIP3    H279815   2.379   6.502  11.829  0.4845 -0.7532 -0.1924
19442TIP3   OH279816   6.761   3.149   2.162  0.6058 -0.5203  0.4234
19442TIP3    H179817   6.804   3.212   2.104  0.1160 -1.8796 -1.5424
19442TIP3    H279818   6.818   3.143   2.238  2.6568 -0.5009 -1.0314
19443TIP3   OH279819   2.236   1.372   0.122 -0.6553  0.0946 -0.2939
19443TIP3    H179820   2.264   1.355   0.032 -1.4052  0.2966 -0.5697
19443TIP3    H279821   2.318   1.388   0.169 -0.3344  2.3811 -1.4418
19444TIP3   OH279822   4.888   0.150  14.891 -0.5544  0.1721  0.4470
19444TIP3    H179823   4.902   0.058  14.914 -1.5196  0.0345  0.5349
19444TIP3    H279824   4.834   0.147  14.812  0.3829  0.6604 -0.2248
19445TIP3   OH279825   4.027   4.080   1.950  0.3561 -0.4152 -0.1089
19445TIP3    H179826   4.011   4.154   2.009  2.1669 -0.2029  0.1764
19445TIP3    H279827   3.984   4.104   1.869 -3.1178 -1.1701  1.3458
19446TIP3   OH279828   1.917   5.592   1.847  0.7806 -0.0662  0.0294
19446TIP3    H179829   1.972   5.624   1.918  1.2254  0.0673 -0.3676
19446TIP3    H279830   1.970   5.604   1.768 -0.6724  2.2278 -0.6892
19447TIP3   OH279831   5.213   0.156   4.543  0.5587 -0.4435 -0.4008
19447TIP3    H179832   5.239   0.153   4.635  0.8631 -0.9468 -0.5010
19447TIP3    H279833   5.225   0.067   4.511  0.7390 -0.2109 -1.0052
19448TIP3   OH279834   3.233   5.211   2.430  0.1549  0.7970  0.5519
19448TIP3    H179835   3.259   5.296   2.397 -0.5155  0.4987 -0.7979
19448TIP3    H279836   3.183   5.171   2.359  4.2536 -2.6260 -0.8573
19449TIP3   OH279837   5.352   1.573   0.848  0.6112 -0.0032  0.4156
19449TIP3    H179838   5.291   1.521   0.900 -0.2865  1.4823  0.9105
19449TIP3    H279839   5.336   1.663   0.875  1.8471  0.5827 -0.6871
19450TIP3   OH279840   5.750   3.537  14.500 -0.1434 -0.4404 -0.1240
19450TIP3    H179841   5.818   3.472  14.482 -0.1935 -1.0839  1.7389
19450TIP3    H279842   5.788   3.620  14.471  0.0759 -1.2135 -2.1844
19451TIP3   OH279843   4.151   2.362   3.579  0.3180  0.6527  0.1039
19451TIP3    H179844   4.229   2.404   3.542  0.6296 -0.7078 -0.8521
19451TIP3    H279845   4.142   2.281   3.530  0.1473 -0.7763  2.3506
19452TIP3   OH279846   2.001   1.370  11.933  0.1722 -0.3786  0.1232
19452TIP3    H179847   1.986   1.376  11.838 -2.0773 -1.0757  0.3726
19452TIP3    H279848   2.006   1.461  11.962 -1.4087 -0.0955 -0.3974
19453TIP3   OH279849   0.230   1.968  11.342  0.0649 -0.2232 -0.3177
19453TIP3    H179850   0.135   1.965  11.349  0.1089 -3.0143  0.2578
19453TIP3    H279851   0.250   2.059  11.324 -2.6566  0.6023  0.3871
19454TIP3   OH279852   2.045   6.033  14.587 -0.2140 -0.5845 -0.0049
19454TIP3    H179853   2.071   5.986  14.507  0.7660  1.3311 -0.8881
19454TIP3    H279854   1.964   6.079  14.562  1.1034  1.5534 -0.6030
19455TIP3   OH279855   4.500   2.269  12.308 -0.3927  0.1231  0.3875
19455TIP3    H179856   4.534   2.336  12.249 -1.7993  0.3300 -0.2194
19455TIP3    H279857   4.535   2.186  12.274  0.9033  0.4637  0.8186
19456TIP3   OH279858   1.221   5.954  11.193  0.3369 -0.0004  0.1913
19456TIP3    H179859   1.160   5.975  11.123  2.2299  3.1559 -0.7148
19456TIP3    H279860   1.180   5.989  11.272 -0.5333 -1.0630  0.2381
19457TIP3   OH279861   3.763   1.160   2.888  0.2154  0.2525 -0.2097
19457TIP3    H179862   3.794   1.184   2.801  0.7723  0.2196 -0.0230
19457TIP3    H279863   3.842   1.136   2.936  0.0322  1.2281  0.6144
19458TIP3   OH279864   3.828   1.984  14.660  0.1145  0.2571 -0.1579
19458TIP3    H179865   3.857   1.993  14.751 -1.5195  1.7102  0.2716
19458TIP3    H279866   3.790   2.069  14.639 -1.2197 -0.6528 -1.5830
19459TIP3   OH279867   1.991   4.168   4.182 -0.0418 -0.4477  0.4456
19459TIP3    H179868   2.025   4.256   4.201 -1.0595 -0.0322  0.4102
19459TIP3    H279869   1.994   4.122   4.266  0.6298 -0.4260  0.4336
19460TIP3   OH279870   4.754   1.076  15.924  0.0547  0.1093 -0.4217
19460TIP3    H179871   4.745   1.064  16.018  0.2959 -2.3575 -0.6643
19460TIP3    H279872   4.674   1.038  15.887  0.1664  0.6527 -1.2552
19461TIP3   OH279873   0.529   1.504  17.070 -0.6241 -0.0525  0.0679
19461TIP3    H179874   0.552   1.525  17.161 -0.2981 -0.7928  0.1645
19461TIP3    H279875   0.569   1.574  17.019  0.1347 -0.2154  0.4103
19462TIP3   OH279876   4.510   1.417   3.039  0.1860 -0.0020 -0.1424
19462TIP3    H179877   4.515   1.340   2.982  1.6882  0.2403 -0.3693
19462TIP3    H279878   4.559   1.392   3.118 -0.8313  0.1072  0.5492
19463TIP3   OH279879   3.040   0.843  11.848 -0.1539 -0.1451 -0.2358
19463TIP3    H179880   3.025   0.899  11.772 -0.5200 -1.3513 -1.0841
19463TIP3    H279881   2.953   0.828  11.885 -0.3070 -1.7253 -1.1848
19464TIP3   OH279882   2.486   2.319  13.639 -0.2183 -0.0300 -0.3190
19464TIP3    H179883   2.456   2.373  13.712 -2.4838  0.8179 -1.7556
19464TIP3    H279884   2.580   2.336  13.633 -0.0881  0.3317  1.9694
19465TIP3   OH279885   1.295   6.666  12.389 -0.3306 -0.4313  0.2907
19465TIP3    H179886   1.246   6.614  12.326 -0.4257 -0.4617  0.3900
19465TIP3    H279887   1.232   6.686  12.458  0.5088 -2.9342  1.9064
19466TIP3   OH279888   5.833   6.166  14.134 -0.0541 -0.2149  0.3867
19466TIP3    H179889   5.755   6.222  14.131 -0.6102 -1.0320 -1.7476
19466TIP3    H279890   5.802   6.079  14.111  1.4204 -0.6471 -0.1012
19467TIP3   OH279891   2.745   3.864   2.050  0.3052  0.3629  0.3137
19467TIP3    H179892   2.672   3.856   1.989  1.0576 -0.4606 -0.5102
19467TIP3    H279893   2.729   3.946   2.096 -0.7123  0.5900 -0.4140
19468TIP3   OH279894   2.058   3.833   0.971 -0.3372 -0.2342 -0.2424
19468TIP3    H179895   2.025   3.848   1.060 -2.2983  0.4121 -1.0325
19468TIP3    H279896   2.002   3.762   0.937 -0.9398  0.8600 -1.6167
19469TIP3   OH279897   4.647   4.731  11.965 -0.2638 -0.6213 -0.5050
19469TIP3    H179898   4.698   4.788  12.022 -0.8011 -0.3141 -0.3226
19469TIP3    H279899   4.557   4.763  11.973 -0.4391 -0.9567 -1.0594
19470TIP3   OH279900   4.822   0.452   2.473 -0.4064 -0.0414 -0.1134
19470TIP3    H179901   4.823   0.547   2.466  0.9285 -0.1730 -3.0155
19470TIP3    H279902   4.731   0.430   2.492 -0.8377  1.7730  0.0783
19471TIP3   OH279903   3.004   0.654   3.943  0.4514 -0.0109 -0.0980
19471TIP3    H179904   2.924   0.606   3.921  0.0138  0.7048 -0.0734
19471TIP3    H279905   3.042   0.605   4.016 -0.5049  0.2284  0.5745
19472TIP3   OH279906   1.228   4.398   5.079  0.0963  0.7804  0.1021
19472TIP3    H179907   1.227   4.492   5.097  0.0158  1.2018 -1.9160
19472TIP3    H279908   1.191   4.390   4.991 -0.7548 -1.2365  0.5787
19473TIP3   OH279909   2.795   6.751   3.602 -0.2533 -0.5328 -0.1734
19473TIP3    H179910   2.751   6.782   3.681  0.8902 -0.7208  0.5574
19473TIP3    H279911   2.831   6.831   3.562 -1.2135 -0.3803 -0.7665
19474TIP3   OH279912   0.258   1.096  12.521 -0.0637  0.0076  0.2298
19474TIP3    H179913   0.304   1.145  12.589 -0.5024  2.8079 -1.3583
19474TIP3    H279914   0.324   1.075  12.456 -0.4210  1.4112 -0.6262
19475TIP3   OH279915   6.211   3.945  10.805  0.1757  0.1979  0.7079
19475TIP3    H179916   6.302   3.966  10.824  0.4764 -1.9679  2.0448
19475TIP3    H279917   6.185   3.885  10.875 -1.1058 -2.2841 -1.7090
19476TIP3   OH279918   4.207   2.000   3.105  0.5279 -0.4859  0.0164
19476TIP3    H179919   4.293   2.035   3.131 -0.2204  0.4620  1.2859
19476TIP3    H279920   4.154   2.002   3.184 -1.0708  0.1532 -1.0118
19477TIP3   OH279921   5.628   6.275   4.100 -0.1311  0.3810 -0.1595
19477TIP3    H179922   5.605   6.339   4.168  0.9668 -0.9305  1.5266
19477TIP3    H279923   5.569   6.202   4.116  1.0352 -0.4945  0.3015
19478TIP3   OH279924   4.230   4.342  10.470  0.1261 -0.3891  0.3396
19478TIP3    H179925   4.248   4.432  10.444  0.3425 -0.3583  0.5986
19478TIP3    H279926   4.171   4.350  10.545  1.4714 -0.4271  1.4165
19479TIP3   OH279927   4.412   4.257   0.827 -0.5944  0.5680  0.3996
19479TIP3    H179928   4.439   4.181   0.777  1.3327  1.1543  0.4569
19479TIP3    H279929   4.354   4.223   0.895 -1.4007 -0.5360 -0.8087
19480TIP3   OH279930   6.327   0.032  14.731  0.2494 -0.5008 -0.4192
19480TIP3    H179931   6.256  -0.023  14.764 -1.1751  1.0815 -0.7064
19480TIP3    H279932   6.362  -0.018  14.657 -0.4769 -1.3738 -0.2040
19481TIP3   OH279933   2.550   3.011   0.957 -0.8525 -0.3459 -0.2814
19481TIP3    H179934   2.499   3.030   1.035 -2.2044  1.1901 -1.4696
19481TIP3    H279935   2.590   3.095   0.933 -0.1094 -0.8805 -1.0026
19482TIP3   OH279936   1.764   6.710  12.278  0.2409  0.0121 -0.1020
19482TIP3    H179937   1.802   6.625  12.302 -1.9235 -1.0890 -0.3249
19482TIP3    H279938   1.772   6.714  12.183 -1.3625 -0.8832 -0.3148
19483TIP3   OH279939   4.958   1.091  16.299 -0.2210 -0.3302  0.1663
19483TIP3    H179940   4.892   1.056  16.239 -0.0209 -2.1955  0.9709
19483TIP3    H279941   5.003   1.158  16.248 -3.1338  1.5707 -0.2100
19484TIP3   OH279942   5.944   5.383  12.897 -0.0227  0.6662  1.0945
19484TIP3    H179943   5.910   5.326  12.966  1.1688  0.5115  1.5652
19484TIP3    H279944   6.038   5.365  12.894 -0.0480  0.6464 -0.5990
19485TIP3   OH279945   0.324   2.781   4.664  0.0301  0.2376  0.4421
19485TIP3    H179946   0.406   2.737   4.644 -1.0860 -1.6370 -0.2702
19485TIP3    H279947   0.343   2.874   4.654  1.9667 -0.1740 -0.0023
19486TIP3   OH279948   1.993   0.288   5.154 -0.0233 -0.1366 -0.1515
19486TIP3    H179949   2.089   0.281   5.155  0.0070 -0.1040 -1.1948
19486TIP3    H279950   1.964   0.201   5.126 -0.2968 -0.1416  0.1530
19487TIP3   OH279951   4.160   5.093   3.152 -0.3846 -0.2848  0.3714
19487TIP3    H179952   4.192   5.034   3.084 -1.7960 -1.1740  0.4340
19487TIP3    H279953   4.110   5.160   3.105  0.5162  0.4107  0.3720
19488TIP3   OH279954   1.267   4.993   2.477 -0.4855 -0.2561  0.0088
19488TIP3    H179955   1.341   5.041   2.439  0.5120  0.3190  2.4589
19488TIP3    H279956   1.191   5.020   2.425  0.5970  1.2476 -0.8856
19489TIP3   OH279957   2.050   5.244   1.734 -0.2339 -0.4076  0.3694
19489TIP3    H179958   2.040   5.257   1.640 -1.4076 -0.1018  0.5187
19489TIP3    H279959   1.962   5.223   1.765 -0.6904  2.9981  1.9154
19490TIP3   OH279960   3.689   2.756  14.770  0.3045 -0.0036 -0.0578
19490TIP3    H179961   3.649   2.826  14.720  0.7964  0.8479  0.7112
19490TIP3    H279962   3.780   2.782  14.780  0.4396 -0.6316  0.4327
19491TIP3   OH279963   0.960   2.817   5.564  0.5862  0.2906  0.1992
19491TIP3    H179964   0.945   2.873   5.487 -0.6745  0.4044  0.4993
19491TIP3    H279965   0.904   2.854   5.631 -1.0940 -1.9156  0.1235
19492TIP3   OH279966   2.971   1.743  11.761 -0.1450 -0.1989 -0.2941
19492TIP3    H179967   2.933   1.732  11.674 -0.4633  0.3049 -0.2244
19492TIP3    H279968   2.910   1.802  11.806 -1.0572 -1.9918  0.9237
19493TIP3   OH279969   2.808   2.672   3.823 -0.7806  0.7443  0.0568
19493TIP3    H179970   2.829   2.596   3.768  1.9452  1.7481 -0.4137
19493TIP3    H279971   2.766   2.634   3.901 -0.0913 -1.1924 -0.4569
19494TIP3   OH279972   4.605   5.508  12.677  0.2248 -0.1907 -0.1247
19494TIP3    H179973   4.578   5.492  12.767  1.2338 -1.1547  0.0224
19494TIP3    H279974   4.700   5.498  12.678  0.7541  3.3302 -0.5685
19495TIP3   OH279975   1.569   1.810   0.141  0.6485  0.4465 -0.5545
19495TIP3    H179976   1.502   1.836   0.077  0.5162  3.4887  0.6414
19495TIP3    H279977   1.637   1.768   0.088  0.2402  2.2297 -2.6761
19496TIP3   OH279978   5.552   2.777   1.993 -0.9021  0.0185  0.0263
19496TIP3    H179979   5.491   2.751   1.924 -0.3854 -0.4136 -0.2755
19496TIP3    H279980   5.639   2.767   1.953 -0.6588  1.6701  0.0914
19497TIP3   OH279981   6.582   4.920  10.799  0.3587  0.1694  0.0374
19497TIP3    H179982   6.528   4.846  10.829  1.3127 -1.3542 -1.7563
19497TIP3    H279983   6.535   4.955  10.724 -0.8026  2.4024  1.6872
19498TIP3   OH279984   5.069   5.222   0.486  0.2837 -0.0145 -0.0191
19498TIP3    H179985   5.162   5.201   0.477 -0.5099 -3.1082 -3.0355
19498TIP3    H279986   5.052   5.288   0.418  0.0166 -0.5910 -0.5195
19499TIP3   OH279987   1.895   5.006  11.671 -0.2149  0.0476 -0.1231
19499TIP3    H179988   1.865   5.024  11.760 -0.8534  1.3436 -0.5723
19499TIP3    H279989   1.883   5.089  11.624  1.9943 -0.0046 -0.9227
19500TIP3   OH279990   4.777   5.845  15.589  0.3125  0.5918 -0.2888
19500TIP3    H179991   4.844   5.780  15.569  1.4852  1.9473 -0.9245
19500TIP3    H279992   4.813   5.897  15.660 -0.4325  0.8149 -0.0630
19501TIP3   OH279993   4.326   0.497   2.099 -0.4361 -0.5348  0.0332
19501TIP3    H179994   4.255   0.558   2.118 -0.6565 -0.1620 -1.8058
19501TIP3    H279995   4.320   0.431   2.169 -0.2304  1.4461  2.0290
19502TIP3   OH279996   5.796   0.001  11.457 -0.1223  0.5178 -0.0191
19502TIP3    H179997   5.865  -0.034  11.514 -0.9591  1.3861  1.5952
19502TIP3    H279998   5.725   0.025  11.517 -0.5090  2.7747 -1.2708
19503TIP3   OH279999   2.336   0.789   4.405 -0.2171 -0.4818  0.2031
19503TIP3    H180000   2.271   0.844   4.362  0.3406  0.6497  0.7854
19503TIP3    H280001   2.384   0.748   4.333  1.9412  2.8066 -0.4399
19504TIP3   OH280002   6.666   5.531   0.022  0.1028  0.4370 -0.4486
19504TIP3    H180003   6.630   5.498  -0.060 -0.5324 -0.1817  0.0675
19504TIP3    H280004   6.619   5.483   0.090  0.2489  1.3070  0.2887
19505TIP3   OH280005   3.952   5.744  15.865 -0.3613 -0.0496 -0.7598
19505TIP3    H180006   3.933   5.828  15.908 -1.8543 -0.6564 -0.1461
19505TIP3    H280007   3.897   5.681  15.912  1.0709 -1.4688 -0.9104
19506TIP3   OH280008   5.033   0.995   3.621  0.0106  0.4915  0.0037
19506TIP3    H180009   5.128   1.012   3.625  0.3293 -1.1759  0.1586
19506TIP3    H280010   5.010   0.969   3.710  0.1319 -2.5164 -0.7589
19507TIP3   OH280011   4.454   5.075  13.042 -0.3213  0.1587  0.1407
19507TIP3    H180012   4.435   5.020  13.118 -0.5961  1.2917  0.9234
19507TIP3    H280013   4.406   5.034  12.970 -1.0613 -0.2512  0.8485
19508TIP3   OH280014   1.238   4.863   0.324 -0.6321 -0.4554 -0.0383
19508TIP3    H180015   1.304   4.794   0.312 -0.5533 -0.9851  2.7710
19508TIP3    H280016   1.205   4.880   0.236 -0.1589 -3.6201 -0.9677
19509TIP3   OH280017   0.614   4.758  15.433 -0.0087  0.7530  0.5463
19509TIP3    H180018   0.571   4.841  15.413  1.1111  1.7360  1.9697
19509TIP3    H280019   0.693   4.758  15.379 -1.3582 -0.7605 -1.5925
19510TIP3   OH280020   5.533   5.993   3.328  0.2537  0.1194  0.4857
19510TIP3    H180021   5.489   5.966   3.247  0.4584  1.8984 -0.2631
19510TIP3    H280022   5.465   5.989   3.395 -0.0190 -0.9848  0.1660
19511TIP3   OH280023   5.770   0.632  12.909  0.0861  0.3048 -0.5551
19511TIP3    H180024   5.684   0.662  12.880 -0.3251 -0.5365 -0.2333
19511TIP3    H280025   5.823   0.633  12.829 -0.1210  1.1395 -0.6947
19512TIP3   OH280026   1.985   6.473  15.459  0.0062 -0.0604  0.1727
19512TIP3    H180027   2.073   6.509  15.473 -0.3127  1.3141 -1.0254
19512TIP3    H280028   1.970   6.417  15.535  2.0959 -0.7294  0.1669
19513TIP3   OH280029   1.978   3.185   3.236 -0.2979 -0.0221  0.0148
19513TIP3    H180030   1.901   3.167   3.291 -1.1499  0.5968 -0.9320
19513TIP3    H280031   2.052   3.165   3.292 -1.1204 -2.6648  0.2982
19514TIP3   OH280032   3.351   1.879  13.549 -0.1383 -0.4840 -0.2417
19514TIP3    H180033   3.387   1.790  13.555 -0.7176 -0.8576 -1.9218
19514TIP3    H280034   3.419   1.930  13.505 -0.7357 -0.6678 -1.4044
19515TIP3   OH280035   6.319   1.789   4.029  0.3132  0.2046 -0.6177
19515TIP3    H180036   6.369   1.861   4.069  0.0672 -0.8493  1.7284
19515TIP3    H280037   6.383   1.744   3.974  1.5046  0.0439  0.8076
19516TIP3   OH280038   1.033   4.034   1.344 -0.2191  0.0904  0.2470
19516TIP3    H180039   0.984   4.066   1.268  1.5179  2.4947  0.0386
19516TIP3    H280040   0.980   4.060   1.420  0.0706  1.5334 -0.0214
19517TIP3   OH280041   0.963   3.808   4.783 -0.5800 -0.0118 -0.3488
19517TIP3    H180042   0.927   3.886   4.741  0.2137  0.3920 -0.2967
19517TIP3    H280043   0.992   3.753   4.710  1.7329  1.1340 -0.3766
19518TIP3   OH280044   0.626   5.086  12.732 -0.1395  0.0470  0.1658
19518TIP3    H180045   0.558   5.113  12.794  1.7266  1.4024  1.7140
19518TIP3    H280046   0.633   5.159  12.671 -1.9786 -1.2853 -1.7945
19519TIP3   OH280047   2.576   6.509  15.845  0.3150 -0.5532 -0.2772
19519TIP3    H180048   2.505   6.469  15.794  0.0476 -0.3254 -0.0836
19519TIP3    H280049   2.552   6.601  15.852  0.7704 -0.4135 -0.4456
19520TIP3   OH280050   0.645   0.195   3.894 -0.5747 -0.0123  0.1866
19520TIP3    H180051   0.613   0.203   3.984  0.1838  1.6201  0.3496
19520TIP3    H280052   0.574   0.232   3.840 -0.0934  1.1428  0.3248
19521TIP3   OH280053   4.615   5.618   1.692 -0.3527  0.5795 -0.3843
19521TIP3    H180054   4.547   5.657   1.637  0.2958  0.3901 -1.3262
19521TIP3    H280055   4.623   5.528   1.661  1.3549  1.0087 -1.2787
19522TIP3   OH280056   1.298   1.876   0.824  0.0840 -0.2542 -0.5423
19522TIP3    H180057   1.385   1.836   0.817  1.1676  1.7393  0.6286
19522TIP3    H280058   1.268   1.853   0.911  0.3946  0.8018 -0.1411
19523TIP3   OH280059   4.436   2.005   0.845 -0.1085  0.2742 -0.1402
19523TIP3    H180060   4.427   2.081   0.788 -2.1694  0.0022 -0.2609
19523TIP3    H280061   4.448   1.931   0.785  2.7728  0.5230 -0.0027
19524TIP3   OH280062   1.780   2.468   1.578 -0.0200 -0.4260 -0.3205
19524TIP3    H180063   1.760   2.493   1.488 -0.7497  0.4805  0.0681
19524TIP3    H280064   1.705   2.501   1.629 -0.8055 -2.9701  0.3317
19525TIP3   OH280065   3.733   1.921  13.634 -0.6700  0.4285  0.0671
19525TIP3    H180066   3.725   1.868  13.555 -1.8202  0.8572 -0.1347
19525TIP3    H280067   3.660   1.893  13.689 -1.3003  1.7676 -0.0427
19526TIP3   OH280068   5.253   6.190   0.587 -0.2719 -0.3512  0.4534
19526TIP3    H180069   5.225   6.226   0.503  1.7761  0.9704  0.2897
19526TIP3    H280070   5.208   6.105   0.592 -0.0712 -0.6928 -2.1958
19527TIP3   OH280071   6.051   4.905  16.949  0.2181 -0.2808 -0.1884
19527TIP3    H180072   6.012   4.890  16.863 -0.6973 -0.1099  0.1949
19527TIP3    H280073   6.043   4.999  16.964 -0.1949 -0.3982  0.3514
19528TIP3   OH280074   4.802   4.198  15.469  0.6491  0.2543  0.6866
19528TIP3    H180075   4.894   4.178  15.485  1.2330  0.1214 -2.2804
19528TIP3    H280076   4.786   4.278  15.519  2.6264  0.7754  0.5798
19529TIP3   OH280077   0.736   2.550  16.423  0.6752  0.8565 -0.3354
19529TIP3    H180078   0.725   2.462  16.387 -1.1080  0.7671  0.3302
19529TIP3    H280079   0.647   2.581  16.441  1.3185  2.2555  0.7299
19530TIP3   OH280080   3.679   2.862   4.504 -0.3186  0.1635  0.0888
19530TIP3    H180081   3.621   2.935   4.526 -0.6855 -0.2036  0.3617
19530TIP3    H280082   3.660   2.796   4.571 -0.4570 -0.4342 -0.5235
19531TIP3   OH280083   3.763   0.936  14.733 -0.3896 -0.5904  0.4657
19531TIP3    H180084   3.818   0.873  14.781  0.2238  1.0671  2.0443
19531TIP3    H280085   3.710   0.978  14.801  0.2301  1.5946 -0.3347
19532TIP3   OH280086   2.537   2.662   1.456 -0.0757  0.2269  0.1725
19532TIP3    H180087   2.526   2.652   1.361  0.1518 -1.2613  0.2696
19532TIP3    H280088   2.630   2.644   1.471 -0.0401  0.7735  0.6498
19533TIP3   OH280089   2.048   5.933  16.480  0.5188  0.3275 -0.1774
19533TIP3    H180090   1.958   5.906  16.462  1.2011 -1.7218 -0.8431
19533TIP3    H280091   2.097   5.850  16.488  2.0058  1.3245  2.1228
19534TIP3   OH280092   2.809   2.807  16.509 -0.3538 -0.6241 -0.0313
19534TIP3    H180093   2.831   2.722  16.547  0.0103  0.5109  2.4649
19534TIP3    H280094   2.893   2.849  16.493 -0.5498 -0.0615  0.3859
19535TIP3   OH280095   0.489   1.333   4.915  0.0028  0.1254 -0.0753
19535TIP3    H180096   0.444   1.389   4.851 -0.5463  0.8239  0.8913
19535TIP3    H280097   0.582   1.351   4.901 -0.1762  1.6617  0.5094
19536TIP3   OH280098   6.734   1.390   0.352  0.4346  0.0025  0.0867
19536TIP3    H180099   6.741   1.314   0.409 -0.8321 -1.0952 -1.1413
19536TIP3    H280100   6.820   1.396   0.310 -0.4828 -3.3538 -2.8167
19537TIP3   OH280101   1.297   4.191  13.605  0.0282 -0.0152  0.0632
19537TIP3    H180102   1.373   4.163  13.656  0.6585  0.4852 -0.5824
19537TIP3    H280103   1.235   4.118  13.612 -0.0049  0.1480  1.7281
19538TIP3   OH280104   5.974   2.106   0.695 -0.1158 -0.1904 -0.0909
19538TIP3    H180105   5.886   2.142   0.681 -0.4491 -0.3016  1.5362
19538TIP3    H280106   5.966   2.013   0.673 -0.5942 -0.3438  0.7003
19539TIP3   OH280107   4.414   2.679   3.251  0.3207  0.0319 -0.3716
19539TIP3    H180108   4.412   2.630   3.169  0.7048  1.2647 -1.1339
19539TIP3    H280109   4.483   2.638   3.302 -0.5398 -1.3487 -0.2517
19540TIP3   OH280110   0.195   6.790   1.298 -0.5346 -0.4638  0.3575
19540TIP3    H180111   0.156   6.775   1.385  0.4771  1.0418  1.1103
19540TIP3    H280112   0.281   6.748   1.303  0.2275  1.0836  0.7112
19541TIP3   OH280113   2.427   2.767   2.050 -0.3522 -0.3990  0.7002
19541TIP3    H180114   2.340   2.738   2.077 -0.0692 -0.7253  1.2601
19541TIP3    H280115   2.461   2.816   2.125 -0.6839  1.1238 -0.0869
19542TIP3   OH280116   1.460   4.365  13.479  0.2060 -0.0728  0.2860
19542TIP3    H180117   1.528   4.322  13.426  0.5643 -1.2233  1.5947
19542TIP3    H280118   1.403   4.293  13.506  0.5764  0.2900  2.2001
19543TIP3   OH280119   5.550   6.530  11.216 -0.3114  0.7483  0.2356
19543TIP3    H180120   5.591   6.616  11.215  4.2640 -1.1606 -0.3834
19543TIP3    H280121   5.554   6.500  11.125  0.9793 -1.1805  0.8634
19544TIP3   OH280122   3.315   0.037   5.897  0.4471  0.2870  0.3404
19544TIP3    H180123   3.348   0.020   5.808 -1.7118  1.3290 -0.7542
19544TIP3    H280124   3.240  -0.021   5.906  0.5693  0.2932  1.4351
19545TIP3   OH280125   6.556   6.112  11.032 -0.0550 -0.0696  0.0179
19545TIP3    H180126   6.555   6.017  11.040  0.6724  0.0081  1.2405
19545TIP3    H280127   6.538   6.129  10.939 -0.7570 -1.3665 -0.0994
19546TIP3   OH280128   0.626   6.020  13.108 -0.2586 -0.3291 -0.2129
19546TIP3    H180129   0.542   6.062  13.122 -0.2909 -0.2600 -0.6101
19546TIP3    H280130   0.636   5.960  13.182 -1.7526 -2.1304 -1.3925
19547TIP3   OH280131   2.427   1.600  16.971  0.4262 -0.3603 -0.3035
19547TIP3    H180132   2.475   1.518  16.970  1.6398  0.3009  0.7092
19547TIP3    H280133   2.345   1.581  16.925  1.0129 -1.9126 -0.7552
19548TIP3   OH280134   6.271   2.288  12.480  0.2719 -0.4733 -0.1201
19548TIP3    H180135   6.257   2.367  12.532 -0.3706 -1.2276  0.8860
19548TIP3    H280136   6.342   2.311  12.420  0.8091  0.5332  0.8617
19549TIP3   OH280137   4.432   0.159   4.686  0.0769  0.5517  0.2284
19549TIP3    H180138   4.380   0.238   4.700  2.4719  1.9811  1.8612
19549TIP3    H280139   4.499   0.185   4.624  0.5921 -0.3657  0.3783
19550TIP3   OH280140   0.914   6.275   3.302  0.1069  0.2831 -0.0546
19550TIP3    H180141   0.908   6.354   3.249  1.4771  0.0194 -0.6440
19550TIP3    H280142   0.835   6.225   3.280  0.1029  0.6851 -0.9881
19551TIP3   OH280143   2.458   5.168  12.323  0.3373 -0.0078 -0.2266
19551TIP3    H180144   2.387   5.112  12.354  0.1967  0.3473  0.0894
19551TIP3    H280145   2.473   5.139  12.233  1.3140 -1.6059  0.4006
19552TIP3   OH280146   3.347   2.986   0.257 -0.3982 -0.3331 -0.2824
19552TIP3    H180147   3.262   2.977   0.212  0.1874 -1.0644 -1.2950
19552TIP3    H280148   3.357   3.080   0.269 -0.1641  0.0011 -2.5949
19553TIP3   OH280149   5.857   0.522  12.561 -0.1431  0.3246  0.0650
19553TIP3    H180150   5.856   0.450  12.499 -0.2485 -0.9146  1.4519
19553TIP3    H280151   5.765   0.543  12.575 -0.0879  1.5408 -1.2026
19554TIP3   OH280152   3.629   0.029  15.209 -0.3648  0.1277  0.1542
19554TIP3    H180153   3.699   0.094  15.199 -1.3895  1.5147  1.4198
19554TIP3    H280154   3.552   0.081  15.233 -1.7572 -1.3867 -0.8610
19555TIP3   OH280155   6.169   1.954  12.215  0.0186 -0.5317  0.1132
19555TIP3    H180156   6.248   1.994  12.250  0.7889 -2.2179  0.3899
19555TIP3    H280157   6.188   1.860  12.213 -1.5494 -0.8712 -0.9052
19556TIP3   OH280158   4.459   3.016  15.688  0.2818 -0.0506  0.2794
19556TIP3    H180159   4.414   2.943  15.731  0.9122  0.3914  1.7446
19556TIP3    H280160   4.550   3.008  15.716  0.4292  1.1148  0.1881
19557TIP3   OH280161   1.795   2.234  13.219  0.2221 -0.3613 -0.4632
19557TIP3    H180162   1.782   2.159  13.276  1.5798  1.4147  2.4226
19557TIP3    H280163   1.888   2.231  13.194  0.0907 -0.0782 -1.0219
19558TIP3   OH280164   3.529   3.082  14.165 -0.4080  0.6712 -0.0186
19558TIP3    H180165   3.568   3.166  14.186 -1.1052  1.3789 -1.4095
19558TIP3    H280166   3.448   3.079  14.216 -0.4461  0.9060 -0.0657
19559TIP3   OH280167   2.544   2.926   3.517  0.3546  0.3371  0.3814
19559TIP3    H180168   2.521   2.962   3.432 -0.1749  0.3500  0.5265
19559TIP3    H280169   2.629   2.885   3.504  0.3188  0.4229 -0.1285
19560TIP3   OH280170   4.944   6.118   5.970  0.1475 -0.4805  0.0340
19560TIP3    H180171   4.878   6.176   5.934  1.3022  1.2094  0.5204
19560TIP3    H280172   4.928   6.117   6.064  1.3203  0.6741  0.2741
19561TIP3   OH280173   1.973   2.057  11.781 -0.5335  0.0873 -0.9660
19561TIP3    H180174   1.895   2.063  11.835 -0.9478  0.8652 -1.6231
19561TIP3    H280175   2.040   2.020  11.838 -1.0050  0.7197  0.0142
19562TIP3   OH280176   1.445   3.722  13.951 -0.3231  0.0017 -0.5257
19562TIP3    H180177   1.397   3.804  13.935 -0.4984 -0.5965 -3.8561
19562TIP3    H280178   1.478   3.730  14.040 -1.7579  2.9479 -0.1404
19563TIP3   OH280179   1.091   3.326   2.291  0.1432  0.5605  0.2788
19563TIP3    H180180   1.052   3.408   2.320 -0.6079 -0.5065  2.5168
19563TIP3    H280181   1.176   3.322   2.335  0.6432  0.5931 -0.6511
19564TIP3   OH280182   4.941   0.135  11.319 -0.0088  0.2320  0.7512
19564TIP3    H180183   4.936   0.051  11.366  0.2084 -0.0405  0.2900
19564TIP3    H280184   5.019   0.178  11.355  0.7550 -0.4196 -0.0617
19565TIP3   OH280185   4.783   3.596   0.356  0.0107  0.2637  0.1004
19565TIP3    H180186   4.856   3.659   0.355 -1.7146  2.3780  0.0609
19565TIP3    H280187   4.785   3.559   0.444  1.5761 -0.3114 -0.1460
19566TIP3   OH280188   4.996   6.242  14.584  0.1017  0.6282  0.2441
19566TIP3    H180189   4.914   6.288  14.601 -0.9158 -1.0912  0.2249
19566TIP3    H280190   4.971   6.169  14.527  2.0173  1.2990 -1.5908
19567TIP3   OH280191   5.030   5.317   2.641 -1.0393 -0.1285 -0.6351
19567TIP3    H180192   4.973   5.389   2.668  1.3227  1.9965 -0.8479
19567TIP3    H280193   5.105   5.361   2.599  2.0618 -2.4320  1.9417
19568TIP3   OH280194   1.837   3.408   0.126 -0.6003 -0.2674  0.0649
19568TIP3    H180195   1.901   3.380   0.061 -1.8763 -1.6647 -0.6596
19568TIP3    H280196   1.759   3.429   0.075 -0.6337  1.8350  0.8802
19569TIP3   OH280197   4.163   1.552  14.803 -0.0567  0.5417 -0.0002
19569TIP3    H180198   4.141   1.640  14.835 -0.2654  0.4476  0.1222
19569TIP3    H280199   4.177   1.500  14.882 -0.8319  0.2435 -0.0488
19570TIP3   OH280200   5.228   2.896  15.653 -0.1283  0.3747  0.3594
19570TIP3    H180201   5.190   2.815  15.618  1.9110  0.2375 -1.8227
19570TIP3    H280202   5.288   2.867  15.721  0.1249  0.0677  0.0141
19571TIP3   OH280203   5.130   1.985   4.724 -0.0197  0.1944 -0.1472
19571TIP3    H180204   5.215   1.999   4.766 -0.0640 -2.5991  1.1577
19571TIP3    H280205   5.152   1.944   4.640 -0.0242 -1.2397  0.5189
19572TIP3   OH280206   0.392   0.941  11.777 -0.0604  0.6518  0.2410
19572TIP3    H180207   0.477   0.984  11.794  0.0499  0.3498  0.4600
19572TIP3    H280208   0.415   0.851  11.754 -0.2000  1.0659 -1.6820
19573TIP3   OH280209   1.441   6.480  14.704 -0.0813  0.3259  0.5629
19573TIP3    H180210   1.424   6.560  14.755 -0.3964  0.5477  0.1189
19573TIP3    H280211   1.387   6.490  14.626  0.1508 -0.1630  0.3371
19574TIP3   OH280212   6.022   5.690  12.872 -0.3100 -0.4993 -0.9636
19574TIP3    H180213   5.998   5.677  12.780 -0.1526 -0.9742 -0.9388
19574TIP3    H280214   5.983   5.616  12.918  0.8509 -1.0705 -0.8653
19575TIP3   OH280215   2.587   5.034   4.494  0.3730 -0.7379 -0.0828
19575TIP3    H180216   2.544   4.949   4.500 -0.4690 -0.3268 -0.0779
19575TIP3    H280217   2.539   5.081   4.426  0.4794 -0.0726  0.2913
19576TIP3   OH280218   4.872   1.924   5.888 -0.5919 -0.3849  0.4706
19576TIP3    H180219   4.870   1.896   5.796 -1.3877  2.0528 -0.3359
19576TIP3    H280220   4.803   1.873   5.930 -1.3112 -0.3982 -0.6862
19577TIP3   OH280221   3.778   4.905  11.130 -0.1351 -0.1185  0.2574
19577TIP3    H180222   3.738   4.938  11.050  2.1293 -0.0961 -0.9403
19577TIP3    H280223   3.768   4.810  11.125  0.3715 -0.1461 -0.2712
19578TIP3   OH280224   6.119   4.406  13.882 -0.3015  1.1507 -0.0693
19578TIP3    H180225   6.037   4.454  13.893  0.0144  1.1356  3.4110
19578TIP3    H280226   6.096   4.315  13.901  0.4896  1.1705  1.0781
19579TIP3   OH280227   4.125   3.366  16.623  0.4336  0.1701 -0.0205
19579TIP3    H180228   4.208   3.336  16.586  0.8608 -0.2015  1.2030
19579TIP3    H280229   4.061   3.353  16.553  1.5571  1.3421 -1.3134
19580TIP3   OH280230   4.195   2.739  10.863  0.7652  0.0266 -0.0925
19580TIP3    H180231   4.200   2.674  10.793  1.5051 -0.0051 -0.0125
19580TIP3    H280232   4.155   2.816  10.821  0.4967 -0.2510 -0.3493
19581TIP3   OH280233   2.604   5.545  16.813 -0.2441  0.1566  0.7336
19581TIP3    H180234   2.533   5.538  16.877  0.7185  0.0275  1.8068
19581TIP3    H280235   2.684   5.540  16.865  0.5643 -0.4982 -0.5358
19582TIP3   OH280236   6.827   4.206   3.343 -0.4570  0.8147  0.6714
19582TIP3    H180237   6.783   4.130   3.303 -0.9538  1.2466  0.3929
19582TIP3    H280238   6.868   4.170   3.422  0.8141 -0.1300 -0.3628
19583TIP3   OH280239   0.127   2.527   1.930 -0.0753  0.3679  0.3576
19583TIP3    H180240   0.169   2.489   2.007 -0.8387 -0.3160  0.4462
19583TIP3    H280241   0.148   2.465   1.859 -2.2099 -0.8581  0.7096
19584TIP3   OH280242   2.588   2.415  16.304 -0.8048  0.3078  0.3909
19584TIP3    H180243   2.515   2.435  16.246  1.6405  1.7825 -2.4505
19584TIP3    H280244   2.566   2.459  16.386 -3.0886  0.6564 -0.3315
19585TIP3   OH280245   1.605   2.860  15.613  0.4337  0.1062 -0.2218
19585TIP3    H180246   1.519   2.901  15.599  0.2106 -0.4400 -0.5026
19585TIP3    H280247   1.647   2.864  15.527  0.8404  0.7113  0.0059
19586TIP3   OH280248   3.818   6.810   4.723  0.2862  0.4551 -0.2126
19586TIP3    H180249   3.857   6.726   4.698 -0.8890 -0.0452 -0.4461
19586TIP3    H280250   3.806   6.803   4.818 -3.0170 -1.1425 -0.6032
19587TIP3   OH280251   4.343   0.878  11.496 -0.0852 -0.4176  0.0463
19587TIP3    H180252   4.400   0.939  11.542  2.2700 -1.2572 -1.5773
19587TIP3    H280253   4.304   0.824  11.565 -0.8429  1.6921  1.3743
19588TIP3   OH280254   0.786   5.237   1.460 -0.3626  0.3352  0.2567
19588TIP3    H180255   0.782   5.162   1.520 -1.7425  0.5677  0.4869
19588TIP3    H280256   0.819   5.201   1.378 -0.5077 -0.4173  0.5243
19589TIP3   OH280257   0.495   1.101  13.156  0.2753 -0.0475 -0.0629
19589TIP3    H180258   0.544   1.046  13.095 -0.3910  2.1614 -2.7975
19589TIP3    H280259   0.507   1.190  13.123 -2.3058  0.9955  1.5171
19590TIP3   OH280260   3.790   0.277   0.843 -0.5684 -0.4635 -0.7265
19590TIP3    H180261   3.754   0.353   0.888 -0.9688 -0.4065 -1.1400
19590TIP3    H280262   3.763   0.202   0.897  2.6492 -0.1714  1.6218
19591TIP3   OH280263   3.531   0.044   1.972 -0.2894  0.1513 -0.4229
19591TIP3    H180264   3.495  -0.033   1.927  0.6490 -0.0315 -0.8886
19591TIP3    H280265   3.507   0.031   2.064  1.1726 -1.4971 -0.2297
19592TIP3   OH280266   6.462   4.262   3.751 -0.4125  0.2506 -0.2831
19592TIP3    H180267   6.414   4.199   3.698  0.7332 -2.1177  1.3282
19592TIP3    H280268   6.554   4.246   3.732 -0.0378  0.3421  1.2828
19593TIP3   OH280269   5.533   0.573   2.642 -0.3037 -0.8626  0.5060
19593TIP3    H180270   5.461   0.547   2.584  0.7785 -1.0111 -0.8249
19593TIP3    H280271   5.569   0.490   2.674 -0.6295 -0.7949  1.0428
19594TIP3   OH280272   2.910   6.528  14.095 -0.6142 -0.4402 -0.1261
19594TIP3    H180273   2.816   6.549  14.094 -0.4041  1.1115 -3.5836
19594TIP3    H280274   2.915   6.439  14.060 -0.7974  0.1682 -1.8134
19595TIP3   OH280275   2.108   2.936   5.555  0.4822 -0.0814  0.0961
19595TIP3    H180276   2.127   2.968   5.467  2.0118 -2.3760 -0.5027
19595TIP3    H280277   2.125   3.012   5.612  0.9339  1.0266 -1.4517
19596TIP3   OH280278   2.092   1.681  16.176 -0.3560  0.6664  0.3264
19596TIP3    H180279   2.041   1.690  16.096 -1.1091  0.4903  0.7729
19596TIP3    H280280   2.027   1.689  16.246 -0.1922 -2.0637  0.8982
19597TIP3   OH280281   4.850   6.674   6.316 -0.6397 -0.3356  0.3991
19597TIP3    H180282   4.772   6.697   6.265  0.4676 -0.8129 -1.6171
19597TIP3    H280283   4.900   6.755   6.322 -0.9538 -0.1872  1.1054
19598TIP3   OH280284   6.546   3.077  15.364 -0.0522 -0.3753 -0.4646
19598TIP3    H180285   6.586   3.106  15.282 -1.2854  1.0220 -0.6184
19598TIP3    H280286   6.477   3.016  15.337  0.6174 -1.1928 -0.3441
19599TIP3   OH280287   3.831   6.801   3.997  0.0843  0.4910  0.2797
19599TIP3    H180288   3.914   6.821   4.040 -1.0930  1.6484  2.1503
19599TIP3    H280289   3.767   6.800   4.068 -1.5732 -0.0404 -1.1525
19600TIP3   OH280290   4.602   1.889  10.856 -0.1464 -0.3948 -0.4897
19600TIP3    H180291   4.572   1.798  10.851  0.9473 -0.7581 -0.8928
19600TIP3    H280292   4.523   1.941  10.844 -0.6831 -1.2909 -0.9831
19601TIP3   OH280293   2.210   4.804  15.318  0.2201  0.2859  0.1269
19601TIP3    H180294   2.231   4.794  15.411  1.2411 -0.1910 -0.1430
19601TIP3    H280295   2.115   4.794  15.314  0.2961 -1.0173  0.9589
19602TIP3   OH280296   4.228   6.667   1.408  0.3079  0.1146  0.7870
19602TIP3    H180297   4.150   6.664   1.352  1.2256  2.0764 -0.7331
19602TIP3    H280298   4.242   6.576   1.435 -1.6877 -0.4938 -0.0130
19603TIP3   OH280299   6.808   3.363  16.641  0.8308 -0.0375  0.0530
19603TIP3    H180300   6.799   3.280  16.595 -2.5746 -0.5260  1.3346
19603TIP3    H280301   6.746   3.422  16.597 -0.1461  0.4119  1.9092
19604TIP3   OH280302   3.916   2.929   5.364  0.4522  0.4940  0.2182
19604TIP3    H180303   3.864   2.894   5.436 -1.2696 -0.7604 -1.5391
19604TIP3    H280304   3.988   2.866   5.355 -0.2798 -0.3077 -0.2183
19605TIP3   OH280305   3.844   0.663  15.236 -0.0235 -0.3938  0.1645
19605TIP3    H180306   3.787   0.625  15.170  0.0328 -0.3910  0.1145
19605TIP3    H280307   3.869   0.588  15.291  0.7403 -0.5745 -0.4145
19606TIP3   OH280308   2.106   2.462  15.404 -0.3758  0.1427  0.1833
19606TIP3    H180309   2.126   2.556  15.395 -1.3387  0.4861  1.3902
19606TIP3    H280310   2.097   2.449  15.498 -0.2268 -1.1888  0.0224
19607TIP3   OH280311   5.971   3.276   6.181 -0.2532  0.0993 -0.0478
19607TIP3    H180312   5.908   3.309   6.246 -1.0909 -2.2038  0.4118
19607TIP3    H280313   6.056   3.282   6.225 -0.7328 -0.8351  1.0803
19608TIP3   OH280314   4.901   2.030   5.014  0.2077  0.1237  0.3732
19608TIP3    H180315   4.846   2.034   4.935  0.9996 -1.5338 -0.2973
19608TIP3    H280316   4.986   2.063   4.985 -0.1342  1.9023  1.2110
19609TIP3   OH280317   0.169   5.626  16.656 -0.8977 -0.3742  0.1223
19609TIP3    H180318   0.236   5.655  16.717 -0.5629 -1.9869  0.5456
19609TIP3    H280319   0.200   5.654  16.570  0.2677 -0.9990  0.3297
19610TIP3   OH280320   6.392   3.432  11.259 -0.3301  0.5096 -0.1470
19610TIP3    H180321   6.369   3.392  11.175 -1.2439  1.2818 -0.2768
19610TIP3    H280322   6.487   3.442  11.255 -0.4949  1.8246 -1.6918
19611TIP3   OH280323   6.644   2.838   5.953  1.0350 -0.5058  0.3108
19611TIP3    H180324   6.587   2.767   5.924  0.2025  0.1604  0.2841
19611TIP3    H280325   6.614   2.859   6.042  0.1892  0.8759 -0.2619
19612TIP3   OH280326   0.884   5.327   3.951  0.1744 -0.1483  0.1301
19612TIP3    H180327   0.824   5.253   3.944 -0.2587  0.0877  1.1039
19612TIP3    H280328   0.916   5.341   3.862  1.8841 -2.7902  0.2198
19613TIP3   OH280329   6.105   5.374  14.249  0.3691 -0.0869 -0.2969
19613TIP3    H180330   6.031   5.360  14.190  0.8854 -1.3674 -0.6779
19613TIP3    H280331   6.074   5.439  14.312 -0.8203 -0.0628 -0.8843
19614TIP3   OH280332   3.606   6.450  11.424  0.5263 -0.2469  0.7257
19614TIP3    H180333   3.513   6.453  11.443  0.0824 -1.1369 -1.0704
19614TIP3    H280334   3.629   6.357  11.432  0.8397 -0.2970 -0.4825
19615TIP3   OH280335   5.832   2.229  16.748  0.9089 -0.5283 -0.6060
19615TIP3    H180336   5.904   2.256  16.690  1.9642 -1.4964  0.2167
19615TIP3    H280337   5.872   2.224  16.835 -0.4315 -0.0272  0.0649
19616TIP3   OH280338   5.037   0.521  15.429 -0.2932  0.2260  0.0977
19616TIP3    H180339   4.979   0.490  15.360  0.3927  0.2317 -0.4880
19616TIP3    H280340   5.091   0.588  15.387 -1.4273  1.9270  1.2011
19617TIP3   OH280341   6.836   3.870   0.021  0.3855  0.1294  0.0260
19617TIP3    H180342   6.751   3.855   0.064  0.0207 -1.7901 -1.2521
19617TIP3    H280343   6.834   3.962  -0.004 -0.7869  0.4321  1.1232
19618TIP3   OH280344   1.563   2.188  12.120 -0.3279  0.7971  0.3187
19618TIP3    H180345   1.557   2.134  12.198 -1.4843 -0.5867 -0.6876
19618TIP3    H280346   1.473   2.212  12.100 -0.4938 -1.5656 -2.3585
19619TIP3   OH280347   6.553   6.534   4.992  0.0302  0.8304 -0.3846
19619TIP3    H180348   6.590   6.475   4.926 -1.1925 -1.3851  0.7751
19619TIP3    H280349   6.609   6.523   5.068  1.2007  3.0766 -0.8398
19620TIP3   OH280350   3.728   2.341  14.912 -0.0632  0.5593 -0.4148
19620TIP3    H180351   3.680   2.409  14.958  0.0781  0.2641  0.1716
19620TIP3    H280352   3.708   2.260  14.960  0.2488  0.2821 -0.7432
19621TIP3   OH280353   2.305   2.764  13.339 -0.3523 -0.3679  0.4265
19621TIP3    H180354   2.252   2.733  13.412  0.6429 -1.0741  0.8706
19621TIP3    H280355   2.375   2.699  13.331 -0.2805 -0.1500 -0.9714
19622TIP3   OH280356   4.604   5.996   0.119 -0.3513  0.4303  0.7092
19622TIP3    H180357   4.550   6.042   0.055 -0.3771 -0.9546 -0.3140
19622TIP3    H280358   4.635   6.064   0.178 -0.2519  1.7721 -0.8282
19623TIP3   OH280359   3.753   3.474  11.999  0.3059  0.0234  0.0868
19623TIP3    H180360   3.702   3.396  12.021  1.4511 -0.9731 -0.7147
19623TIP3    H280361   3.793   3.500  12.082  1.3345 -1.3078  0.0356
19624TIP3   OH280362   2.917   4.166  10.839 -0.0933 -0.1130  0.0653
19624TIP3    H180363   2.876   4.095  10.791  0.9620 -0.1798 -0.7796
19624TIP3    H280364   2.849   4.233  10.847 -1.0218 -1.1097  0.6634
19625TIP3   OH280365   2.342   0.310  14.615  0.0537 -0.4482 -0.0052
19625TIP3    H180366   2.278   0.241  14.635 -0.9105  0.3768 -0.1601
19625TIP3    H280367   2.308   0.352  14.537  0.2082  0.7127  0.5377
19626TIP3   OH280368   5.803   6.513   2.814 -0.0311 -0.6890  0.7873
19626TIP3    H180369   5.749   6.450   2.862 -0.9567 -0.4244  0.1266
19626TIP3    H280370   5.843   6.567   2.882 -3.5986  1.6032  1.3705
19627TIP3   OH280371   1.591   6.539  15.014 -0.4847 -0.7711  0.5784
19627TIP3    H180372   1.632   6.460  14.981  0.5753 -0.3658  0.8717
19627TIP3    H280373   1.611   6.606  14.949 -0.4123 -0.4963  0.8810
19628TIP3   OH280374   1.324   2.046   5.627 -0.0079  0.6093  0.4402
19628TIP3    H180375   1.385   2.102   5.676 -2.3300  1.6952  2.2929
19628TIP3    H280376   1.309   1.971   5.684  0.7813 -0.4599 -0.7174
19629TIP3   OH280377   0.371   3.068  13.793 -0.1500  0.2338  0.0991
19629TIP3    H180378   0.420   2.987  13.785 -1.0205 -0.2183 -0.8898
19629TIP3    H280379   0.297   3.058  13.734 -1.6837  0.7090  1.8167
19630TIP3   OH280380   5.699   1.977   1.755 -0.1181  0.6497 -0.6378
19630TIP3    H180381   5.608   2.008   1.759 -0.5798 -0.7794  2.2549
19630TIP3    H280382   5.752   2.053   1.779 -0.7955  0.7037  0.7290
19631TIP3   OH280383   0.644   0.414   4.140 -0.3825 -0.0299  0.4632
19631TIP3    H180384   0.633   0.453   4.227 -0.2480  0.5054  0.2470
19631TIP3    H280385   0.680   0.327   4.157  2.2878  1.0659  0.8641
19632TIP3   OH280386   0.793   6.138   2.824  0.5722 -0.1706  0.4240
19632TIP3    H180387   0.712   6.107   2.863  0.4397 -1.1177 -0.5633
19632TIP3    H280388   0.767   6.178   2.741  1.1362 -0.7101 -0.0190
19633TIP3   OH280389   2.146   1.938  15.975  0.7938 -0.1870  0.2251
19633TIP3    H180390   2.057   1.917  15.945  0.4431  0.9294  0.4428
19633TIP3    H280391   2.200   1.868  15.939  0.5760  1.4451 -3.8255
19634TIP3   OH280392   1.200   3.480  13.998  0.0502 -0.2445  0.9059
19634TIP3    H180393   1.275   3.439  13.953  0.3707  0.5143  0.7228
19634TIP3    H280394   1.183   3.559  13.947 -0.0949  0.2213  1.6624
19635TIP3   OH280395   1.673   6.189  15.983  0.1082  0.4769 -0.4703
19635TIP3    H180396   1.654   6.215  16.073 -1.0809  0.1786 -0.6267
19635TIP3    H280397   1.765   6.160  15.986  0.1865  0.7984  0.5640
19636TIP3   OH280398   6.394   1.551  12.857 -0.0937 -0.4036  0.5966
19636TIP3    H180399   6.426   1.466  12.886  0.9831 -0.0136  0.6072
19636TIP3    H280400   6.308   1.533  12.820  0.7971 -1.8034 -0.9876
19637TIP3   OH280401   3.489   6.202   3.026 -0.0436  0.9278  0.1213
19637TIP3    H180402   3.395   6.194   3.040 -0.1033 -1.5507 -1.2486
19637TIP3    H280403   3.528   6.155   3.099  0.0845  0.6877 -0.1007
19638TIP3   OH280404   3.562   5.468  12.412 -0.1408 -0.9434 -0.0743
19638TIP3    H180405   3.633   5.403  12.421 -0.5444 -1.3365  0.3471
19638TIP3    H280406   3.538   5.464  12.320  1.5617  0.4662 -0.6414
19639TIP3   OH280407   3.642   0.585   5.040 -0.4943 -0.2694  0.1788
19639TIP3    H180408   3.700   0.528   5.090  0.4020 -0.0084 -0.5582
19639TIP3    H280409   3.643   0.668   5.088 -1.4232 -0.6950  0.9806
19640TIP3   OH280410   2.117   4.579  13.920 -0.0956  0.2364 -0.0773
19640TIP3    H180411   2.086   4.507  13.975  0.2987 -0.1329 -0.3334
19640TIP3    H280412   2.197   4.546  13.879 -0.0773  0.7098 -0.4396
19641TIP3   OH280413   3.087   3.711   2.748 -0.0269 -0.1231  0.2689
19641TIP3    H180414   3.143   3.634   2.742  0.5104  0.3223 -0.7721
19641TIP3    H280415   3.012   3.683   2.800  0.2732 -1.2795  0.0957
19642TIP3   OH280416   1.564   2.765   5.731  0.0225 -0.6192 -0.1690
19642TIP3    H180417   1.598   2.807   5.810 -0.0938 -0.0127 -0.4335
19642TIP3    H280418   1.499   2.827   5.698 -2.0286 -2.1377  0.8191
19643TIP3   OH280419   1.573   4.093   5.506  0.3113 -0.4897  0.1265
19643TIP3    H180420   1.612   4.045   5.579  0.5899  0.8527  0.8888
19643TIP3    H280421   1.485   4.115   5.536  1.1140  1.8533  0.9448
19644TIP3   OH280422   0.350   6.842  12.857  0.7101  0.0613  0.1717
19644TIP3    H180423   0.359   6.917  12.800  1.0023 -0.5177 -0.5600
19644TIP3    H280424   0.350   6.766  12.798 -3.4139 -0.4011  0.4324
19645TIP3   OH280425   1.152   2.165  11.612 -0.3484 -0.0580 -0.0440
19645TIP3    H180426   1.074   2.184  11.560 -0.4493  1.4415  0.6210
19645TIP3    H280427   1.161   2.069  11.607 -1.1407 -0.0782 -1.6522
19646TIP3   OH280428   1.136   3.056  13.987  0.1454  0.2921  0.1818
19646TIP3    H180429   1.193   3.002  14.042 -0.6600 -0.5431  0.2226
19646TIP3    H280430   1.194   3.090  13.919  0.7116 -0.4770  0.2656
19647TIP3   OH280431   5.436   4.402   5.400 -0.6052  0.1029 -0.1358
19647TIP3    H180432   5.520   4.444   5.382 -0.0106  0.7237  3.3418
19647TIP3    H280433   5.458   4.328   5.457 -2.4234  1.6730  2.9230
19648TIP3   OH280434   0.052   4.570   4.128 -0.1001  0.3012  0.2678
19648TIP3    H180435   0.105   4.506   4.177 -1.0457 -1.3979 -0.8310
19648TIP3    H280436  -0.026   4.521   4.102 -0.3580  1.5982 -1.5754
19649TIP3   OH280437   2.921   5.870   2.085  0.5480 -0.1287 -0.3004
19649TIP3    H180438   2.960   5.943   2.133  1.2974 -1.4211  1.1412
19649TIP3    H280439   2.861   5.912   2.022  2.1327  1.7926 -0.6460
19650TIP3   OH280440   0.373   5.045  13.197 -0.5325  0.4290 -0.1397
19650TIP3    H180441   0.336   5.008  13.278  0.0236  0.0351 -0.0543
19650TIP3    H280442   0.300   5.088  13.154 -0.8928  0.4180  0.4525
19651TIP3   OH280443   0.491   2.015  16.702 -0.3660  0.4632  0.6186
19651TIP3    H180444   0.552   1.974  16.763  0.7755  0.3405 -0.5542
19651TIP3    H280445   0.517   2.107  16.702 -1.4587  0.7954  1.5491
19652TIP3   OH280446   4.897   2.020  10.686  0.4202 -0.2139  0.1827
19652TIP3    H180447   4.840   2.097  10.683  0.3229 -0.2957 -0.0982
19652TIP3    H280448   4.881   1.975  10.603  1.1304 -0.0642 -0.0397
19653TIP3   OH280449   4.747   6.429   4.542 -0.3235 -0.0225 -0.7807
19653TIP3    H180450   4.711   6.502   4.492 -1.9448  0.5318  1.0416
19653TIP3    H280451   4.823   6.467   4.587 -0.2470  0.1174 -1.0245
19654TIP3   OH280452   2.977   0.945  15.588  0.0079 -0.1761  0.4344
19654TIP3    H180453   3.049   1.005  15.611  0.6815 -0.7680 -0.0949
19654TIP3    H280454   2.954   0.903  15.671  0.2279  0.0682  0.6222
19655TIP3   OH280455   5.902   3.209  11.657  0.6122  0.3137 -0.2015
19655TIP3    H180456   5.965   3.179  11.592 -0.2685 -0.4371 -0.7228
19655TIP3    H280457   5.824   3.155  11.642  0.0112  0.8977  0.7423
19656TIP3   OH280458   3.583   4.361   3.558  0.0814 -0.1394 -0.0999
19656TIP3    H180459   3.611   4.298   3.624 -0.2378 -1.9428 -1.6110
19656TIP3    H280460   3.487   4.354   3.557  0.0453  0.3350 -0.3116
19657TIP3   OH280461   6.678   0.816  13.435 -0.2991  0.0667  0.6842
19657TIP3    H180462   6.744   0.852  13.495 -0.5240  0.1688  0.8741
19657TIP3    H280463   6.598   0.811  13.488 -0.1261 -1.3030  0.8527
19658TIP3   OH280464   4.884   5.314   4.682 -0.3599  0.0737  0.3531
19658TIP3    H180465   4.851   5.400   4.709 -0.5856  0.4122 -0.9624
19658TIP3    H280466   4.866   5.309   4.588 -2.1733 -2.2164  0.7088
19659TIP3   OH280467   4.990   4.026  14.746 -0.0469  0.3002  0.3308
19659TIP3    H180468   5.086   4.029  14.752  0.0950 -0.4937 -1.1274
19659TIP3    H280469   4.961   4.015  14.836  1.3380 -1.3381  0.6269
19660TIP3   OH280470   1.681   0.237   1.618 -0.3819 -0.3621  0.8818
19660TIP3    H180471   1.607   0.226   1.677 -1.4232 -0.8673 -0.4715
19660TIP3    H280472   1.758   0.214   1.670 -1.3267 -1.3759  1.8478
19661TIP3   OH280473   3.743   1.739  16.088  0.2105 -1.1743 -0.4894
19661TIP3    H180474   3.820   1.686  16.068  0.4542 -0.9608 -0.1358
19661TIP3    H280475   3.726   1.722  16.181 -1.1304 -2.4472 -0.9289
19662TIP3   OH280476   3.031   5.981  12.380  0.2516  0.5810 -0.9069
19662TIP3    H180477   3.063   5.935  12.458 -1.3486  0.9093 -0.0171
19662TIP3    H280478   3.073   5.935  12.307 -0.6513 -1.8166 -0.0178
19663TIP3   OH280479   4.755   1.100  16.994 -0.3126 -0.1438 -1.0289
19663TIP3    H180480   4.809   1.066  17.066 -1.3459 -0.1224 -0.2248
19663TIP3    H280481   4.673   1.126  17.036 -0.4826  1.0072 -2.0238
19664TIP3   OH280482   3.016   1.242  17.021  0.3020 -0.4118 -0.3475
19664TIP3    H180483   2.985   1.255  17.111 -0.4744  2.0389 -0.8888
19664TIP3    H280484   3.085   1.176  17.029 -1.7064 -2.4524  1.5978
19665TIP3   OH280485   5.697   6.233  12.441  0.4074 -0.4472 -0.5430
19665TIP3    H180486   5.638   6.204  12.371  0.1877  1.1538 -1.0635
19665TIP3    H280487   5.716   6.324  12.420 -1.6238  0.9255  2.7515
19666TIP3   OH280488   5.960   3.675   2.129  0.4163 -0.2374  0.1274
19666TIP3    H180489   5.954   3.770   2.124  0.6179 -0.1326  1.6609
19666TIP3    H280490   5.902   3.644   2.059  0.2347  0.9980 -0.2862
19667TIP3   OH280491   6.726   5.310   2.097 -0.0729 -0.4969  0.0570
19667TIP3    H180492   6.754   5.401   2.087 -1.6730  0.0335  0.1473
19667TIP3    H280493   6.659   5.298   2.030 -0.0633 -1.5406  0.2172
19668TIP3   OH280494   5.163   0.064  13.184 -0.2631  0.0278  0.0564
19668TIP3    H180495   5.092   0.057  13.247 -0.7091  0.1742 -0.4257
19668TIP3    H280496   5.170  -0.023  13.145 -0.4399  0.1173 -0.1760
19669TIP3   OH280497   2.073   1.057  13.265  0.2303 -0.0630 -0.3419
19669TIP3    H180498   2.152   1.029  13.218  0.4855 -1.3150  0.7733
19669TIP3    H280499   2.083   1.151  13.276  1.8892 -0.2933  0.3388
19670TIP3   OH280500   0.133   5.407   3.875 -0.2434 -0.2658  0.4644
19670TIP3    H180501   0.170   5.475   3.820 -0.4727 -0.1527  0.4470
19670TIP3    H280502   0.049   5.386   3.834  0.2839 -1.3030 -0.1284
19671TIP3   OH280503   3.148   5.800  15.207  0.1275  0.3360 -0.4450
19671TIP3    H180504   3.059   5.774  15.233 -0.0861  1.2171 -0.2725
19671TIP3    H280505   3.203   5.768  15.278  0.1894 -1.7289 -1.3521
19672TIP3   OH280506   5.345   5.759   6.688 -0.2234  0.1424 -0.2840
19672TIP3    H180507   5.343   5.798   6.776 -2.1775 -0.4004 -0.0455
19672TIP3    H280508   5.266   5.706   6.684  0.5684 -0.9723 -1.8939
19673TIP3   OH280509   4.810   5.953  16.393 -0.3086 -0.5485 -0.3366
19673TIP3    H180510   4.808   5.984  16.484  0.4541 -1.3355 -0.0324
19673TIP3    H280511   4.874   6.010  16.350 -1.5148  0.5850 -0.7001
19674TIP3   OH280512   4.090   6.063  14.694 -0.1711  0.1198 -0.1008
19674TIP3    H180513   4.040   5.986  14.669  1.2723 -0.8038 -0.2625
19674TIP3    H280514   4.120   6.100  14.611  0.8640 -0.3706  0.0280
19675TIP3   OH280515   6.838   1.520   3.738  0.1710 -0.0825 -0.2439
19675TIP3    H180516   6.752   1.559   3.720  0.2559  0.0821 -0.2905
19675TIP3    H280517   6.830   1.486   3.828 -0.0052 -0.2385 -0.3179
19676TIP3   OH280518   1.777   6.671   2.396 -0.7837 -0.9767  0.1584
19676TIP3    H180519   1.867   6.684   2.367 -0.5668  0.1047  1.2531
19676TIP3    H280520   1.724   6.692   2.319 -0.2093  1.4111  0.3415
19677TIP3   OH280521   3.119   0.750   0.402 -0.2536 -0.1358 -0.0328
19677TIP3    H180522   3.107   0.705   0.485  1.9602  3.5910  2.6093
19677TIP3    H280523   3.213   0.745   0.385 -0.4259  0.6706 -1.3788
19678TIP3   OH280524   4.113   5.367  13.584 -0.0858  0.3878 -0.2570
19678TIP3    H180525   4.034   5.420  13.591 -0.7751 -0.4004 -1.6842
19678TIP3    H280526   4.131   5.363  13.490  0.5319 -1.0724 -0.1007
19679TIP3   OH280527   4.865   2.887  16.168  0.1476 -0.1112 -0.3308
19679TIP3    H180528   4.828   2.910  16.254  0.8509 -0.1811  0.0030
19679TIP3    H280529   4.956   2.918  16.173  0.2156 -0.1959 -1.0217
19680TIP3   OH280530   0.888   0.365   1.444  0.0795  0.0510 -0.0866
19680TIP3    H180531   0.799   0.362   1.408 -0.0064  0.3050  0.0989
19680TIP3    H280532   0.942   0.321   1.379  0.2399  2.1741 -1.4726
19681TIP3   OH280533   3.076   3.189  12.795 -0.3928 -0.0976 -0.2497
19681TIP3    H180534   3.073   3.275  12.753  2.5443  0.3170  0.2424
19681TIP3    H280535   2.984   3.167  12.810 -1.2219  3.0688 -0.0959
19682TIP3   OH280536   2.321   3.279   1.138  0.4731  0.8681 -0.0528
19682TIP3    H180537   2.367   3.362   1.130 -1.3694  1.8811 -0.6451
19682TIP3    H280538   2.232   3.302   1.163 -0.7979 -0.6863 -2.6389
19683TIP3   OH280539   0.077   2.066   5.347 -0.2471 -0.3239  0.0251
19683TIP3    H180540   0.021   2.112   5.284  1.3070  1.6113 -0.0531
19683TIP3    H280541   0.064   2.113   5.429  2.9795  1.8644 -0.5279
19684TIP3   OH280542   3.927   5.201  16.321 -0.2366  0.0006 -0.0632
19684TIP3    H180543   3.931   5.127  16.382  1.4713 -1.3453 -1.6943
19684TIP3    H280544   3.865   5.174  16.254 -0.9048  0.8114  0.2087
19685TIP3   OH280545   6.493   1.807  14.680  0.0663  0.3184 -0.0625
19685TIP3    H180546   6.420   1.753  14.712  0.7378  0.0825  1.1148
19685TIP3    H280547   6.489   1.798  14.585 -0.3452 -1.1537  0.0653
19686TIP3   OH280548   0.598   1.970   2.534 -0.4923  0.2411 -0.1495
19686TIP3    H180549   0.566   1.911   2.465 -2.2022  1.8767 -0.8526
19686TIP3    H280550   0.574   1.927   2.616  0.2013 -1.0111 -0.5717
19687TIP3   OH280551   1.996   2.950  16.957 -0.2020  0.1940 -0.2592
19687TIP3    H180552   2.068   2.889  16.937 -0.5400 -0.2831 -0.0461
19687TIP3    H280553   1.988   3.003  16.879 -0.4335 -0.5773 -0.7752
19688TIP3   OH280554   5.796   3.636  12.957 -0.5235 -0.6449  0.1245
19688TIP3    H180555   5.709   3.608  12.988 -0.4874  0.1234  0.9626
19688TIP3    H280556   5.842   3.663  13.036 -0.3240  1.1270 -0.5412
19689TIP3   OH280557   4.355   4.455   5.359 -0.3175  0.6730 -0.4109
19689TIP3    H180558   4.431   4.409   5.324  0.4371  1.1071  0.6118
19689TIP3    H280559   4.294   4.385   5.384  0.4613  0.2566  0.3491
19690TIP3   OH280560   5.284   4.642  13.616  0.0281  0.4694 -0.2600
19690TIP3    H180561   5.286   4.648  13.712 -0.5187  0.7836 -0.2598
19690TIP3    H280562   5.269   4.732  13.587 -1.6986  0.1346 -0.5578
19691TIP3   OH280563   5.474   3.237  12.794  0.0347 -0.3071 -0.0671
19691TIP3    H180564   5.416   3.185  12.849 -1.3485 -0.0914 -1.2455
19691TIP3    H280565   5.416   3.300  12.751  1.3202  0.6681 -0.4498
19692TIP3   OH280566   1.646   3.669  16.006 -0.2080  0.0562 -0.0746
19692TIP3    H180567   1.565   3.619  15.993  0.4389 -1.0483  0.0160
19692TIP3    H280568   1.617   3.750  16.050 -1.3712  0.1202 -0.8972
19693TIP3   OH280569   2.528   0.310   1.173 -0.1319 -0.2295  0.2822
19693TIP3    H180570   2.481   0.227   1.165 -0.5714  0.1386 -1.3471
19693TIP3    H280571   2.570   0.322   1.087  0.5740  0.8451  0.7561
19694TIP3   OH280572   0.504   0.518  15.881 -0.4842  0.1067 -0.5019
19694TIP3    H180573   0.443   0.448  15.905 -0.9553 -0.3706 -2.8895
19694TIP3    H280574   0.505   0.518  15.785  1.6014  1.5807 -0.5529
19695TIP3   OH280575   0.338   0.351   5.226  0.7389 -0.2774  0.3925
19695TIP3    H180576   0.371   0.339   5.137 -1.1721 -0.7245 -0.3083
19695TIP3    H280577   0.320   0.445   5.233 -2.2239 -0.6296 -0.9550
19696TIP3   OH280578   2.536   1.781   3.193  0.1818 -0.0562  0.0137
19696TIP3    H180579   2.566   1.851   3.135 -0.5399  1.3251  1.2607
19696TIP3    H280580   2.469   1.736   3.142  2.4273 -1.6014 -1.8290
19697TIP3   OH280581   0.028   6.807   1.582  0.3075  0.1288  0.5494
19697TIP3    H180582  -0.034   6.735   1.570  0.1130  0.4882 -0.7248
19697TIP3    H280583   0.112   6.764   1.598  0.1460 -0.3888  0.0338
19698TIP3   OH280584   5.470   1.814   3.007 -0.6901  0.3146 -0.0996
19698TIP3    H180585   5.395   1.756   2.995 -2.1774  1.9803  0.6435
19698TIP3    H280586   5.534   1.784   2.943 -2.2380 -0.7736 -1.2148
19699TIP3   OH280587   5.410   5.293   1.463  0.1685  0.2784  0.2803
19699TIP3    H180588   5.435   5.228   1.529 -0.5916 -0.0861  0.2243
19699TIP3    H280589   5.481   5.358   1.465 -1.0897  1.7503  3.3376
19700TIP3   OH280590   5.578   1.186   4.810  0.2203 -0.6700 -0.7271
19700TIP3    H180591   5.588   1.271   4.852  2.1912 -0.3577 -1.7092
19700TIP3    H280592   5.518   1.202   4.737 -1.2969 -0.7029  0.4401
19701TIP3   OH280593   5.694   5.425  16.654  0.8117  0.5332  0.0838
19701TIP3    H180594   5.735   5.358  16.599 -0.9609  0.7978 -1.6428
19701TIP3    H280595   5.756   5.498  16.652  1.1559  0.2292 -0.8600
19702TIP3   OH280596   1.586   4.990   1.845 -0.2867 -0.1704  0.0190
19702TIP3    H180597   1.529   5.041   1.788 -1.7622 -2.1436 -0.3730
19702TIP3    H280598   1.533   4.972   1.922 -0.5853 -2.7308 -0.7004
19703TIP3   OH280599   1.950   3.903  13.442 -0.0926 -0.4859 -0.7650
19703TIP3    H180600   2.004   3.945  13.375  0.1871 -0.2984 -0.4269
19703TIP3    H280601   1.924   3.820  13.403  2.1677 -1.5437 -0.1654
19704TIP3   OH280602   6.737   6.398   2.883  0.1653 -1.1451 -0.2356
19704TIP3    H180603   6.775   6.403   2.970 -0.3973 -1.5241  0.0353
19704TIP3    H280604   6.647   6.430   2.894  0.1010 -1.1674 -0.6786
19705TIP3   OH280605   5.406   6.524  14.086  0.2900 -0.1511  0.5351
19705TIP3    H180606   5.393   6.480  14.002  1.9146 -0.5657  0.4741
19705TIP3    H280607   5.317   6.535  14.121 -0.5357  1.0329 -1.7083
19706TIP3   OH280608   1.612   2.224  11.541  0.1741  0.1303  0.0526
19706TIP3    H180609   1.573   2.167  11.474  4.3800 -1.3125 -1.5107
19706TIP3    H280610   1.628   2.307  11.496 -2.0327  1.2154  1.0888
19707TIP3   OH280611   3.911   4.166  17.036 -0.0033 -0.1133 -0.1159
19707TIP3    H180612   3.902   4.226  16.962  1.7514 -1.3382 -1.4140
19707TIP3    H280613   3.829   4.117  17.037 -0.1252  0.0286 -1.1886
19708TIP3   OH280614   0.314   0.304  15.924 -0.4248  0.0106 -0.1986
19708TIP3    H180615   0.269   0.375  15.970  0.1116  0.0544  0.2723
19708TIP3    H280616   0.257   0.228  15.936 -0.2587  0.0063  0.6110
19709TIP3   OH280617   3.673   5.928  13.312  0.2988 -0.4530  0.5406
19709TIP3    H180618   3.638   5.918  13.400 -0.1613  2.0381  0.7136
19709TIP3    H280619   3.596   5.945  13.257  0.6703 -1.1063 -0.2133
19710TIP3   OH280620   2.677   1.758   1.423  0.5988 -0.1105 -0.3600
19710TIP3    H180621   2.631   1.689   1.471  0.0758 -0.1557 -0.9107
19710TIP3    H280622   2.707   1.818   1.491  0.0831 -0.2975  0.0477
19711TIP3   OH280623   1.813   1.896   4.788  0.0101 -0.1749  0.7986
19711TIP3    H180624   1.832   1.922   4.878  0.7673  1.2869  0.2478
19711TIP3    H280625   1.897   1.901   4.743 -0.1958 -1.7248  0.1752
19712TIP3   OH280626   3.317   4.441  14.122 -0.3901  0.0798 -0.5795
19712TIP3    H180627   3.359   4.524  14.145 -0.0483  0.3375 -1.9987
19712TIP3    H280628   3.333   4.432  14.028 -0.8777 -1.3431 -0.5521
19713TIP3   OH280629   1.978   1.736  15.218  0.1891 -0.6080 -0.0394
19713TIP3    H180630   2.032   1.657  15.226 -0.0730 -0.6600  1.5866
19713TIP3    H280631   2.038   1.808  15.232 -0.1594 -0.6748  2.0242
19714TIP3   OH280632   2.734   1.600  12.854  0.5119 -0.6130  0.3421
19714TIP3    H180633   2.670   1.562  12.915 -0.0994  0.2605  0.2541
19714TIP3    H280634   2.819   1.581  12.895  0.1109  0.0975  1.5763
19715TIP3   OH280635   1.705   0.021   4.242 -0.3814 -0.0854  0.1691
19715TIP3    H180636   1.757  -0.052   4.211 -2.0344 -0.7818 -1.1649
19715TIP3    H280637   1.766   0.095   4.247  0.9182 -1.1100 -0.2424
19716TIP3   OH280638   5.546   3.523  11.447  0.1650 -0.0491  0.2312
19716TIP3    H180639   5.593   3.602  11.473  1.3226 -0.4633 -0.5558
19716TIP3    H280640   5.489   3.504  11.522  0.2038  1.2491  0.6244
19717TIP3   OH280641   1.137   6.599   1.012  0.0708 -0.7671  0.3320
19717TIP3    H180642   1.181   6.550   1.081  0.4588 -0.4309  0.3250
19717TIP3    H280643   1.200   6.602   0.940  0.2538  0.1935  0.5251
19718TIP3   OH280644   1.683   5.411  14.014  0.6748  0.6582  0.4211
19718TIP3    H180645   1.639   5.329  14.038  1.4538  0.2966  0.6628
19718TIP3    H280646   1.745   5.386  13.946  0.4511  1.1732  0.0285
19719TIP3   OH280647   6.602   4.887   1.507 -1.0078  0.1451  0.6551
19719TIP3    H180648   6.615   4.911   1.598  1.1512  0.6963  0.2619
19719TIP3    H280649   6.570   4.967   1.465 -1.8805 -0.0752  0.8693
19720TIP3   OH280650   1.964   6.776   1.139  0.4891 -0.6410 -0.2245
19720TIP3    H180651   2.040   6.834   1.128  0.2199 -0.2879 -0.2431
19720TIP3    H280652   1.973   6.710   1.071  0.3327 -0.1116 -0.7611
19721TIP3   OH280653   6.041   2.402  14.767 -0.2767 -0.2783  0.7347
19721TIP3    H180654   5.975   2.417  14.699  2.6886 -1.4402 -2.6742
19721TIP3    H280655   6.046   2.486  14.813 -0.9163  1.3513 -1.9353
19722TIP3   OH280656   2.965   0.279  11.893 -0.6616 -0.0265  0.3287
19722TIP3    H180657   3.002   0.278  11.981 -0.6087  1.3117  0.3449
19722TIP3    H280658   2.991   0.195  11.855  2.1768  0.7214  0.4174
19723TIP3   OH280659   0.233   0.772  12.115  0.4073 -0.1486 -0.3050
19723TIP3    H180660   0.203   0.772  12.024  0.9920 -0.4330 -0.5050
19723TIP3    H280661   0.268   0.859  12.129  1.5227 -0.5091 -0.7713
19724TIP3   OH280662   0.136   4.330  12.156 -1.0835 -0.3750 -0.4904
19724TIP3    H180663   0.159   4.334  12.248 -0.4833  2.7744 -0.6665
19724TIP3    H280664   0.220   4.333  12.110 -1.4053 -1.2791 -1.1759
19725TIP3   OH280665   5.203   5.254   1.211 -0.0200 -0.4267  0.4794
19725TIP3    H180666   5.228   5.162   1.211  1.2768 -0.1095 -0.4331
19725TIP3    H280667   5.153   5.264   1.130 -1.5656 -0.6510  1.3743
19726TIP3   OH280668   5.636   3.974   2.532 -0.3261 -0.2175 -0.7073
19726TIP3    H180669   5.541   3.987   2.533 -0.5533 -1.7076  0.0853
19726TIP3    H280670   5.647   3.882   2.510  1.0055  0.2292 -2.0840
19727TIP3   OH280671   0.873   2.869  16.309 -0.3314  0.0220 -0.6979
19727TIP3    H180672   0.893   2.822  16.390 -0.0663  0.3729 -0.5585
19727TIP3    H280673   0.830   2.949  16.337  1.6827  1.1732 -0.7644
19728TIP3   OH280674   2.323   4.983   5.684  0.0682  0.0564 -0.2808
19728TIP3    H180675   2.347   4.933   5.762  0.0477 -0.2669 -0.4799
19728TIP3    H280676   2.237   4.949   5.659 -0.8246  1.4816  0.6655
19729TIP3   OH280677   4.471   1.342   0.118  0.4941 -0.7482  0.5454
19729TIP3    H180678   4.489   1.267   0.061  2.1037 -1.5988  2.0618
19729TIP3    H280679   4.428   1.304   0.194  0.2899  0.0495  0.8390
19730TIP3   OH280680   6.024   4.909   2.331  0.0454 -0.2521 -0.4479
19730TIP3    H180681   5.945   4.941   2.374  0.2449 -0.5425  0.1525
19730TIP3    H280682   5.999   4.826   2.290  0.1681 -0.6169  0.2052
19731TIP3   OH280683   1.892   2.572  13.287  0.4819 -0.4604  0.1245
19731TIP3    H180684   1.819   2.534  13.239  0.3274  2.2617 -2.0833
19731TIP3    H280685   1.963   2.508  13.277 -0.8177 -1.9474  0.0628
19732TIP3   OH280686   1.629   2.291   6.154 -0.0627  0.6837  0.3633
19732TIP3    H180687   1.632   2.208   6.106 -3.1732  1.3144 -1.1224
19732TIP3    H280688   1.573   2.273   6.230  0.1707  1.1644  0.6536
19733TIP3   OH280689   5.987   6.398   3.437 -0.0529  0.6352  0.1603
19733TIP3    H180690   5.913   6.445   3.398 -0.0508  0.4388 -0.0843
19733TIP3    H280691   5.948   6.318   3.473  0.1270  0.2412 -0.4979
19734TIP3   OH280692   1.016   1.342  16.198 -0.4684 -0.0586 -0.1487
19734TIP3    H180693   1.028   1.248  16.190 -0.5721 -0.0241 -0.7145
19734TIP3    H280694   0.971   1.353  16.282  0.6476 -0.4148  0.5210
19735TIP3   OH280695   0.781   2.213  12.892  0.1379  0.5250 -0.1960
19735TIP3    H180696   0.863   2.181  12.930  0.0823  0.9887  0.3258
19735TIP3    H280697   0.809   2.274  12.823  0.2377 -0.2860 -0.8866
19736TIP3   OH280698   6.171   4.186   2.173  0.5326 -0.4888  0.3308
19736TIP3    H180699   6.267   4.190   2.168  0.4541  0.5418 -0.7414
19736TIP3    H280700   6.143   4.176   2.082 -0.3875 -0.7804  0.6390
19737TIP3   OH280701   5.900   1.034  16.040 -0.1851  0.1154  0.1885
19737TIP3    H180702   5.877   1.106  16.100  2.7536  0.5650  0.9134
19737TIP3    H280703   5.851   0.959  16.073  1.6348  0.2322  3.5772
19738TIP3   OH280704   5.846   1.047   1.314 -0.0606 -0.2896  0.1535
19738TIP3    H180705   5.914   1.010   1.369  0.4456  0.3326 -0.0407
19738TIP3    H280706   5.868   1.140   1.307 -1.6436  0.2044  1.1390
19739TIP3   OH280707   6.337   3.255  11.044 -0.2106  0.1704  0.0706
19739TIP3    H180708   6.402   3.222  10.982 -1.4212 -0.6608 -0.7951
19739TIP3    H280709   6.253   3.238  11.002 -1.0873 -0.7364  2.0918
19740TIP3   OH280710   3.593   3.384  12.934  0.0831 -0.5830 -0.0537
19740TIP3    H180711   3.600   3.318  12.866  0.7782  0.9898 -1.5915
19740TIP3    H280712   3.556   3.461  12.889  0.2576  0.4099  1.4118
19741TIP3   OH280713   4.814   3.201   3.091 -0.9193 -0.5928  0.5433
19741TIP3    H180714   4.790   3.294   3.093  1.6410  0.1367  2.4163
19741TIP3    H280715   4.772   3.164   3.168 -1.2983 -0.8092  0.2333
19742TIP3   OH280716   5.222   4.789   6.668  0.0680 -0.1036  0.2493
19742TIP3    H180717   5.178   4.873   6.685 -2.2902 -1.2266  0.0592
19742TIP3    H280718   5.210   4.739   6.748  0.6407 -0.6207  0.0222
19743TIP3   OH280719   6.456   4.998  11.297  0.3106  0.0102 -0.4285
19743TIP3    H180720   6.471   4.918  11.247 -2.7255 -0.4201 -0.8428
19743TIP3    H280721   6.388   4.974  11.360  0.5227  1.8601  0.5595
19744TIP3   OH280722   5.998   0.691  12.209 -0.1135  0.1335 -0.2105
19744TIP3    H180723   6.029   0.676  12.298 -1.2715  0.8884  0.3399
19744TIP3    H280724   5.973   0.783  12.207 -1.5578 -0.2493 -0.8427
19745TIP3   OH280725   6.202   4.490  16.184  0.4392 -0.2429  0.1171
19745TIP3    H180726   6.128   4.520  16.237  1.5231  1.3239  0.8216
19745TIP3    H280727   6.243   4.422  16.237 -1.1832 -2.0649 -0.8413
19746TIP3   OH280728   6.784   2.731  14.260  0.2388  0.2491 -0.2807
19746TIP3    H180729   6.786   2.827  14.260  0.7681  0.2438 -0.7480
19746TIP3    H280730   6.831   2.707  14.180  0.9056 -0.4197  0.3049
19747TIP3   OH280731   5.156   6.396  11.378  0.0320 -0.2684 -0.0657
19747TIP3    H180732   5.214   6.359  11.445 -1.4796 -1.1098  0.8385
19747TIP3    H280733   5.074   6.413  11.425 -0.3275  1.2838 -1.2134
19748TIP3   OH280734   1.779   5.673  12.198  0.4458 -0.2078 -0.2702
19748TIP3    H180735   1.830   5.627  12.265 -0.8108 -0.8487  0.2828
19748TIP3    H280736   1.812   5.763  12.200 -0.3676  0.1175  2.0918
19749TIP3   OH280737   5.546   5.259   0.033  0.5394  0.0572 -0.6444
19749TIP3    H180738   5.626   5.303   0.063  0.4088  0.3268 -0.6822
19749TIP3    H280739   5.577   5.186  -0.020  0.8027 -1.4046  1.4332
19750TIP3   OH280740   6.011   5.070   5.496 -0.0791 -0.4935  0.1223
19750TIP3    H180741   6.081   5.100   5.439 -0.2719  0.6857  0.4808
19750TIP3    H280742   5.973   4.995   5.450 -0.1775  0.3642 -1.2684
19751TIP3   OH280743   1.419   2.644  16.014  0.1711  0.0376  0.2593
19751TIP3    H180744   1.325   2.624  16.006  0.5983 -1.4139 -2.2669
19751TIP3    H280745   1.421   2.739  16.029 -1.6953 -0.1443  2.1768
19752TIP3   OH280746   1.254   2.070  12.598  0.0602  0.1308  0.0473
19752TIP3    H180747   1.330   2.128  12.592 -0.5693  0.9133 -0.8087
19752TIP3    H280748   1.248   2.047  12.691  0.6087  1.0639  0.3244
19753TIP3   OH280749   0.782   0.019   5.719  0.0581  0.5558  0.1205
19753TIP3    H180750   0.838  -0.056   5.741 -1.1292  0.0190  1.4439
19753TIP3    H280751   0.839   0.076   5.667  1.2022 -0.9218 -0.3391
19754TIP3   OH280752   1.624   6.020   4.062  0.1996  0.2639 -0.7744
19754TIP3    H180753   1.611   5.936   4.018  1.0311  0.2956 -1.0906
19754TIP3    H280754   1.693   6.063   4.012 -0.8101  1.5073 -1.1382
19755TIP3   OH280755   0.431   0.810  11.265  0.2914  0.0940  0.7152
19755TIP3    H180756   0.525   0.828  11.274  0.1065  0.7307  1.4619
19755TIP3    H280757   0.427   0.734  11.207  1.2744 -0.0151  0.7708
19756TIP3   OH280758   6.501   5.576  12.608 -0.2287 -0.0768  0.2879
19756TIP3    H180759   6.533   5.644  12.548 -0.4877  0.6404  0.9440
19756TIP3    H280760   6.573   5.564  12.670 -0.9627  1.1401  1.4347
19757TIP3   OH280761   5.247   6.621  13.146 -0.4356  0.4606 -0.4761
19757TIP3    H180762   5.284   6.533  13.160 -2.4050 -0.7384 -2.1560
19757TIP3    H280763   5.216   6.648  13.233 -0.9043 -1.0795 -0.1273
19758TIP3   OH280764   0.852   3.026  12.849 -0.3395  0.0075 -0.1418
19758TIP3    H180765   0.772   3.036  12.796 -0.1228  0.6754 -0.3622
19758TIP3    H280766   0.820   3.023  12.939 -0.6202  0.2066 -0.2319
19759TIP3   OH280767   1.967   2.814   1.652  0.7784  0.2617 -0.2725
19759TIP3    H180768   1.951   2.883   1.588 -0.4621  1.0458  0.8173
19759TIP3    H280769   1.884   2.804   1.698  2.0298  1.0317  2.4106
19760TIP3   OH280770   4.303   4.070  10.433 -0.3089 -0.5238 -0.1261
19760TIP3    H180771   4.260   4.155  10.421  1.7541  0.3941 -1.5168
19760TIP3    H280772   4.358   4.083  10.510  0.9185 -0.1556 -1.0329
19761TIP3   OH280773   6.126   4.583  16.845  0.0697 -0.0283  0.1839
19761TIP3    H180774   6.073   4.659  16.820  0.2854  0.4855  1.2102
19761TIP3    H280775   6.068   4.530  16.899  0.0476 -0.3879 -0.1933
19762TIP3   OH280776   3.416   0.919   3.997  0.4714 -0.4243 -0.1579
19762TIP3    H180777   3.435   0.906   4.090  0.7056 -1.3018 -0.3143
19762TIP3    H280778   3.483   0.867   3.952 -0.2660 -0.8392 -0.7959
19763TIP3   OH280779   6.071   2.066   3.180 -0.6829 -0.5184 -0.6000
19763TIP3    H180780   6.021   2.112   3.113  0.1437  0.5114 -0.5343
19763TIP3    H280781   6.163   2.090   3.163 -0.3203 -1.4383 -0.0189
19764TIP3   OH280782   6.226   5.219   5.399 -0.1751  0.1568 -0.3885
19764TIP3    H180783   6.221   5.287   5.332  1.3547  0.9424  0.2550
19764TIP3    H280784   6.239   5.267   5.481  3.1435 -0.8952 -0.1604
19765TIP3   OH280785   1.155   6.220   4.271 -0.0479  0.4363 -0.3335
19765TIP3    H180786   1.246   6.223   4.302 -0.0438  0.1055 -0.3122
19765TIP3    H280787   1.159   6.255   4.181 -0.0783  1.5050  0.0656
19766TIP3   OH280788   4.041   5.432  12.829  0.1062  0.0681  0.1097
19766TIP3    H180789   4.025   5.478  12.747  0.2336  0.6554  0.4062
19766TIP3    H280790   4.021   5.341  12.810  0.2362  0.1814 -0.6026
19767TIP3   OH280791   0.217   6.507  11.436 -1.0193 -0.2073  0.1651
19767TIP3    H180792   0.157   6.446  11.391 -0.0453 -1.0123 -0.0901
19767TIP3    H280793   0.270   6.451  11.492  2.0244 -0.1395 -2.3435
19768TIP3   OH280794   2.771   1.959   0.403 -0.6710 -0.9949  0.2280
19768TIP3    H180795   2.805   2.031   0.350 -1.6931  0.1346  1.0389
19768TIP3    H280796   2.768   1.884   0.344  1.1210 -0.5890 -0.4402
19769TIP3   OH280797   1.297   6.820   5.180 -0.6771 -0.8572 -0.5680
19769TIP3    H180798   1.340   6.808   5.096 -1.8127  1.1759 -1.5374
19769TIP3    H280799   1.246   6.740   5.193 -0.5349 -1.1748 -1.8596
19770TIP3   OH280800   6.278   5.663   0.419  0.3932 -0.4966 -0.4107
19770TIP3    H180801   6.270   5.703   0.506  3.9637 -1.8167  0.7092
19770TIP3    H280802   6.267   5.569   0.435 -0.9046 -0.6120 -1.7883
19771TIP3   OH280803   0.832   0.460  16.290 -0.8627  0.4841 -0.8870
19771TIP3    H180804   0.807   0.528  16.352  0.6863  0.3392 -0.0675
19771TIP3    H280805   0.860   0.508  16.212  0.1660  0.8144 -0.3361
19772TIP3   OH280806   1.237   1.072  16.875 -0.4411  0.6472 -0.7011
19772TIP3    H180807   1.153   1.118  16.885 -0.4872  0.4828 -0.3520
19772TIP3    H280808   1.220   1.008  16.805 -0.3288  1.2711 -1.3074
19773TIP3   OH280809   1.038   0.885   2.966 -0.1396 -0.2566 -0.3908
19773TIP3    H180810   1.019   0.973   2.936 -1.7656 -0.5098 -0.1980
19773TIP3    H280811   1.123   0.892   3.011 -1.4255  1.7656  1.9176
19774TIP3   OH280812   5.772   5.443   3.729  0.0762 -0.5073  0.3875
19774TIP3    H180813   5.813   5.482   3.652 -0.4017  2.0482  1.3346
19774TIP3    H280814   5.778   5.349   3.714  1.6827 -0.1282 -1.8682
19775TIP3   OH280815   5.881   1.834  14.684  0.5381  0.3510  0.1210
19775TIP3    H180816   5.976   1.836  14.677  0.5473  0.0685  0.1596
19775TIP3    H280817   5.864   1.845  14.778  0.4695  2.2916 -0.0783
19776TIP3   OH280818   6.435   6.122  12.258 -0.2508 -0.0312  0.0398
19776TIP3    H180819   6.508   6.126  12.196 -0.4105 -0.2451 -0.1656
19776TIP3    H280820   6.357   6.126  12.203 -0.5110  4.1761  0.4086
19777TIP3   OH280821   4.050   1.569   2.473 -0.7752 -0.0142  0.4092
19777TIP3    H180822   4.077   1.493   2.525 -3.1254 -0.6353  0.8282
19777TIP3    H280823   3.955   1.571   2.481 -0.8750  2.2725 -0.6161
19778TIP3   OH280824   6.038   5.404   1.950  0.4266  0.4630 -0.3131
19778TIP3    H180825   6.077   5.483   1.912  0.2388  1.0077  0.6096
19778TIP3    H280826   5.948   5.405   1.919  0.4772  0.4996 -0.4618
19779TIP3   OH280827   0.084   3.973  14.225  0.0531 -0.3141 -0.0622
19779TIP3    H180828   0.117   4.007  14.308  0.9480 -0.8653 -0.1749
19779TIP3    H280829   0.013   3.914  14.250 -0.4256  0.3841  0.2349
19780TIP3   OH280830   3.427   3.386  15.821 -0.7822  0.3413  0.0860
19780TIP3    H180831   3.358   3.449  15.800  0.3449  1.2538 -1.0563
19780TIP3    H280832   3.501   3.413  15.767  1.2726  0.7776  2.8951
19781TIP3   OH280833   6.801   6.707  10.804  0.0891 -0.5301 -0.0409
19781TIP3    H180834   6.841   6.768  10.742  0.9577  0.9247  1.8549
19781TIP3    H280835   6.757   6.763  10.868 -0.4107 -1.9486  0.9143
19782TIP3   OH280836   0.671   6.564   2.707  0.0499 -0.0866 -0.3375
19782TIP3    H180837   0.718   6.522   2.635 -1.2125 -1.6277 -0.3285
19782TIP3    H280838   0.727   6.637   2.734  1.0101 -0.0728 -2.2191
19783TIP3   OH280839   5.677   3.504  13.830 -0.0210  0.4997 -0.6567
19783TIP3    H180840   5.672   3.593  13.796  0.4943  0.9251  0.3595
19783TIP3    H280841   5.590   3.486  13.866 -0.0725  0.6550 -0.7047
19784TIP3   OH280842   1.766   6.464  15.304 -0.3940  0.9203  0.0764
19784TIP3    H180843   1.842   6.499  15.352  0.5626 -0.8913 -0.0112
19784TIP3    H280844   1.783   6.370  15.299 -3.0093  0.3342  0.6334
19785TIP3   OH280845   5.328   6.374  15.050  0.0539 -0.1481 -0.1442
19785TIP3    H180846   5.378   6.304  15.007  0.2582  0.7361 -1.3819
19785TIP3    H280847   5.320   6.442  14.984 -0.8280  0.6859  0.7904
19786TIP3   OH280848   1.034   6.012  13.916 -0.4288  0.0634  0.0264
19786TIP3    H180849   1.078   6.096  13.897 -0.4893  0.4421  1.4006
19786TIP3    H280850   1.105   5.948  13.917  0.1373  0.6405  2.0246
19787TIP3   OH280851   0.649   5.554   2.089  0.3247 -0.2509  0.4985
19787TIP3    H180852   0.612   5.531   2.004 -2.7258  0.1368  1.5945
19787TIP3    H280853   0.722   5.612   2.068 -1.7253  1.7086 -1.8741
19788TIP3   OH280854   4.580   2.599   1.479  0.7041 -0.1312 -0.3915
19788TIP3    H180855   4.542   2.560   1.400  0.6239  1.1799 -1.0295
19788TIP3    H280856   4.507   2.605   1.540  0.7354 -1.0302 -0.2590
19789TIP3   OH280857   6.796   6.151   1.273 -0.4967 -0.1046  0.5607
19789TIP3    H180858   6.876   6.200   1.291 -0.1624 -0.2153 -0.5373
19789TIP3    H280859   6.827   6.069   1.233 -1.1812  0.2919 -0.8404
19790TIP3   OH280860   3.586   1.968   3.846  0.0882  0.3594 -0.4988
19790TIP3    H180861   3.644   1.960   3.770  0.1384 -0.1690 -0.4045
19790TIP3    H280862   3.570   1.878   3.874 -1.3207  0.4441 -0.9475
19791TIP3   OH280863   1.541   6.628   5.267  0.2226  0.3396 -0.4050
19791TIP3    H180864   1.467   6.685   5.289 -1.6869 -1.0982 -2.6538
19791TIP3    H280865   1.602   6.685   5.219 -2.4054  0.3412 -4.1101
19792TIP3   OH280866   2.608   4.909   3.374  0.2228  0.8347  0.2339
19792TIP3    H180867   2.624   4.911   3.279 -2.3830  1.1169 -0.2751
19792TIP3    H280868   2.625   4.818   3.399  1.7263  0.9408 -0.3230
19793TIP3   OH280869   3.543   0.537   2.984 -1.4302  0.5288  0.2004
19793TIP3    H180870   3.614   0.475   2.966 -1.8909 -0.0243  0.2952
19793TIP3    H280871   3.577   0.590   3.057 -0.8058  0.7818 -0.2574
19794TIP3   OH280872   0.393   3.483  15.183 -0.0168 -0.5913  0.2580
19794TIP3    H180873   0.365   3.555  15.239 -0.3377  0.6957 -1.4665
19794TIP3    H280874   0.314   3.459  15.134  0.5772 -0.7049 -0.6645
19795TIP3   OH280875   5.572   1.757  16.104 -0.0958  0.2283 -0.8408
19795TIP3    H180876   5.564   1.664  16.127 -0.2166  0.0528 -1.5809
19795TIP3    H280877   5.666   1.772  16.096 -0.0350  0.3449 -0.0620
19796TIP3   OH280878   3.506   1.476   1.504 -0.4582  0.4688  0.2319
19796TIP3    H180879   3.542   1.563   1.520  0.5390 -0.2927  2.6627
19796TIP3    H280880   3.584   1.419   1.499 -1.1278 -0.6425  1.5916
19797TIP3   OH280881   1.964   5.511   4.962 -0.1144 -0.1104  0.5960
19797TIP3    H180882   1.998   5.534   5.049  0.8874 -2.1877  0.8140
19797TIP3    H280883   1.883   5.463   4.980  0.6008 -1.4031  0.4726
19798TIP3   OH280884   5.598   4.657  15.768 -0.0770 -0.2240 -0.3854
19798TIP3    H180885   5.609   4.684  15.677  1.1160 -2.6541 -1.0319
19798TIP3    H280886   5.527   4.592  15.765  0.6636 -1.0834  0.2193
19799TIP3   OH280887   1.856   1.291   0.083  1.0261 -0.0542  0.4735
19799TIP3    H180888   1.880   1.383   0.090 -0.2729  0.2976  0.6493
19799TIP3    H280889   1.760   1.292   0.074  1.0136 -1.3728  0.2369
19800TIP3   OH280890   4.849   5.663   1.569 -0.2211 -0.5879 -0.1461
19800TIP3    H180891   4.906   5.594   1.601  0.2984 -0.0541  0.0991
19800TIP3    H280892   4.769   5.655   1.622 -0.0693 -0.8479  0.0433
19801TIP3   OH280893   4.092   2.085  11.921  0.0738 -0.4162  0.4111
19801TIP3    H180894   4.071   2.161  11.867  0.0834 -0.3639  0.4812
19801TIP3    H280895   4.019   2.078  11.983  1.0731  0.7968  1.7923
19802TIP3   OH280896   6.240   3.591  14.495 -0.1323  0.3601 -0.1598
19802TIP3    H180897   6.153   3.621  14.470  0.0349  2.3420  1.4349
19802TIP3    H280898   6.224   3.530  14.568 -0.1950  0.4672 -0.0839
19803TIP3   OH280899   2.231   1.160   4.949 -0.4750 -0.3698 -0.2761
19803TIP3    H180900   2.252   1.235   4.894 -0.6553  0.6233  0.9615
19803TIP3    H280901   2.202   1.092   4.888 -1.5216  0.9852 -1.3367
19804TIP3   OH280902   2.434   5.935  13.268 -0.0252  0.6692 -0.1595
19804TIP3    H180903   2.363   5.998  13.256 -1.9929 -1.3222  0.2234
19804TIP3    H280904   2.461   5.945  13.359 -2.2858 -0.8000  0.7817
19805TIP3   OH280905   2.038   4.782   0.566  0.1286 -0.1547  0.0483
19805TIP3    H180906   2.129   4.771   0.539 -0.1773  0.3659 -1.3006
19805TIP3    H280907   2.010   4.863   0.522 -1.2597 -0.8168 -0.3377
19806TIP3   OH280908   0.221   5.870  15.250 -0.8682  0.0818 -0.3885
19806TIP3    H180909   0.185   5.925  15.320 -1.8784 -1.1022  0.0530
19806TIP3    H280910   0.206   5.781  15.280 -0.8063 -0.4463 -1.8659
19807TIP3   OH280911   5.544   4.224  11.609 -0.1930 -0.2176  0.4739
19807TIP3    H180912   5.452   4.208  11.586 -0.3385 -0.0169  0.9167
19807TIP3    H280913   5.593   4.170  11.547 -0.6300 -1.0812  0.8637
19808TIP3   OH280914   2.001   5.569   3.021  0.3918 -0.1280  0.0216
19808TIP3    H180915   2.017   5.619   3.101  2.2088 -0.4069 -0.1159
19808TIP3    H280916   2.058   5.609   2.956 -0.7468 -0.1761 -1.0491
19809TIP3   OH280917   3.680   0.391  14.006  0.1559 -0.2635  0.3652
19809TIP3    H180918   3.693   0.297  13.995 -2.9054 -0.8772  1.1606
19809TIP3    H280919   3.722   0.411  14.090 -0.9172 -1.3770  1.2004
19810TIP3   OH280920   1.173   6.514  13.067 -0.3104  0.1578  0.1738
19810TIP3    H180921   1.159   6.421  13.049 -0.5401 -0.1190  1.6978
19810TIP3    H280922   1.235   6.515  13.140  1.4283  1.2523 -1.2265
19811TIP3   OH280923   3.233   6.247  15.848  0.4658  0.1086 -0.0147
19811TIP3    H180924   3.190   6.328  15.873 -0.1356 -0.1028 -0.3106
19811TIP3    H280925   3.160   6.187  15.828  0.8988 -0.4050 -0.0832
19812TIP3   OH280926   0.591   0.479  13.033  0.0964 -1.1945 -0.5078
19812TIP3    H180927   0.647   0.534  13.087 -2.1652  0.4944  0.2684
19812TIP3    H280928   0.616   0.502  12.943  0.1482  0.1200 -0.1856
19813TIP3   OH280929   0.646   4.987  15.632  0.5033  0.0353 -0.3130
19813TIP3    H180930   0.565   4.997  15.582  0.2885  1.7549  0.3165
19813TIP3    H280931   0.692   5.070  15.619  1.9134 -0.7061 -0.2009
19814TIP3   OH280932   1.843   0.715   0.466  0.1957 -0.0489 -0.6214
19814TIP3    H180933   1.926   0.753   0.437 -0.0237  0.4744 -0.5708
19814TIP3    H280934   1.803   0.783   0.520  0.1128 -0.6065  0.0479
19815TIP3   OH280935   0.728   1.259   5.124 -0.2404 -0.4180 -0.1535
19815TIP3    H180936   0.680   1.340   5.143  0.6182  0.0068  0.2423
19815TIP3    H280937   0.814   1.288   5.094  0.6538 -1.1737  1.5336
19816TIP3   OH280938   4.929   6.358  16.926 -0.0961  0.5538 -0.6218
19816TIP3    H180939   4.848   6.360  16.976  0.2888  2.5108 -0.0032
19816TIP3    H280940   4.979   6.286  16.965 -1.0611  0.0473 -0.2868
19817TIP3   OH280941   5.841   1.628  10.535  0.0853 -0.6619 -0.5867
19817TIP3    H180942   5.923   1.579  10.546 -0.0687 -0.6042  1.0025
19817TIP3    H280943   5.857   1.711  10.580 -0.9947 -0.8272  0.1188
19818TIP3   OH280944   4.701   3.796  15.972  0.2273  0.1971  0.2184
19818TIP3    H180945   4.615   3.832  15.951 -0.1433  0.8171  2.5201
19818TIP3    H280946   4.688   3.750  16.055  2.5125  2.2358  1.8635
19819TIP3   OH280947   4.648   1.449  14.430  0.3292 -0.3443 -0.4895
19819TIP3    H180948   4.661   1.530  14.381  4.1299 -1.2715 -1.3030
19819TIP3    H280949   4.600   1.391  14.370 -0.7226  0.6141 -0.6084
19820TIP3   OH280950   5.028   0.647  11.738  0.2175 -0.1955 -0.0149
19820TIP3    H180951   5.043   0.565  11.786 -1.1865  0.1509  1.0846
19820TIP3    H280952   4.965   0.623  11.670  1.1168 -0.3717 -0.8131
19821TIP3   OH280953   1.458   1.053   1.928  0.2686  0.1561 -0.0189
19821TIP3    H180954   1.365   1.028   1.926  0.6943 -1.8266  1.3914
19821TIP3    H280955   1.486   1.034   2.017  2.4053 -0.8280 -0.8250
19822TIP3   OH280956   2.355   4.078   4.800  0.0868  0.1596  0.3834
19822TIP3    H180957   2.446   4.103   4.820 -0.9631  1.5637  4.2519
19822TIP3    H280958   2.352   3.985   4.821  0.7167 -0.0266 -0.2866
19823TIP3   OH280959   1.805   6.226  12.131 -0.0743 -0.6781 -0.2057
19823TIP3    H180960   1.868   6.163  12.164  0.6774 -0.2894 -0.8871
19823TIP3    H280961   1.723   6.177  12.126 -0.0522 -0.9667  1.4752
19824TIP3   OH280962   5.737   4.128   4.200  0.0849  0.2067 -0.0896
19824TIP3    H180963   5.698   4.065   4.261 -0.8007 -0.9123 -1.6957
19824TIP3    H280964   5.799   4.076   4.148  0.6087  1.0502 -0.3362
19825TIP3   OH280965   1.107   1.978  10.987  0.1228  0.1394  0.4474
19825TIP3    H180966   1.122   1.929  10.905 -1.0522 -0.7795  0.7541
19825TIP3    H280967   1.151   1.926  11.054  0.6318  0.6145  0.4900
19826TIP3   OH280968   5.689   3.857   0.130 -0.1621  0.3390  0.1929
19826TIP3    H180969   5.627   3.893   0.194 -0.9828  0.9035 -0.8965
19826TIP3    H280970   5.774   3.892   0.156 -0.1543 -0.8938  2.0518
19827TIP3   OH280971   6.732   6.453   3.982 -0.4234 -0.3085  0.5786
19827TIP3    H180972   6.638   6.465   3.970 -0.4838  0.0650  1.3971
19827TIP3    H280973   6.763   6.423   3.896 -1.3469 -0.8342  0.4141
19828TIP3   OH280974   5.246   5.852   6.382  0.0899 -0.1472 -0.8387
19828TIP3    H180975   5.224   5.910   6.455  3.1650 -0.0195  0.1329
19828TIP3    H280976   5.166   5.850   6.329 -1.0303  2.8575  0.4522
19829TIP3   OH280977   3.838   4.447   4.171 -0.3890 -0.3093 -0.2911
19829TIP3    H180978   3.812   4.390   4.099 -1.1804  0.0648 -0.3133
19829TIP3    H280979   3.764   4.507   4.181  0.5179  0.8594 -0.4206
19830TIP3   OH280980   4.808   6.518  16.649  0.3918  0.0179  0.0706
19830TIP3    H180981   4.740   6.454  16.668 -0.7195  0.7091 -1.4103
19830TIP3    H280982   4.761   6.601  16.640  1.5826  0.7233  0.1794
19831TIP3   OH280983   5.510   4.743   0.694 -0.5310  0.3779  0.5232
19831TIP3    H180984   5.589   4.796   0.687 -0.7277  0.8073  1.3742
19831TIP3    H280985   5.481   4.731   0.604  1.8521 -1.9213 -0.0570
19832TIP3   OH280986   4.170   3.463   1.888 -0.4015  0.0302  0.0510
19832TIP3    H180987   4.117   3.443   1.811 -1.5070 -2.4691  1.3421
19832TIP3    H280988   4.225   3.386   1.899 -0.7453  0.0375  2.1233
19833TIP3   OH280989   5.417   0.309  14.386 -0.1282  0.0218 -0.0029
19833TIP3    H180990   5.482   0.317  14.316  0.6271 -0.3200  0.6461
19833TIP3    H280991   5.408   0.399  14.419 -0.8774  0.2835 -0.8569
19834TIP3   OH280992   0.730   2.092  15.355 -0.1040 -0.2860 -0.1963
19834TIP3    H180993   0.715   1.998  15.363  1.9339 -0.6657 -0.2619
19834TIP3    H280994   0.657   2.123  15.301 -0.4703 -1.9338 -0.7281
19835TIP3   OH280995   5.371   2.664  11.913  0.0991  0.2002  0.7301
19835TIP3    H180996   5.315   2.741  11.916  0.3633  0.3776  1.1212
19835TIP3    H280997   5.458   2.698  11.894 -0.2655 -0.2386 -2.1881
19836TIP3   OH280998   3.869   4.632   6.229 -0.3269 -0.3846  0.7176
19836TIP3    H180999   3.872   4.722   6.262  0.4403 -1.5245  4.1837
19836TIP3    H281000   3.950   4.592   6.260  0.3783 -1.8408 -2.5260
19837TIP3   OH281001   4.267   0.891   3.062 -0.2244 -0.1032 -0.1318
19837TIP3    H181002   4.271   0.850   3.148 -0.6323  0.7200  0.2833
19837TIP3    H281003   4.350   0.866   3.020 -1.4132 -3.3675 -0.8441
19838TIP3   OH281004   6.225   6.411  13.096 -0.5926 -0.2073  0.1563
19838TIP3    H181005   6.182   6.478  13.149  0.7480  0.7717  0.0545
19838TIP3    H281006   6.161   6.391  13.027 -0.6817  1.6403 -0.3534
19839TIP3   OH281007   0.193   0.019  16.812  0.1942 -0.7478  0.1953
19839TIP3    H181008   0.194  -0.075  16.794  3.2151 -0.7628 -0.1144
19839TIP3    H281009   0.266   0.053  16.761 -1.3655  1.9612 -0.3895
19840TIP3   OH281010   4.907   0.687  13.549  0.3667  0.2888 -0.0405
19840TIP3    H181011   4.866   0.716  13.468  0.4183  1.9885  0.5038
19840TIP3    H281012   4.974   0.753  13.568  0.1122  0.1397  1.5650
19841TIP3   OH281013   3.054   0.851  14.946 -0.2718  0.8048  0.1830
19841TIP3    H181014   3.042   0.849  14.851  1.7851  3.1199 -0.2518
19841TIP3    H281015   3.096   0.767  14.967 -2.0033 -0.3258 -0.6754
19842TIP3   OH281016   5.351   4.484  11.302 -0.0949  0.5975  0.0949
19842TIP3    H181017   5.306   4.567  11.285  0.1673  1.0757  1.5893
19842TIP3    H281018   5.441   4.500  11.273 -0.6056 -0.0800 -2.0910
19843TIP3   OH281019   2.008   2.336  14.047 -0.1114 -0.0800  0.1859
19843TIP3    H181020   2.002   2.255  13.997  0.5287  1.0688 -1.9059
19843TIP3    H281021   1.925   2.343  14.094 -0.7969 -1.1841 -0.8193
19844TIP3   OH281022   2.535   5.912   2.854 -0.2986  0.7175 -0.0439
19844TIP3    H181023   2.617   5.930   2.900  0.1087 -1.4998  0.1768
19844TIP3    H281024   2.470   5.967   2.898  0.6283  0.7675  1.3127
19845TIP3   OH281025   2.043   3.230  13.571  0.0413  0.5515 -0.2997
19845TIP3    H181026   2.024   3.159  13.631 -1.8457  0.9424 -0.3665
19845TIP3    H281027   2.048   3.189  13.485 -0.8033  0.4596 -0.3084
19846TIP3   OH281028   0.596   6.382  16.874  0.4311  0.0400 -0.3205
19846TIP3    H181029   0.675   6.423  16.837 -0.8173  0.3331 -2.9468
19846TIP3    H281030   0.571   6.316  16.809 -1.4170 -0.1200  0.4869
19847TIP3   OH281031   1.770   2.201  10.733  0.6414  0.6389  0.4405
19847TIP3    H181032   1.677   2.200  10.710  0.5052  1.1236  0.9438
19847TIP3    H281033   1.773   2.164  10.821  0.8781  0.9994  0.5839
19848TIP3   OH281034   2.645   1.175   0.248 -0.3058 -0.8723 -0.1278
19848TIP3    H181035   2.634   1.235   0.174 -0.8458 -0.8405 -0.0236
19848TIP3    H281036   2.733   1.194   0.281  0.0812 -1.1252 -0.9705
19849TIP3   OH281037   6.595   1.893   0.987  0.1667 -0.9430 -0.2482
19849TIP3    H181038   6.583   1.973   0.936  2.1305 -0.2223  0.3219
19849TIP3    H281039   6.600   1.823   0.921 -0.2204 -0.4113 -0.8466
19850TIP3   OH281040   5.646   3.357   0.312 -0.0009  0.5722  0.1094
19850TIP3    H181041   5.700   3.329   0.386 -0.6684  0.2662  0.4833
19850TIP3    H281042   5.696   3.328   0.235  0.9015  1.2663  0.4073
19851TIP3   OH281043   1.960   1.180   2.777  0.1840  0.3414 -0.6414
19851TIP3    H181044   1.932   1.160   2.687 -1.9092  0.1576 -0.0037
19851TIP3    H281045   2.019   1.109   2.800  0.7919  0.4128 -1.8600
19852TIP3   OH281046   5.963   1.054   3.352  0.2388  0.3318  0.3976
19852TIP3    H181047   5.888   1.109   3.328  0.8872  0.5437 -1.3089
19852TIP3    H281048   5.925   0.967   3.367 -0.7049  1.0285  2.4246
19853TIP3   OH281049   6.684   0.912   2.729  0.2379 -1.0541  0.0981
19853TIP3    H181050   6.695   0.822   2.699 -1.2735 -1.2520  0.1083
19853TIP3    H281051   6.659   0.960   2.650 -2.3268 -1.3068  0.6759
19854TIP3   OH281052   1.105   1.861   3.342  0.0150  0.0224 -0.3103
19854TIP3    H181053   1.053   1.891   3.417  1.8876 -0.1517  1.1237
19854TIP3    H281054   1.107   1.766   3.350 -0.6847 -0.0877 -1.2484
19855TIP3   OH281055   4.384   3.939   5.065 -0.6231 -0.2593 -0.1369
19855TIP3    H181056   4.394   3.966   4.973 -1.0626 -0.8663 -0.3723
19855TIP3    H281057   4.293   3.961   5.086 -1.7522 -3.4495 -1.0306
19856TIP3   OH281058   6.262   4.699   0.768  0.5208 -0.0646  0.3290
19856TIP3    H181059   6.343   4.653   0.745  0.6429 -0.6551  1.8396
19856TIP3    H281060   6.237   4.662   0.852 -1.5867 -0.2364 -0.3173
19857TIP3   OH281061   6.058   3.067   1.420  0.3131 -0.0968  0.0490
19857TIP3    H181062   5.991   3.128   1.451 -1.4290 -2.5448  1.4755
19857TIP3    H281063   6.073   3.009   1.495  1.0404 -2.0868 -1.5705
19858TIP3   OH281064   3.268   1.667   0.199  0.3035 -1.0503 -0.1615
19858TIP3    H181065   3.334   1.730   0.228 -1.0933  0.6821 -0.5568
19858TIP3    H281066   3.317   1.588   0.177  1.9799 -0.6007  1.7055
19859TIP3   OH281067   4.062   3.579  11.452 -0.6462  0.7429 -0.5285
19859TIP3    H181068   4.116   3.509  11.488 -0.5969  1.4103  0.7727
19859TIP3    H281069   4.088   3.585  11.360 -1.1655 -1.3913 -0.8570
19860TIP3   OH281070   4.880   2.448   5.827  0.0486  0.2832 -0.2668
19860TIP3    H181071   4.905   2.386   5.895 -2.0598 -0.1631  0.1899
19860TIP3    H281072   4.904   2.533   5.863  0.3893 -0.0642  0.3571
19861TIP3   OH281073   3.769   0.285  14.594 -0.2229 -0.2841  0.1144
19861TIP3    H181074   3.825   0.214  14.565  0.5913  0.6656 -0.7248
19861TIP3    H281075   3.821   0.331  14.660  0.1099  0.7319 -0.8219
19862TIP3   OH281076   1.920   0.168  11.090 -0.3436 -0.6144  0.5787
19862TIP3    H181077   1.898   0.262  11.090  3.8393  0.5878 -0.4797
19862TIP3    H281078   1.947   0.150  11.180  0.0489 -0.4149  0.5055
19863TIP3   OH281079   0.626   5.799  13.641 -0.0948  0.5012 -0.6346
19863TIP3    H181080   0.633   5.893  13.623 -0.0998  0.4486 -0.9143
19863TIP3    H281081   0.714   5.765  13.627 -0.1048  0.4547 -0.5856
19864TIP3   OH281082   0.199   1.918   6.048  0.3821  0.2991  0.3570
19864TIP3    H181083   0.168   1.906   6.138 -1.4546 -2.0055 -0.4755
19864TIP3    H281084   0.128   1.966   6.005 -0.1124 -1.1348 -0.5004
19865TIP3   OH281085   0.895   5.405   3.693  0.2463  0.2101 -0.1891
19865TIP3    H181086   0.911   5.346   3.620 -0.3084 -1.4492  0.9702
19865TIP3    H281087   0.914   5.492   3.658 -1.7509 -0.2875 -2.8426
19866TIP3   OH281088   1.929   4.302   0.157  0.1860 -0.4890 -0.5017
19866TIP3    H181089   1.972   4.359   0.221 -0.9327  0.5627 -0.6497
19866TIP3    H281090   1.967   4.327   0.073  1.1289 -1.3703 -0.3649
19867TIP3   OH281091   2.699   1.472   0.303 -0.0222 -0.4348 -0.0915
19867TIP3    H181092   2.626   1.478   0.364  0.8104 -1.5563  1.0441
19867TIP3    H281093   2.753   1.400   0.335 -0.0056 -1.7098 -2.6543
19868TIP3   OH281094   1.765   2.607   5.119  0.1812  0.2311 -0.0806
19868TIP3    H181095   1.768   2.669   5.192 -0.4675 -0.2134  0.3316
19868TIP3    H281096   1.775   2.662   5.041 -0.6198  0.8832  0.2631
19869TIP3   OH281097   5.542   2.469  13.257 -0.1851  0.2166 -0.0714
19869TIP3    H181098   5.476   2.538  13.245  0.5678  0.8589 -0.5884
19869TIP3    H281099   5.577   2.484  13.344  0.9329  1.3498 -0.6910
19870TIP3   OH281100   0.181   0.442   1.720 -0.4080 -0.2934  0.5524
19870TIP3    H181101   0.145   0.508   1.661  0.8841  0.9314  1.0750
19870TIP3    H281102   0.108   0.417   1.776 -0.5920  1.8882  1.3875
19871TIP3   OH281103   1.611   4.411  11.967  0.1509 -0.4838 -0.2433
19871TIP3    H181104   1.541   4.403  11.902  1.3996  0.0462 -1.7225
19871TIP3    H281105   1.681   4.356  11.933  1.3616  0.9133 -0.1104
19872TIP3   OH281106   0.574   5.977  11.054  0.1318 -0.2514 -0.3466
19872TIP3    H181107   0.606   5.918  11.122 -0.4386 -0.0655  0.0951
19872TIP3    H281108   0.638   6.047  11.050  0.3886 -0.4833 -0.3029
19873TIP3   OH281109   2.137   1.325   3.883 -0.5661 -0.0417  0.2907
19873TIP3    H181110   2.096   1.378   3.815  0.5018 -1.6778 -1.7596
19873TIP3    H281111   2.216   1.373   3.907 -0.9821  0.5815  0.4264
19874TIP3   OH281112   4.008   4.070   0.518 -0.4184  0.4614 -0.2601
19874TIP3    H181113   3.985   4.132   0.449  1.6577  0.1086 -1.3813
19874TIP3    H281114   3.945   3.999   0.510 -0.7409  0.8495 -1.2361
19875TIP3   OH281115   5.139   6.551   1.368 -0.0912  0.3553  0.5800
19875TIP3    H181116   5.106   6.637   1.344 -1.0124 -0.5860 -1.7462
19875TIP3    H281117   5.078   6.520   1.435 -0.9959  0.6628 -0.0833
19876TIP3   OH281118   3.795   2.417   0.091  0.9308  0.2148  0.0380
19876TIP3    H181119   3.705   2.386   0.094  1.2975 -1.1507 -1.7482
19876TIP3    H281120   3.791   2.504   0.131 -1.3641  0.6184 -0.8803
19877TIP3   OH281121   1.876   1.440   1.280  0.0774 -0.4357  0.1293
19877TIP3    H181122   1.969   1.421   1.295  0.3864  2.2425  2.4155
19877TIP3    H281123   1.830   1.394   1.350 -0.2887 -1.3347 -0.6895
19878TIP3   OH281124   5.144   3.998  12.721  0.2677 -0.1632 -0.5202
19878TIP3    H181125   5.176   4.029  12.806  1.8717 -0.3275 -1.0351
19878TIP3    H281126   5.169   3.906  12.718 -1.0050 -0.5253 -0.6217
19879TIP3   OH281127   4.396   5.382  14.147  0.5156 -0.0532 -0.0807
19879TIP3    H181128   4.427   5.397  14.236 -1.3763 -1.3178  0.8687
19879TIP3    H281129   4.307   5.418  14.147  0.6952  0.4709 -1.6710
19880TIP3   OH281130   6.745   5.701   4.824 -0.0841  0.0397  0.1871
19880TIP3    H181131   6.774   5.631   4.764  2.5354 -0.4225  1.8148
19880TIP3    H281132   6.695   5.655   4.891  1.1039 -0.2184  0.9180
19881TIP3   OH281133   1.945   2.563  12.630 -0.2356 -0.0897 -0.6083
19881TIP3    H181134   1.868   2.610  12.663 -0.5615 -0.6024 -0.6241
19881TIP3    H281135   1.920   2.535  12.542 -0.1767 -0.5812 -0.4742
19882TIP3   OH281136   5.851   2.246   3.399 -0.0734 -0.2685 -0.3068
19882TIP3    H181137   5.929   2.259   3.346 -0.1686  2.2487  0.0767
19882TIP3    H281138   5.781   2.289   3.350 -0.2151  1.9017  1.6418
19883TIP3   OH281139   2.924   4.118  16.655  0.4882 -0.0397 -1.0512
19883TIP3    H181140   2.866   4.058  16.701  0.7753 -1.2782 -2.2366
19883TIP3    H281141   2.929   4.195  16.712 -0.0346 -1.0510  0.4162
19884TIP3   OH281142   1.656   4.196  13.365  0.5111 -0.1448  0.0079
19884TIP3    H181143   1.649   4.122  13.305 -0.9442 -0.3985  0.4691
19884TIP3    H281144   1.680   4.156  13.449 -0.4623 -0.1396  0.3027
19885TIP3   OH281145   0.992   5.799   4.144 -0.2993 -0.4612 -0.6427
19885TIP3    H181146   0.989   5.707   4.117 -0.8746 -0.1123 -1.8531
19885TIP3    H281147   1.022   5.846   4.066  1.1524  0.2661  0.3133
19886TIP3   OH281148   4.091   1.660   5.451 -0.0503  1.1444  0.4828
19886TIP3    H181149   4.058   1.591   5.507 -0.9042  2.6733  1.9454
19886TIP3    H281150   4.127   1.614   5.374 -2.5218 -0.7747  0.3606
19887TIP3   OH281151   5.272   6.701   1.103  0.2451 -0.1436 -0.2348
19887TIP3    H181152   5.284   6.764   1.174  0.3145  0.7131 -0.9845
19887TIP3    H281153   5.216   6.633   1.141 -1.0720  1.1079  0.1820
19888TIP3   OH281154   4.992   4.145  13.731  0.1766 -0.1897  0.5733
19888TIP3    H181155   5.062   4.147  13.665 -0.4400 -1.2708 -0.1288
19888TIP3    H281156   4.941   4.224  13.713 -0.0573 -0.5338 -0.3368
19889TIP3   OH281157   5.039   0.130   1.775 -0.2945 -0.3930 -0.3287
19889TIP3    H181158   4.985   0.069   1.726 -0.1269 -1.4353  0.7453
19889TIP3    H281159   5.004   0.126   1.865  0.2579  0.4581 -0.0657
19890TIP3   OH281160   0.467   5.215  14.288  0.0380  0.6044 -0.0406
19890TIP3    H181161   0.418   5.249  14.363 -1.2446  3.0421 -1.8481
19890TIP3    H281162   0.408   5.152  14.247  0.2787  0.1284  0.3385
19891TIP3   OH281163   2.174   4.076  14.681  0.3773  0.3210  0.4690
19891TIP3    H181164   2.257   4.120  14.696  0.3712  0.0289  1.3894
19891TIP3    H281165   2.110   4.126  14.731 -0.3225  1.5205 -1.5262
19892TIP3   OH281166   1.624   3.671   0.229 -0.9036 -0.2297  0.0851
19892TIP3    H181167   1.539   3.696   0.264 -1.4653 -1.5449 -0.2718
19892TIP3    H281168   1.674   3.640   0.305 -0.5672  0.9578  0.3632
19893TIP3   OH281169   2.202   0.469   3.840 -0.4670  0.6752 -0.1516
19893TIP3    H181170   2.132   0.416   3.803  1.0330 -2.0676  0.6981
19893TIP3    H281171   2.219   0.430   3.926  1.1352  2.2053  0.2951
19894TIP3   OH281172   1.077   3.601   2.313 -0.2681 -0.1551 -0.0494
19894TIP3    H181173   1.012   3.606   2.384  1.5405 -1.2175  1.7835
19894TIP3    H281174   1.148   3.657   2.341  0.0601  0.2436 -1.5801
19895TIP3   OH281175   4.259   4.841  13.161  0.0211  0.1884 -0.0659
19895TIP3    H181176   4.307   4.777  13.109 -0.3701  0.7671 -1.2015
19895TIP3    H281177   4.292   4.831  13.250 -0.8474 -2.3861  0.0441
19896TIP3   OH281178   3.480   2.139  12.856  0.1318  0.1960 -0.0478
19896TIP3    H181179   3.559   2.182  12.823  0.8380 -1.4787 -0.6498
19896TIP3    H281180   3.426   2.126  12.778 -0.4778  0.7680  0.2695
19897TIP3   OH281181   1.769   1.417  12.974 -0.5618  0.7069 -0.8515
19897TIP3    H181182   1.778   1.331  12.933  1.4651  0.2699  0.3476
19897TIP3    H281183   1.680   1.417  13.011 -0.7799 -0.6593 -1.3201
19898TIP3   OH281184   6.332   6.677  12.932  0.1676  0.2319 -0.1310
19898TIP3    H181185   6.260   6.695  12.993 -0.1825  0.6808 -0.6591
19898TIP3    H281186   6.400   6.637  12.985 -0.1289  0.6220  0.5530
19899TIP3   OH281187   3.982   6.841  14.700 -0.0538 -0.0481  0.3204
19899TIP3    H181188   3.992   6.906  14.770 -0.3076 -0.4014  0.6973
19899TIP3    H281189   3.916   6.780  14.734 -0.0148 -0.3515 -0.1361
19900TIP3   OH281190   6.777   4.705   4.643  0.7329  0.2455 -0.2323
19900TIP3    H181191   6.749   4.619   4.675 -2.5639  0.6829 -1.5620
19900TIP3    H281192   6.830   4.686   4.566  1.7127 -0.5912  0.6124
19901TIP3   OH281193   1.516   1.102  11.694 -0.2524  0.2041  0.0724
19901TIP3    H181194   1.443   1.152  11.656 -0.3996  1.0738  1.4492
19901TIP3    H281195   1.572   1.169  11.734  0.6310 -0.5794  0.1726
19902TIP3   OH281196   3.978   4.898  11.438  0.4120  0.0674  0.0525
19902TIP3    H181197   3.955   4.973  11.382  1.8672  0.3567 -0.2032
19902TIP3    H281198   3.917   4.904  11.511 -2.2935 -0.9511 -1.9526
19903TIP3   OH281199   2.461   3.261  14.954 -0.1268  0.0879 -0.7224
19903TIP3    H181200   2.496   3.178  14.986 -1.0206 -0.7668 -1.8858
19903TIP3    H281201   2.470   3.320  15.029 -0.8149 -1.4449  0.6581
19904TIP3   OH281202   3.443   0.584   3.363 -0.1345 -0.8465  1.2027
19904TIP3    H181203   3.428   0.509   3.305 -1.4007 -0.5019  1.0579
19904TIP3    H281204   3.480   0.545   3.443 -1.5136 -1.7442  1.4413
19905TIP3   OH281205   2.283   4.795  16.320 -0.5647  0.2046  0.3314
19905TIP3    H181206   2.315   4.706  16.335 -2.7939 -1.0162 -1.4649
19905TIP3    H281207   2.362   4.848  16.313  0.9693 -2.0722 -0.9515
19906TIP3   OH281208   6.418   2.660  11.903  0.1593  0.6314  0.2151
19906TIP3    H181209   6.326   2.644  11.924  0.0745  0.4404 -0.3008
19906TIP3    H281210   6.461   2.666  11.988 -0.2354  0.1755  0.4480
19907TIP3   OH281211   1.241   4.996   1.182  0.0096  0.7472  0.2267
19907TIP3    H181212   1.246   4.900   1.172  1.2257  0.7108  1.0283
19907TIP3    H281213   1.246   5.029   1.092  1.9374  0.1183  0.0484
19908TIP3   OH281214   3.793   3.871   3.383 -0.3941 -0.1098  0.5479
19908TIP3    H181215   3.708   3.914   3.380  0.1457  0.9505 -0.4989
19908TIP3    H281216   3.855   3.942   3.402  0.7390  0.0477 -2.9220
19909TIP3   OH281217   2.489   3.800  13.876  0.1104 -0.7275 -0.0277
19909TIP3    H181218   2.398   3.802  13.847  0.4736 -0.2214 -1.1827
19909TIP3    H281219   2.540   3.792  13.796  1.0720 -1.8386  0.6611
19910TIP3   OH281220   6.482   1.956   1.272 -0.2153 -0.1910  0.0226
19910TIP3    H181221   6.483   1.930   1.180  0.9071 -1.4738  0.3731
19910TIP3    H281222   6.518   2.044   1.272  2.1433 -1.0802 -0.5558
19911TIP3   OH281223   3.497   3.066   3.025  0.3094  0.1043 -0.5983
19911TIP3    H181224   3.507   2.997   3.090 -1.1156  0.1005 -0.3567
19911TIP3    H281225   3.431   3.033   2.964 -0.3533  1.2119 -0.5155
19912TIP3   OH281226   1.636   0.018  12.561  0.3627  0.4168 -0.1329
19912TIP3    H181227   1.618  -0.015  12.648  1.7088 -1.6735 -0.5811
19912TIP3    H281228   1.609  -0.053  12.502  1.8104  0.7309 -1.2423
19913TIP3   OH281229   0.736   0.991   0.371  0.7517  0.0272 -0.3340
19913TIP3    H181230   0.696   0.988   0.284  0.2613 -0.9109 -0.0928
19913TIP3    H281231   0.662   1.003   0.431  1.0506  0.3271 -0.0217
19914TIP3   OH281232   3.692   3.822  12.271 -0.0944  0.5945  0.1005
19914TIP3    H181233   3.775   3.780  12.293  0.8307  1.7730 -0.9563
19914TIP3    H281234   3.668   3.871  12.349 -0.4313 -0.6814  0.8218
19915TIP3   OH281235   5.949   2.443   0.326  0.4678  0.0906 -0.4704
19915TIP3    H181236   5.949   2.478   0.415  0.5553  0.0425 -0.4512
19915TIP3    H281237   6.023   2.382   0.324  1.6674  1.5025 -1.1242
19916TIP3   OH281238   5.952   1.872  12.461 -0.2879 -0.2292  0.1758
19916TIP3    H181239   6.020   1.934  12.489  0.3203 -0.8890  0.1976
19916TIP3    H281240   5.893   1.865  12.535 -0.1375  0.0235  0.3206
19917TIP3   OH281241   0.988   3.975  16.472 -0.7438 -0.2582 -0.1131
19917TIP3    H181242   0.914   4.033  16.491 -0.4341  0.4474 -0.9717
19917TIP3    H281243   0.979   3.953  16.380  0.0058 -0.3165 -0.1814
19918TIP3   OH281244   0.459   3.833   0.379  0.6973  0.2381 -0.1579
19918TIP3    H181245   0.410   3.886   0.316  1.2668 -0.4463 -1.1937
19918TIP3    H281246   0.393   3.803   0.441 -0.5767 -2.0557 -2.4463
19919TIP3   OH281247   2.075   3.997  12.421 -0.6475 -1.0206  0.0379
19919TIP3    H181248   2.111   3.994  12.332 -0.4546 -0.2157  0.0786
19919TIP3    H281249   1.986   3.962  12.412 -1.0221  0.0563 -0.6813
19920TIP3   OH281250   5.674   4.691  16.093 -0.6270  0.8731  0.0305
19920TIP3    H181251   5.766   4.708  16.111 -0.1260 -0.1009 -1.4827
19920TIP3    H281252   5.670   4.601  16.062 -1.9674  1.1283 -0.6654
19921TIP3   OH281253   0.732   3.830   1.792  0.0799  0.2470  0.4529
19921TIP3    H181254   0.796   3.759   1.791  0.7107  0.7329 -2.5073
19921TIP3    H281255   0.756   3.882   1.868 -0.0686 -2.3391  2.4130
19922TIP3   OH281256   0.336   4.445   2.871  0.0877  0.2906 -0.0606
19922TIP3    H181257   0.289   4.376   2.917 -1.1127  1.7942  1.0489
19922TIP3    H281258   0.284   4.524   2.885  1.3402  1.4200 -1.4084
19923TIP3   OH281259   2.666   0.016   3.835  0.3606  0.3283  0.1385
19923TIP3    H181260   2.605   0.090   3.842 -1.6047 -1.4069  4.0381
19923TIP3    H281261   2.610  -0.062   3.839  2.6334 -1.3878  0.2559
19924TIP3   OH281262   4.577   1.962   5.786 -0.0246  0.0459  0.3726
19924TIP3    H181263   4.509   1.897   5.769  0.0053  0.0098  0.3894
19924TIP3    H281264   4.607   1.989   5.699 -0.0891  0.0921  0.3645
19925TIP3   OH281265   3.294   3.510   2.771 -0.7245  0.2487  0.4059
19925TIP3    H181266   3.297   3.459   2.852 -1.9982 -1.3803 -0.5229
19925TIP3    H281267   3.386   3.528   2.751 -0.3508 -0.0363  1.7635
19926TIP3   OH281268   6.809   6.666   3.208 -0.0903  0.3577  0.5563
19926TIP3    H181269   6.724   6.624   3.221 -0.2992  0.7099  0.3641
19926TIP3    H281270   6.820   6.722   3.285  0.2766 -0.1971  0.9056
19927TIP3   OH281271   2.180   1.001   1.772  0.6248 -0.2590 -0.2814
19927TIP3    H181272   2.223   1.058   1.836  0.4242  0.3074 -0.6371
19927TIP3    H281273   2.126   0.943   1.825 -3.0902  3.0556  0.0408
19928TIP3   OH281274   1.947   4.326   6.775  0.2584  0.6766  0.1270
19928TIP3    H181275   1.923   4.380   6.851  0.7286 -0.1642  0.8964
19928TIP3    H281276   2.043   4.322   6.780  0.1948 -0.8062  0.5085
19929TIP3   OH281277   1.335   2.072  16.383  0.2241  0.5520  0.0418
19929TIP3    H181278   1.324   2.157  16.427  1.3346  0.0964  1.2655
19929TIP3    H281279   1.344   2.009  16.454  5.8480  0.2118 -0.5567
19930TIP3   OH281280   6.419   1.378   4.732 -0.2417 -0.3491  0.0271
19930TIP3    H181281   6.455   1.464   4.710 -0.9079  0.0104  0.3267
19930TIP3    H281282   6.324   1.388   4.721 -0.2977 -1.1584 -0.3224
19931TIP3   OH281283   4.447   5.421  14.429  0.0245 -0.0780  0.3069
19931TIP3    H181284   4.543   5.428  14.433  0.0677 -0.9786  2.1847
19931TIP3    H281285   4.418   5.459  14.512 -1.3943  1.5943 -0.8855
19932TIP3   OH281286   5.023   2.325   4.024  0.3511 -0.5415  0.1553
19932TIP3    H181287   5.050   2.402   3.974 -0.0530 -0.1236  0.5614
19932TIP3    H281288   5.004   2.259   3.958 -2.7308  0.7994 -0.4827
19933TIP3   OH281289   4.424   4.135  12.429 -0.7697  0.2694 -0.1042
19933TIP3    H181290   4.394   4.224  12.411  0.1812  0.6476  0.1056
19933TIP3    H281291   4.514   4.133  12.396 -0.3120 -0.1874  1.1046
19934TIP3   OH281292   2.924   1.912  16.632  0.4041 -0.2387  0.3994
19934TIP3    H181293   2.911   1.839  16.692  3.4999 -1.3920 -0.1723
19934TIP3    H281294   2.894   1.879  16.547  0.0651 -0.1351  0.4742
19935TIP3   OH281295   5.014   5.687  14.480 -0.5276 -0.0209  0.4377
19935TIP3    H181296   4.961   5.680  14.560  0.4587 -1.7134  1.0032
19935TIP3    H281297   5.008   5.600  14.440 -0.1948  0.5166 -0.8076
19936TIP3   OH281298   3.227   1.270  10.874  0.0219 -0.1568  0.2528
19936TIP3    H181299   3.225   1.292  10.781  1.0788 -0.2157  0.2075
19936TIP3    H281300   3.135   1.254  10.897 -0.1735 -0.8926 -0.9648
19937TIP3   OH281301   6.200   3.608   4.663  0.7987  0.2001  0.0350
19937TIP3    H181302   6.114   3.604   4.706  1.0400 -2.0646  0.4348
19937TIP3    H281303   6.220   3.701   4.659 -1.1323  0.7223  1.0324
19938TIP3   OH281304   3.389   5.361   3.127  0.7996 -0.6933 -0.3391
19938TIP3    H181305   3.393   5.271   3.096  0.9011 -0.2815 -1.5710
19938TIP3    H281306   3.347   5.409   3.056 -1.8140 -0.2116  1.3866
19939TIP3   OH281307   6.756   3.949   2.883  0.4817  0.1351  0.7003
19939TIP3    H181308   6.849   3.970   2.898  0.2500 -0.5875  3.8670
19939TIP3    H281309   6.755   3.853   2.876 -0.0265  0.1357  0.7563
19940TIP3   OH281310   2.602   0.900  12.113  0.4616  0.7301  0.1024
19940TIP3    H181311   2.562   0.890  12.200  0.4770 -1.8200 -0.0992
19940TIP3    H281312   2.556   0.973  12.073  0.4787  2.0050  2.2500
19941TIP3   OH281313   4.849   3.590   3.993 -0.0728  0.3061 -0.2851
19941TIP3    H181314   4.828   3.616   3.903  0.9089  0.1690 -0.5633
19941TIP3    H281315   4.866   3.496   3.988  2.1774  0.6613 -0.4085
19942TIP3   OH281316   5.506   3.955  15.176 -0.0914  0.3611 -0.4734
19942TIP3    H181317   5.413   3.937  15.180  0.0831 -0.7063 -0.9491
19942TIP3    H281318   5.546   3.872  15.151  0.8949  1.0373 -1.2380
19943TIP3   OH281319   3.502   4.807   0.760  0.1007  0.1847  0.3946
19943TIP3    H181320   3.516   4.827   0.852  1.5652  0.8685  0.0428
19943TIP3    H281321   3.485   4.892   0.719  0.5674  0.0222 -0.1475
19944TIP3   OH281322   3.397   0.986   2.077 -0.2724 -0.0014 -0.1472
19944TIP3    H181323   3.374   1.073   2.044  0.2621 -0.3743 -1.5766
19944TIP3    H281324   3.481   0.998   2.120 -0.9610  0.4857  1.1214
19945TIP3   OH281325   6.365   1.149   0.252  0.3016  0.4767 -0.0991
19945TIP3    H181326   6.358   1.158   0.157  1.8593  0.5264 -0.2370
19945TIP3    H281327   6.343   1.236   0.286 -0.9692  0.2699 -0.3521
19946TIP3   OH281328   5.414   1.366   3.990  0.3123 -0.7207  0.1606
19946TIP3    H181329   5.325   1.355   3.958  0.0020 -1.0967  1.1125
19946TIP3    H281330   5.450   1.439   3.939 -0.5826 -0.4733 -0.1266
19947TIP3   OH281331   5.198   4.635  17.057 -0.5980  0.2562 -0.1444
19947TIP3    H181332   5.182   4.546  17.089 -2.4410  1.0396  1.2961
19947TIP3    H281333   5.292   4.636  17.035 -0.3977 -1.8385  0.3936
19948TIP3   OH281334   3.779   1.118   3.200 -0.1543  0.0412 -0.0042
19948TIP3    H181335   3.825   1.199   3.224  1.4034 -0.5212 -0.9667
19948TIP3    H281336   3.698   1.122   3.250  1.7303  0.1490  3.3612
19949TIP3   OH281337   2.512   1.017  16.344 -0.6469  0.5368 -0.0154
19949TIP3    H181338   2.532   0.971  16.263 -0.1649 -0.2752  0.5504
19949TIP3    H281339   2.451   0.960  16.391  1.6028 -0.6432  1.6659
19950TIP3   OH281340   0.571   2.702   4.392 -0.0445 -0.5912  0.3450
19950TIP3    H181341   0.480   2.721   4.368 -0.4111 -0.2491  1.9147
19950TIP3    H281342   0.566   2.667   4.481  1.3687 -0.5199  0.4815
19951TIP3   OH281343   3.353   2.802  15.649 -0.2100 -0.0605 -0.1938
19951TIP3    H181344   3.272   2.853  15.647  0.0735  0.3846 -0.4408
19951TIP3    H281345   3.349   2.749  15.569  0.7066  1.4891 -1.3169
19952TIP3   OH281346   0.370   2.179   1.528  0.0104 -0.3433 -0.2041
19952TIP3    H181347   0.374   2.105   1.589  1.9185  0.5901  0.9041
19952TIP3    H281348   0.457   2.219   1.533  0.1008  0.1005 -3.1890
19953TIP3   OH281349   0.269   1.755   1.186 -0.1232 -0.4257  0.9384
19953TIP3    H181350   0.362   1.769   1.167 -0.4904 -0.1034 -0.6926
19953TIP3    H281351   0.252   1.810   1.262  0.5412  1.1867 -0.0406
19954TIP3   OH281352   4.613   5.439  13.602  0.3983 -0.0509 -0.1350
19954TIP3    H181353   4.560   5.418  13.526  0.2082  0.8338 -0.2595
19954TIP3    H281354   4.549   5.466  13.669  0.5133 -1.4331  0.5554
19955TIP3   OH281355   3.535   3.217  14.709 -0.1979  0.0616 -0.0384
19955TIP3    H181356   3.597   3.150  14.680 -0.5276 -0.3105  0.1049
19955TIP3    H281357   3.537   3.213  14.804 -0.3164  0.1628 -0.0309
19956TIP3   OH281358   3.748   6.182  15.964  0.4330 -0.0900 -0.0763
19956TIP3    H181359   3.796   6.257  15.929  0.6693  0.1361  0.6992
19956TIP3    H281360   3.673   6.221  16.010 -0.1244 -0.4033 -0.7133
19957TIP3   OH281361   4.973   3.250  14.534 -0.2275 -0.0726  0.4697
19957TIP3    H181362   4.920   3.328  14.519  0.4197  0.1458 -0.7889
19957TIP3    H281363   4.995   3.219  14.446  0.5183 -0.9918  0.9665
19958TIP3   OH281364   3.314   0.470   5.223 -0.0079  0.0435 -0.1832
19958TIP3    H181365   3.348   0.553   5.257 -0.2957 -0.0852  0.4319
19958TIP3    H281366   3.232   0.494   5.179  0.0552  0.1220 -0.2600
19959TIP3   OH281367   1.256   4.821   3.662 -0.4832  0.1603  0.5544
19959TIP3    H181368   1.199   4.896   3.676 -1.5452  0.0992 -2.5715
19959TIP3    H281369   1.243   4.766   3.739 -1.8348  1.8363  1.5932
19960TIP3   OH281370   4.023   1.084  15.883 -0.4757  0.3790 -0.2723
19960TIP3    H181371   3.953   1.122  15.830  0.2581  1.2180 -0.6626
19960TIP3    H281372   4.002   1.110  15.972 -0.8034  0.4016 -0.3556
19961TIP3   OH281373   6.023   2.011   0.955 -0.9212 -0.4055  0.3008
19961TIP3    H181374   6.020   2.045   0.865  0.4330  1.3825  0.8705
19961TIP3    H281375   5.978   2.078   1.007  1.0236  0.1694  1.3405
19962TIP3   OH281376   6.055   4.365  13.159  0.5377 -0.4950  0.5051
19962TIP3    H181377   6.068   4.335  13.249  0.7577 -0.4590  0.4872
19962TIP3    H281378   6.141   4.399  13.133  0.1483  0.6793  0.7187
19963TIP3   OH281379   3.314   3.720   4.481  0.5223 -0.1036  0.1679
19963TIP3    H181380   3.340   3.629   4.472  2.2277  0.3534  0.1560
19963TIP3    H281381   3.396   3.770   4.475 -0.4296  1.4790 -0.5049
19964TIP3   OH281382   4.613   4.418  13.507  0.1007 -0.5761  0.5268
19964TIP3    H181383   4.609   4.335  13.459 -0.2897 -0.9508  1.1875
19964TIP3    H281384   4.527   4.457  13.493  0.8102  0.5090 -1.1247
19965TIP3   OH281385   0.924   4.099   6.001 -0.1131  0.3941 -0.3896
19965TIP3    H181386   0.864   4.025   5.988  0.7844 -0.6212  0.9436
19965TIP3    H281387   0.997   4.061   6.050  1.3537  1.7156 -1.4518
19966TIP3   OH281388   4.221   4.668  14.502 -0.2291  0.1349 -0.0095
19966TIP3    H181389   4.269   4.648  14.422 -1.0791  1.2264 -0.8367
19966TIP3    H281390   4.283   4.653  14.572  1.3847  1.6380 -1.0363
19967TIP3   OH281391   6.578   3.724  15.545 -0.2013  0.3775 -0.2761
19967TIP3    H181392   6.543   3.712  15.457 -1.5404  1.2009  0.1094
19967TIP3    H281393   6.566   3.817  15.563  0.7473  0.3639  0.4983
19968TIP3   OH281394   3.365   4.900   0.451  0.3346  0.0121 -0.4548
19968TIP3    H181395   3.310   4.954   0.395 -0.3021 -2.1015 -2.0190
19968TIP3    H281396   3.303   4.854   0.509  0.7687  0.1882  0.1655
19969TIP3   OH281397   6.708   5.731  16.724  0.0598  0.0853  0.0705
19969TIP3    H181398   6.657   5.696  16.797  1.1122 -0.3035  0.6253
19969TIP3    H281399   6.644   5.782  16.674 -0.6258  0.5709  1.3883
19970TIP3   OH281400   1.260   1.013  10.073  0.6323 -0.3710  0.2250
19970TIP3    H181401   1.177   0.969  10.051  0.1455  0.0563  1.1740
19970TIP3    H281402   1.250   1.040  10.164  0.7895  1.9756 -0.3911
19971TIP3   OH281403   5.049   0.235  15.265 -0.2470 -0.1643  0.3284
19971TIP3    H181404   5.074   0.193  15.348 -0.6977 -2.5174 -0.6463
19971TIP3    H281405   4.954   0.243  15.269 -0.4695 -1.7902 -0.5357
19972TIP3   OH281406   2.640   0.921  12.990  0.2980  0.3846 -0.0958
19972TIP3    H181407   2.656   0.942  13.082 -0.9864 -0.6769  0.3935
19972TIP3    H281408   2.726   0.926  12.949  0.9539  0.4495  1.2398
19973TIP3   OH281409   6.368   3.911   4.030 -0.3047  0.1535  0.6485
19973TIP3    H181410   6.426   3.969   3.980  1.5443 -0.1765  2.3312
19973TIP3    H281411   6.333   3.967   4.099  0.8183 -0.4858  1.7630
19974TIP3   OH281412   2.061   3.447  15.742 -0.0822 -0.1850  0.0266
19974TIP3    H181413   2.071   3.406  15.656  1.4646  0.8209 -0.3164
19974TIP3    H281414   1.973   3.485  15.741  0.1606  0.4171 -1.4074
19975TIP3   OH281415   4.589   2.515  14.216  0.2723 -0.0857  0.1662
19975TIP3    H181416   4.624   2.603  14.231  2.4997 -0.7854 -0.5326
19975TIP3    H281417   4.594   2.473  14.302 -2.3074  0.8948  0.8777
19976TIP3   OH281418   6.327   0.198  14.415  0.2424  0.6916 -0.0493
19976TIP3    H181419   6.320   0.121  14.471  2.8146  0.9072  0.6677
19976TIP3    H281420   6.319   0.163  14.326  1.3253 -0.4205  0.2617
19977TIP3   OH281421   0.658   6.799   2.335  0.2658 -0.4457  0.1148
19977TIP3    H181422   0.573   6.777   2.373 -0.2228  0.4845 -0.4100
19977TIP3    H281423   0.721   6.766   2.398 -0.5072  0.0075  1.1517
19978TIP3   OH281424   0.383   1.569   3.911  0.0142  0.0299 -0.4848
19978TIP3    H181425   0.308   1.607   3.958  2.0393  1.3612  1.9138
19978TIP3    H281426   0.456   1.626   3.933  2.0281 -1.9567 -1.6531
19979TIP3   OH281427   1.612   6.767   1.472 -0.7177  0.4776  0.3242
19979TIP3    H181428   1.586   6.768   1.564 -0.9311 -0.8899  0.3027
19979TIP3    H281429   1.538   6.727   1.426  0.1413 -0.6219 -0.1576
19980TIP3   OH281430   4.902   2.880   3.753  0.3362  0.4916  0.4971
19980TIP3    H181431   4.880   2.947   3.689 -0.2457  1.0269  1.2253
19980TIP3    H281432   4.859   2.910   3.834  2.1742  0.5752  1.5052
19981TIP3   OH281433   1.602   2.223   1.403  0.2431 -0.1246  0.1495
19981TIP3    H181434   1.567   2.274   1.476  0.5131 -0.4479  0.5081
19981TIP3    H281435   1.544   2.146   1.397 -1.0761  0.9068 -1.3330
19982TIP3   OH281436   0.791   6.472   2.427  0.0224 -0.1364 -0.4018
19982TIP3    H181437   0.809   6.558   2.466  0.9892  0.0568 -1.2397
19982TIP3    H281438   0.749   6.492   2.343  0.3946 -0.4710 -0.6704
19983TIP3   OH281439   4.989   5.284  17.078  0.2270  0.0708 -0.7621
19983TIP3    H181440   5.074   5.329  17.084 -0.4863  1.6358 -1.7430
19983TIP3    H281441   4.990   5.243  16.992 -1.0120  2.3761 -1.9639
19984TIP3   OH281442   6.368   0.111   4.016  0.4272 -0.5962  0.1345
19984TIP3    H181443   6.440   0.163   3.981  0.8156 -0.6176  0.8876
19984TIP3    H281444   6.405   0.067   4.093 -0.5002 -0.2956  0.7662
19985TIP3   OH281445   4.368   1.264   5.857 -0.4689 -1.0944 -0.3347
19985TIP3    H181446   4.347   1.269   5.950 -1.0313 -2.3393 -0.3747
19985TIP3    H281447   4.413   1.346   5.838  1.8710 -1.8017  1.6106
19986TIP3   OH281448   1.984   2.316  11.680  0.3048 -0.1671  0.9769
19986TIP3    H181449   1.993   2.233  11.726 -2.6753 -0.3558  1.3971
19986TIP3    H281450   1.957   2.293  11.591  0.5999  0.3266  0.7531
19987TIP3   OH281451   3.800   5.720  12.077  0.0522 -0.4746  0.3691
19987TIP3    H181452   3.800   5.625  12.068 -1.3397 -0.4156 -0.6161
19987TIP3    H281453   3.865   5.750  12.013 -2.6091 -0.6108 -2.6435
19988TIP3   OH281454   4.117   2.869  14.761 -0.4334 -0.1233  0.3310
19988TIP3    H181455   4.088   2.778  14.771 -0.5234  0.0030  1.2203
19988TIP3    H281456   4.187   2.864  14.695  1.1848 -1.1741  2.0257
19989TIP3   OH281457   3.417   6.405   0.583 -0.3176  0.3917 -0.0280
19989TIP3    H181458   3.474   6.356   0.524  0.0236  0.2218  0.4407
19989TIP3    H281459   3.391   6.482   0.532  0.5872  0.6356 -0.1355
19990TIP3   OH281460   3.090   0.634   4.291 -0.2489  0.1248 -0.4576
19990TIP3    H181461   3.157   0.601   4.231  1.8400 -0.2279  1.9156
19990TIP3    H281462   3.139   0.677   4.361 -2.4871 -0.1970  1.4400
19991TIP3   OH281463   1.143   3.484  15.604  0.2376 -0.3133 -0.1315
19991TIP3    H181464   1.179   3.521  15.684  0.1641 -1.3755  0.4060
19991TIP3    H281465   1.049   3.498  15.611  0.3621  1.0258 -0.7952
19992TIP3   OH281466   4.279   5.790  14.767  0.3572  0.1814  0.9395
19992TIP3    H181467   4.223   5.729  14.815  1.6183 -0.5110  1.6151
19992TIP3    H281468   4.243   5.877  14.786  0.0740 -0.1802  2.1387
19993TIP3   OH281469   4.983   6.651  11.952  0.4438 -0.3568  0.3117
19993TIP3    H181470   5.063   6.600  11.959  2.6758  3.0295  2.6273
19993TIP3    H281471   4.932   6.627  12.029  1.3807  0.5942  1.2700
19994TIP3   OH281472   4.964   0.220   3.112 -0.2275  0.1665 -0.2092
19994TIP3    H181473   4.965   0.129   3.081 -2.8336 -0.1509  0.3955
19994TIP3    H281474   5.005   0.216   3.198  0.2892 -0.3210 -0.4752
19995TIP3   OH281475   0.962   0.791  13.754  0.2685 -0.2250 -0.4041
19995TIP3    H181476   1.042   0.839  13.773 -0.6015  1.6953 -1.2472
19995TIP3    H281477   0.965   0.715  13.811  1.2926  1.3211  1.7450
19996TIP3   OH281478   0.853   3.304   1.496  0.1167  0.3233  0.0365
19996TIP3    H181479   0.939   3.338   1.471 -0.0587  0.0395 -1.0131
19996TIP3    H281480   0.799   3.382   1.510  0.6603  0.5131  1.1836
19997TIP3   OH281481   2.529   0.159   0.223 -1.0552 -0.5171  0.0869
19997TIP3    H181482   2.486   0.129   0.142  0.3182  1.5376 -1.5066
19997TIP3    H281483   2.540   0.253   0.211 -0.2531 -0.2446  2.4509
19998TIP3   OH281484   4.542   0.073   3.756  0.2706  0.1019 -0.2472
19998TIP3    H181485   4.488   0.140   3.715  0.1457  0.7183  0.8661
19998TIP3    H281486   4.632   0.100   3.738  0.2554 -0.8748 -2.0238
19999TIP3   OH281487   5.168   0.774   1.156  0.1489  0.7572  0.4364
19999TIP3    H181488   5.182   0.730   1.240 -1.0486  0.9522  0.7697
19999TIP3    H281489   5.255   0.787   1.121  0.6122 -0.6217  0.9789
20000TIP3   OH281490   3.610   5.723   3.493 -0.1925  0.4031 -0.5622
20000TIP3    H181491   3.550   5.795   3.515 -0.5397  0.3847 -1.3931
20000TIP3    H281492   3.626   5.679   3.576 -1.2445  0.4866 -0.2971
20001TIP3   OH281493   6.308   0.377  15.321  0.1323 -0.6037  0.2101
20001TIP3    H181494   6.360   0.366  15.400 -0.4789  1.3141  0.9294
20001TIP3    H281495   6.240   0.440  15.345  0.0570  0.2087 -1.8802
20002TIP3   OH281496   6.315   3.378   0.712 -0.4335  0.2988 -0.1234
20002TIP3    H181497   6.273   3.452   0.669 -2.6795 -1.2128 -0.7361
20002TIP3    H281498   6.315   3.308   0.646 -1.9887 -1.4207  1.5686
20003TIP3   OH281499   3.436   6.803  16.173 -0.0706  0.4356  0.0052
20003TIP3    H181500   3.489   6.792  16.094 -1.3566  0.8865 -0.9479
20003TIP3    H281501   3.365   6.739  16.164 -1.9379  2.4668 -0.7350
20004TIP3   OH281502   4.077   5.865  16.748  0.1684  0.5420 -0.2578
20004TIP3    H181503   4.129   5.793  16.784 -1.3432 -0.5329 -0.1554
20004TIP3    H281504   4.065   5.925  16.821  2.1309  1.3781 -0.5430
20005TIP3   OH281505   4.694   5.211   4.020 -0.2163 -0.3283  0.0924
20005TIP3    H181506   4.659   5.251   4.099  2.1177  1.1922  0.4572
20005TIP3    H281507   4.637   5.242   3.950 -0.0053  1.6004  0.7187
20006TIP3   OH281508   5.108   1.885  16.783  0.4699 -0.0862  0.8111
20006TIP3    H181509   5.155   1.936  16.717 -0.2400 -1.3002 -0.6864
20006TIP3    H281510   5.097   1.945  16.857 -1.3147  2.3394 -1.2614
20007TIP3   OH281511   5.918   3.034   6.358  0.4163  0.0693 -0.1391
20007TIP3    H181512   5.938   3.055   6.449  2.1403  0.6850 -0.6125
20007TIP3    H281513   5.985   2.971   6.332 -1.5201 -2.0629 -0.3235
20008TIP3   OH281514   2.175   3.184   5.087  0.1556 -0.0531  0.1076
20008TIP3    H181515   2.163   3.154   4.997  1.3453 -1.7130  0.4571
20008TIP3    H281516   2.094   3.230   5.108 -0.9810 -1.4197 -1.1302
20009TIP3   OH281517   1.049   2.326   4.110 -0.1862  0.3654 -0.0647
20009TIP3    H181518   1.035   2.260   4.042 -1.3479  0.8269 -0.2905
20009TIP3    H281519   1.048   2.276   4.192 -0.2759 -0.0007 -0.2856
20010TIP3   OH281520   1.266   2.347   3.869  0.6522  0.3098 -0.3489
20010TIP3    H181521   1.224   2.270   3.906 -1.1460  0.7533 -1.3675
20010TIP3    H281522   1.289   2.400   3.945  1.2129 -0.8529  0.3187
20011TIP3   OH281523   5.947   5.292  10.792 -0.7083 -0.0734  0.4362
20011TIP3    H181524   6.029   5.335  10.765 -0.8365  0.8014  1.3586
20011TIP3    H281525   5.883   5.321  10.728 -0.2384 -1.0804 -0.5271
20012TIP3   OH281526   1.353   3.261   2.366  0.3132  0.2358 -0.0881
20012TIP3    H181527   1.387   3.336   2.319  0.1074  0.1380 -0.3983
20012TIP3    H281528   1.416   3.245   2.436  0.5040  0.5191 -0.1956
20013TIP3   OH281529   3.619   2.861   0.322 -0.0921 -0.3969  0.0068
20013TIP3    H181530   3.641   2.887   0.412  1.5938  0.2399 -0.5533
20013TIP3    H281531   3.524   2.873   0.316 -0.2840 -0.7399  1.7776
20014TIP3   OH281532   2.841   6.277  12.875 -0.0438 -0.3577  0.1938
20014TIP3    H181533   2.846   6.366  12.841  0.2568 -0.1049  0.8664
20014TIP3    H281534   2.761   6.276  12.928 -1.2380 -1.1366 -1.5548
20015TIP3   OH281535   0.806   1.918  15.990  0.2271  0.1391  0.2692
20015TIP3    H181536   0.792   1.946  15.899 -1.5438  0.5973  0.6383
20015TIP3    H281537   0.772   1.829  15.993 -3.8609  1.5153  1.3492
20016TIP3   OH281538   0.764   1.684  13.602 -0.1599 -0.7672 -0.0558
20016TIP3    H181539   0.825   1.750  13.568  0.9568 -1.2305  0.9649
20016TIP3    H281540   0.714   1.657  13.525 -0.6423  1.2344 -0.4952
20017TIP3   OH281541   0.197   5.450   5.062 -0.7709  0.1970 -0.6262
20017TIP3    H181542   0.218   5.542   5.048 -2.6903  0.5666 -1.4466
20017TIP3    H281543   0.227   5.431   5.150  1.0564  1.1485 -0.9993
20018TIP3   OH281544   4.172   0.897  12.240  0.6321  0.1542  0.0974
20018TIP3    H181545   4.179   0.844  12.319 -0.8677 -0.6041 -0.2472
20018TIP3    H281546   4.203   0.839  12.170  0.8829  0.4321 -0.0229
20019TIP3   OH281547   3.827   5.729  16.718  0.5211  0.2684  0.2449
20019TIP3    H181548   3.858   5.819  16.720  1.7999 -0.1564  0.6429
20019TIP3    H281549   3.860   5.690  16.799  1.2681 -0.9307 -0.5825
20020TIP3   OH281550   6.781   4.475  16.698 -0.8923 -0.6255 -0.7214
20020TIP3    H181551   6.708   4.431  16.740 -1.7327  0.8585 -0.5657
20020TIP3    H281552   6.757   4.479  16.605  0.2545 -2.5038 -1.1693
20021TIP3   OH281553   1.425   3.447   2.148 -0.5893 -0.2911 -0.1646
20021TIP3    H181554   1.463   3.526   2.186 -0.6906  0.2146 -1.0976
20021TIP3    H281555   1.389   3.475   2.064 -1.8204 -1.0550  0.0847
20022TIP3   OH281556   1.265   0.653   1.237  0.2216 -0.0114 -0.1230
20022TIP3    H181557   1.171   0.648   1.256  0.3137 -0.2072  0.3077
20022TIP3    H281558   1.280   0.745   1.214  0.0018  0.1162  0.2361
20023TIP3   OH281559   1.315   2.405  16.511 -0.4803 -0.2188 -0.2702
20023TIP3    H181560   1.370   2.330  16.534  1.2829  0.4035 -2.1543
20023TIP3    H281561   1.366   2.481  16.538 -1.5160  0.3505  0.1310
20024TIP3   OH281562   0.783   2.831  11.895  0.3284 -0.2490 -0.0643
20024TIP3    H181563   0.791   2.903  11.833 -1.6317  0.0057 -0.0918
20024TIP3    H281564   0.769   2.754  11.839  2.0963 -0.6432 -0.0228
20025TIP3   OH281565   1.132   5.183  13.056 -0.0339 -0.1330  0.2884
20025TIP3    H181566   1.117   5.102  13.007  0.3700  0.4019 -0.7544
20025TIP3    H281567   1.088   5.250  13.004  1.8642  0.7180 -0.3092
20026TIP3   OH281568   6.355   0.773   5.222 -0.5065  0.3866  0.1641
20026TIP3    H181569   6.363   0.791   5.128  0.8365 -0.5391  0.0705
20026TIP3    H281570   6.437   0.806   5.260 -0.0130 -1.2926  0.6382
20027TIP3   OH281571   1.548   5.917  11.894 -0.1351 -0.0377  0.4914
20027TIP3    H181572   1.584   5.831  11.916 -0.3462 -0.1202  0.5161
20027TIP3    H281573   1.481   5.899  11.829 -1.8128 -0.1525  2.1876
20028TIP3   OH281574   0.216   3.554   2.241  0.0363  0.3273 -0.0825
20028TIP3    H181575   0.252   3.533   2.327 -2.9890  0.9916  1.4813
20028TIP3    H281576   0.189   3.470   2.205 -0.9694  0.2588  0.7804
20029TIP3   OH281577   1.278   5.729  15.055 -0.1798 -0.5164  0.4266
20029TIP3    H181578   1.242   5.792  15.118 -0.6095 -1.2576  0.9308
20029TIP3    H281579   1.243   5.645  15.082 -1.7936 -0.6527 -1.8116
20030TIP3   OH281580   4.059   1.405  11.633  0.6122  0.4034  0.2949
20030TIP3    H181581   4.009   1.487  11.627  0.4533  0.2623 -0.4267
20030TIP3    H281582   4.113   1.416  11.711  1.0422  1.4498 -0.1278
20031TIP3   OH281583   2.735   1.113   1.838 -0.2385  0.5476  0.1520
20031TIP3    H181584   2.684   1.162   1.902  1.5120  2.6206  0.0603
20031TIP3    H281585   2.698   1.024   1.841 -1.9647  1.2498  2.0431
20032TIP3   OH281586   5.762   2.204  12.805  0.4779 -0.0006  0.3732
20032TIP3    H181587   5.726   2.246  12.883  1.0841  1.7268 -0.2148
20032TIP3    H281588   5.787   2.277  12.748  0.5516 -1.2018 -1.2122
20033TIP3   OH281589   3.628   2.485  14.708 -0.1278  0.0702 -0.1075
20033TIP3    H181590   3.687   2.432  14.761 -1.4290 -0.5545  0.7690
20033TIP3    H281591   3.654   2.576  14.726  0.7916 -0.2013 -0.0342
20034TIP3   OH281592   3.835   2.595   6.116  0.2646 -0.2660 -0.3850
20034TIP3    H181593   3.882   2.525   6.070  2.0348 -0.2118  1.2017
20034TIP3    H281594   3.892   2.616   6.190 -0.3871  2.6452 -0.6233
20035TIP3   OH281595   2.254   5.141  13.724 -0.3993 -0.4706  0.5551
20035TIP3    H181596   2.198   5.093  13.786 -0.8526 -1.1149 -0.3409
20035TIP3    H281597   2.206   5.221  13.705 -0.6377 -0.6477  0.4087
20036TIP3   OH281598   6.314   2.932  16.563  0.4614 -0.0595  0.1865
20036TIP3    H181599   6.369   2.864  16.602  0.1865 -0.8342 -0.7471
20036TIP3    H281600   6.353   3.014  16.593 -0.2747 -0.5690  2.8801
20037TIP3   OH281601   2.838   1.046   6.078 -0.1007  0.4165 -0.1004
20037TIP3    H181602   2.802   1.134   6.092 -0.3935  0.0731  1.5925
20037TIP3    H281603   2.764   0.987   6.097  0.8506 -0.2565  1.7487
20038TIP3   OH281604   2.126   0.018   0.443  0.0854 -0.2733  0.6169
20038TIP3    H181605   2.173   0.101   0.448  0.5383 -0.5038  0.2028
20038TIP3    H281606   2.170  -0.030   0.374 -0.9226 -0.3852  0.0393
20039TIP3   OH281607   2.455   5.254   3.772 -0.0781  0.2869 -0.2541
20039TIP3    H181608   2.447   5.326   3.709  2.3106  1.1199  0.2678
20039TIP3    H281609   2.550   5.245   3.784 -0.4388 -0.8327  2.0978
20040TIP3   OH281610   4.626   0.171   5.435 -1.0079 -0.3865 -0.1217
20040TIP3    H181611   4.681   0.121   5.496 -1.3579 -0.5953  0.0278
20040TIP3    H281612   4.626   0.119   5.355  1.5720  1.1364 -1.2426
20041TIP3   OH281613   5.091   6.226  12.445 -0.2830  0.0752 -0.2589
20041TIP3    H181614   5.125   6.255  12.530 -1.1913  0.9677 -0.1795
20041TIP3    H281615   5.124   6.291  12.383 -0.1935 -0.1867 -0.4882
20042TIP3   OH281616   1.755   1.820  14.687 -0.0307  0.0200 -0.1500
20042TIP3    H181617   1.799   1.905  14.685 -0.4722  0.2330 -0.9686
20042TIP3    H281618   1.662   1.840  14.677 -0.5609 -0.3157  2.8884
20043TIP3   OH281619   1.867   4.484   4.477  0.2070 -0.5424 -0.0510
20043TIP3    H181620   1.911   4.461   4.396 -0.8749 -0.0446 -0.7974
20043TIP3    H281621   1.774   4.470   4.459  0.0631 -3.3815  2.0399
20044TIP3   OH281622   2.599   3.618   0.271  0.5291 -0.2357 -0.1347
20044TIP3    H181623   2.659   3.680   0.312  2.0053 -1.4041 -0.4425
20044TIP3    H281624   2.635   3.532   0.292 -0.5349 -0.9494 -1.0935
20045TIP3   OH281625   5.684   6.086   2.604 -0.5475  0.2821 -0.5639
20045TIP3    H181626   5.768   6.116   2.569  0.0676  0.8440  1.2784
20045TIP3    H281627   5.638   6.166   2.631  0.2220 -0.1610  2.4411
20046TIP3   OH281628   1.677   3.127  14.997  0.4767  0.0460  1.1588
20046TIP3    H181629   1.623   3.205  15.009 -0.6008 -0.6510  0.9651
20046TIP3    H281630   1.765   3.161  14.979  0.0141  1.2085  1.0231
20047TIP3   OH281631   2.133   2.067   2.099 -0.1478 -0.6828  0.4290
20047TIP3    H181632   2.191   2.143   2.099  0.3055 -1.0251 -0.3188
20047TIP3    H281633   2.088   2.072   2.184  0.3582  0.0459  0.6665
20048TIP3   OH281634   6.140   1.328  14.531  0.0810  0.5696  0.1557
20048TIP3    H181635   6.088   1.396  14.574 -0.0354  0.1839  0.6295
20048TIP3    H281636   6.215   1.314  14.589 -0.5010 -0.5366  0.6665
20049TIP3   OH281637   4.577   5.954  13.882 -0.2657  0.4357 -0.7144
20049TIP3    H181638   4.635   6.003  13.823 -0.0819 -1.1512 -1.9119
20049TIP3    H281639   4.492   5.954  13.838 -0.4659  0.3393 -0.3351
20050TIP3   OH281640   1.377   6.490  15.176  0.1940 -0.2472 -0.6620
20050TIP3    H181641   1.449   6.491  15.113 -0.2139  1.2706 -1.1447
20050TIP3    H281642   1.419   6.500  15.261  0.6681 -1.1668 -0.7775
20051TIP3   OH281643   4.655   5.615   2.952 -0.0616  0.2723 -0.3098
20051TIP3    H181644   4.620   5.663   2.876 -0.7010  0.3527  0.0320
20051TIP3    H281645   4.635   5.671   3.027 -0.8919 -0.5547  0.1083
20052TIP3   OH281646   5.767   4.214   5.437 -0.0816  0.2606 -0.2652
20052TIP3    H181647   5.676   4.186   5.434  0.0051 -0.0038 -0.4955
20052TIP3    H281648   5.764   4.309   5.426 -0.3128  0.2255 -0.5010
20053TIP3   OH281649   5.398   1.885  15.175  0.1574 -0.1880 -0.2739
20053TIP3    H181650   5.427   1.859  15.087  0.7846 -1.2439  0.2231
20053TIP3    H281651   5.442   1.968  15.192  1.1576 -0.6850 -0.3987
20054TIP3   OH281652   2.183   5.220  11.164  0.3779  0.3270 -0.1536
20054TIP3    H181653   2.272   5.194  11.142  0.5244  1.3611 -0.8464
20054TIP3    H281654   2.136   5.138  11.174  1.1729 -0.2162 -0.7715
20055TIP3   OH281655   4.380   1.137  11.189  0.3647 -0.3614  0.5209
20055TIP3    H181656   4.430   1.060  11.216 -0.4359 -0.4949  1.6739
20055TIP3    H281657   4.411   1.155  11.100  1.3995 -1.3095  0.6641
20056TIP3   OH281658   2.124   6.563  11.642  0.2119 -0.1739  1.0385
20056TIP3    H181659   2.206   6.532  11.681  0.3877  0.6351  1.3440
20056TIP3    H281660   2.080   6.609  11.713 -0.0796  0.1835  0.6353
20057TIP3   OH281661   6.453   3.468   2.284 -0.1904 -0.2686  0.3384
20057TIP3    H181662   6.520   3.446   2.220  0.8319  2.0940  0.4913
20057TIP3    H281663   6.375   3.485   2.232 -0.9219 -3.4414  0.1850
20058TIP3   OH281664   4.872   2.862   6.476  0.0671  0.1570 -0.0277
20058TIP3    H181665   4.945   2.837   6.533  0.2952  0.1711 -0.3143
20058TIP3    H281666   4.820   2.922   6.529 -0.5286 -0.9706  0.7001
20059TIP3   OH281667   6.441   3.690   5.304  0.4504 -0.0314 -0.0471
20059TIP3    H181668   6.486   3.639   5.371  1.1345  1.2355  0.4994
20059TIP3    H281669   6.485   3.775   5.305 -0.1779  0.3446 -1.4215
20060TIP3   OH281670   4.257   0.812  14.295  0.3127 -0.0294  0.0779
20060TIP3    H181671   4.230   0.722  14.275  1.5315 -0.1706 -1.0818
20060TIP3    H281672   4.202   0.866  14.238 -0.2664 -0.0381  0.6153
20061TIP3   OH281673   3.331   3.475   3.432  0.0945 -0.4786  0.0966
20061TIP3    H181674   3.407   3.454   3.377 -0.1388  3.1322 -1.8800
20061TIP3    H281675   3.276   3.397   3.427  2.1346 -1.9580 -1.1048
20062TIP3   OH281676   2.811   6.507   0.259 -0.2617  0.3056 -0.6447
20062TIP3    H181677   2.746   6.529   0.325 -0.2002 -0.1834 -0.4079
20062TIP3    H281678   2.791   6.562   0.184 -1.8951 -0.9015 -1.1459
20063TIP3   OH281679   3.118   2.683  14.862 -0.1442 -0.0557  0.1859
20063TIP3    H181680   3.207   2.709  14.837  0.4913  0.5510  2.7842
20063TIP3    H281681   3.062   2.753  14.830  0.1756 -0.6927 -1.9405
20064TIP3   OH281682   0.311   1.513   0.598  0.3920  0.1517 -0.2365
20064TIP3    H181683   0.335   1.548   0.684 -0.5409 -0.6263  0.3597
20064TIP3    H281684   0.218   1.534   0.590  0.0004 -1.4946 -0.2009
20065TIP3   OH281685   5.189   0.592   6.186  0.0874  0.1452 -0.1899
20065TIP3    H181686   5.184   0.679   6.147  0.4447  0.5850  0.7396
20065TIP3    H281687   5.116   0.589   6.247  0.3186 -0.0586  0.0771
20066TIP3   OH281688   4.037   5.164  16.861 -0.1554  0.0663  0.1250
20066TIP3    H181689   4.045   5.212  16.943 -0.9631  2.3702 -1.0293
20066TIP3    H281690   3.964   5.104  16.875 -0.5572  0.7263  0.9829
20067TIP3   OH281691   0.752   6.224   2.565  0.1058  0.2978 -0.6394
20067TIP3    H181692   0.763   6.154   2.502 -0.2734 -0.8905  0.5787
20067TIP3    H281693   0.711   6.295   2.515 -0.7422 -0.8193 -1.5847
20068TIP3   OH281694   1.248   0.573   5.604  0.5316  0.0873 -0.0696
20068TIP3    H181695   1.193   0.529   5.668  0.9441  0.1511  0.3330
20068TIP3    H281696   1.239   0.666   5.624 -1.6785  0.3801 -1.9774
20069TIP3   OH281697   0.797   6.438   0.576 -0.1673 -0.4946  0.1388
20069TIP3    H181698   0.847   6.408   0.652  0.2955 -2.4710 -0.8603
20069TIP3    H281699   0.772   6.357   0.531 -1.4981  0.5727 -1.1492
20070TIP3   OH281700   2.846   2.290   2.425  0.5333  0.0036  0.1379
20070TIP3    H181701   2.835   2.282   2.520  1.0505  1.1088  0.3106
20070TIP3    H281702   2.941   2.295   2.412  0.5508 -1.6605 -0.5975
20071TIP3   OH281703   2.151   3.870  14.359  0.1345  0.4147  0.3566
20071TIP3    H181704   2.119   3.796  14.412  0.0722 -0.7688 -1.2515
20071TIP3    H281705   2.109   3.947  14.397 -1.1564 -0.5895  1.0359
20072TIP3   OH281706   0.374   4.471   1.355 -0.0248 -0.3062 -0.2006
20072TIP3    H181707   0.386   4.532   1.428  0.6865 -1.7875  0.9916
20072TIP3    H281708   0.296   4.420   1.380 -1.1407  0.6445 -1.6037
20073TIP3   OH281709   0.763   4.113  13.384 -0.3111 -0.2940 -0.3172
20073TIP3    H181710   0.673   4.145  13.384 -0.6053 -1.1128 -0.2196
20073TIP3    H281711   0.815   4.188  13.354 -0.7067  1.0417  2.0901
20074TIP3   OH281712   4.391   0.328  16.261  0.0851 -0.3737 -0.0064
20074TIP3    H181713   4.432   0.349  16.345 -0.8100  0.2567  0.2819
20074TIP3    H281714   4.317   0.388  16.254 -0.4578 -1.1082 -0.7864
20075TIP3   OH281715   0.783   5.221   2.925 -0.2973  0.2265 -0.6128
20075TIP3    H181716   0.720   5.288   2.952 -0.5302 -0.1061 -0.3275
20075TIP3    H281717   0.777   5.154   2.993  2.1622  1.3232  0.8397
20076TIP3   OH281718   3.181   3.742  14.459 -0.6193 -0.1760  0.1243
20076TIP3    H181719   3.263   3.723  14.413 -1.5503  0.5388 -1.9366
20076TIP3    H281720   3.150   3.824  14.421 -1.7305  0.1816  1.6981
20077TIP3   OH281721   3.636   1.668   4.595 -0.2967 -0.3704  0.0533
20077TIP3    H181722   3.590   1.696   4.516 -0.9004  0.1954  0.5907
20077TIP3    H281723   3.617   1.736   4.660 -0.5892 -1.2761  0.9566
20078TIP3   OH281724   5.495   6.684  10.826 -0.1393 -0.3770 -0.3780
20078TIP3    H181725   5.482   6.666  10.733 -0.4081  2.1164 -0.8966
20078TIP3    H281726   5.589   6.700  10.834 -0.1544 -0.3509 -0.2602
20079TIP3   OH281727   4.961   3.583  16.783  0.2818 -0.1926 -0.1293
20079TIP3    H181728   4.999   3.565  16.697  0.4412 -0.4916  0.0022
20079TIP3    H281729   5.017   3.535  16.844  0.0626 -0.1255  0.1256
20080TIP3   OH281730   1.678   6.368  16.254  0.3234  0.0160  0.5048
20080TIP3    H181731   1.763   6.413  16.253 -0.0795  0.7813  0.0291
20080TIP3    H281732   1.648   6.375  16.345 -0.2771  1.7676  0.1994
20081TIP3   OH281733   1.877   2.285   2.326  0.1119 -0.7306  0.6115
20081TIP3    H181734   1.855   2.342   2.399 -1.4969  0.8426 -0.9920
20081TIP3    H281735   1.918   2.343   2.262  0.6455 -1.8779 -0.1268
20082TIP3   OH281736   0.358   4.889   1.299  0.2266 -0.1444  0.4844
20082TIP3    H181737   0.337   4.842   1.380 -1.3517 -1.3850 -0.5667
20082TIP3    H281738   0.275   4.926   1.270 -0.0943 -2.5488 -2.2282
20083TIP3   OH281739   5.549   6.214  15.902  0.0889  0.4057 -0.2472
20083TIP3    H181740   5.606   6.224  15.826 -0.1977 -3.2947 -1.1380
20083TIP3    H281741   5.460   6.221  15.867 -0.0734  1.5282  0.3241
20084TIP3   OH281742   1.476   2.125   4.536  0.6441  0.5334  0.2507
20084TIP3    H181743   1.476   2.155   4.445  0.9173 -2.2579 -0.7610
20084TIP3    H281744   1.559   2.156   4.571  0.9614  0.8443 -0.7403
20085TIP3   OH281745   3.679   2.858   1.219  0.2838  0.3991  0.2714
20085TIP3    H181746   3.759   2.805   1.214 -0.1684 -0.2599 -0.2502
20085TIP3    H281747   3.707   2.940   1.258  1.1577  0.0588  0.3888
20086TIP3   OH281748   2.935   1.127  12.045 -0.1025  0.4644 -0.5381
20086TIP3    H181749   2.956   1.044  12.003  0.8325  0.8530 -0.8749
20086TIP3    H281750   2.871   1.168  11.987 -0.5097  0.0265 -0.4095
20087TIP3   OH281751   3.892   1.902  14.105 -0.9023  0.1515  0.0613
20087TIP3    H181752   3.824   1.966  14.084 -0.7622  0.0393 -0.7761
20087TIP3    H281753   3.847   1.818  14.104 -1.0601  0.2118  1.0387
20088TIP3   OH281754   4.686   0.501  14.772  0.0478  0.0753  0.3644
20088TIP3    H181755   4.735   0.537  14.846 -0.2932 -0.6433  0.9601
20088TIP3    H281756   4.700   0.563  14.701  1.8429 -0.1344  0.5029
20089TIP3   OH281757   1.928   2.250   6.282 -0.1729  1.3188  0.5783
20089TIP3    H181758   1.879   2.223   6.359 -1.5391  2.4484  0.1558
20089TIP3    H281759   1.866   2.304   6.232  0.7902  0.9278 -1.1135
20090TIP3   OH281760   1.375   4.508  15.903 -0.6752 -0.1765  0.4547
20090TIP3    H181761   1.373   4.423  15.948 -0.1191 -1.1238 -1.2277
20090TIP3    H281762   1.285   4.522  15.874 -0.4197 -1.1819 -0.9483
20091TIP3   OH281763   2.700   6.734  14.827  0.5597  0.9695 -0.3704
20091TIP3    H181764   2.680   6.827  14.835 -1.3553  0.6039 -0.5925
20091TIP3    H281765   2.615   6.691  14.816  1.4568 -0.7311 -1.1065
20092TIP3   OH281766   1.243   5.528  14.370 -0.3237 -0.1531  0.1167
20092TIP3    H181767   1.204   5.611  14.399 -0.3121 -0.6822  1.7384
20092TIP3    H281768   1.309   5.508  14.437  0.0589 -1.1884 -0.5501
20093TIP3   OH281769   5.225   6.713  12.733 -0.5089  0.5014  0.7204
20093TIP3    H181770   5.184   6.798  12.713 -0.9595  0.2090  0.3879
20093TIP3    H281771   5.306   6.736  12.778  1.2981  1.2679 -2.5950
20094TIP3   OH281772   5.848   4.361  15.521  0.2121  0.1588  0.1296
20094TIP3    H181773   5.895   4.295  15.469 -0.5969  0.8931 -1.6184
20094TIP3    H281774   5.778   4.313  15.564  2.1465 -0.8638  2.3804
20095TIP3   OH281775   6.597   6.557  11.294 -0.5121 -0.0995  0.3285
20095TIP3    H181776   6.636   6.494  11.354  1.2316  1.7777  1.3114
20095TIP3    H281777   6.518   6.514  11.262  0.5346 -2.7098  0.9696
20096TIP3   OH281778   1.741   4.584  14.892 -0.0209  0.6684  0.6384
20096TIP3    H181779   1.787   4.566  14.809 -0.5253 -1.3099  0.7413
20096TIP3    H281780   1.807   4.568  14.959 -1.0439 -3.8948  0.8973
20097TIP3   OH281781   2.702   2.138   6.788 -0.0473  0.0247  0.1705
20097TIP3    H181782   2.622   2.183   6.760 -1.6349 -1.6642  1.6081
20097TIP3    H281783   2.767   2.161   6.723 -0.9085  3.6472  0.3497
20098TIP3   OH281784   2.808   3.557  12.336 -0.3552  0.3415  0.5011
20098TIP3    H181785   2.731   3.564  12.279  0.5139  0.6590 -0.6774
20098TIP3    H281786   2.778   3.506  12.411 -1.2263 -1.1755 -0.8227
20099TIP3   OH281787   2.622   4.945   5.687 -0.1031  0.3114  0.6193
20099TIP3    H181788   2.625   4.867   5.632 -0.5093  0.2349  0.6982
20099TIP3    H281789   2.529   4.965   5.695  0.0448  1.5582 -0.4453
20100TIP3   OH281790   2.880   2.239   2.699 -0.2856  0.1999  0.9155
20100TIP3    H181791   2.941   2.311   2.715  1.8459 -1.4216  0.5803
20100TIP3    H281792   2.820   2.243   2.773  0.6164  1.4847  1.6404
20101TIP3   OH281793   3.292   1.110   1.139 -0.1532  0.0821  0.5543
20101TIP3    H181794   3.333   1.079   1.220  0.4448  0.2183  0.3101
20101TIP3    H281795   3.249   1.192   1.162 -2.2098 -1.1491  1.3415
20102TIP3   OH281796   1.884   5.886   2.482 -0.1907 -0.9040  0.0194
20102TIP3    H181797   1.875   5.867   2.575  1.6385  1.0676  0.7064
20102TIP3    H281798   1.814   5.837   2.440 -1.8969 -0.8480  2.5589
20103TIP3   OH281799   2.401   3.554  12.389  0.1371 -0.3066 -0.1756
20103TIP3    H181800   2.462   3.587  12.454  0.3571 -2.7587  0.9851
20103TIP3    H281801   2.443   3.572  12.305  1.8133 -0.6718  0.5402
20104TIP3   OH281802   0.128   4.441  13.997  0.1017  0.3003 -0.4285
20104TIP3    H181803   0.055   4.384  13.974  0.7603 -1.2604  1.1655
20104TIP3    H281804   0.188   4.385  14.046  2.9013  1.2233 -2.5319
20105TIP3   OH281805   2.610   4.392   1.871 -0.1303 -0.3635 -0.8533
20105TIP3    H181806   2.609   4.300   1.898  1.6796 -0.7427 -1.8809
20105TIP3    H281807   2.615   4.441   1.953 -0.4178 -1.2131 -0.3132
20106TIP3   OH281808   3.287   0.051  13.592 -0.4445  0.1603  0.1331
20106TIP3    H181809   3.380   0.062  13.574 -0.5428  0.4529 -0.2105
20106TIP3    H281810   3.260  -0.021  13.534 -0.8992  1.5229 -1.4150
20107TIP3   OH281811   4.457   0.219  10.733 -0.7706  0.5872 -0.5175
20107TIP3    H181812   4.514   0.296  10.729 -1.5956  1.2570  0.1540
20107TIP3    H281813   4.503   0.152  10.683  0.8198  0.9551  0.3998
20108TIP3   OH281814   5.243   1.964  14.223  0.1619 -0.2764  0.0903
20108TIP3    H181815   5.187   1.892  14.252 -0.1551  0.7203  2.1787
20108TIP3    H281816   5.183   2.028  14.186  0.4518 -1.0697 -1.8394
20109TIP3   OH281817   4.841   5.505   1.039  0.3255 -0.0212  0.8419
20109TIP3    H181818   4.846   5.569   1.111 -0.3944  1.0688 -0.0421
20109TIP3    H281819   4.781   5.545   0.977 -0.5692 -1.8452  0.4987
20110TIP3   OH281820   1.050   1.595   1.815  0.2716 -0.0728 -0.5359
20110TIP3    H181821   1.093   1.530   1.759  0.7323 -0.5362  0.3461
20110TIP3    H281822   0.957   1.584   1.796  0.4240 -0.1174 -1.3218
20111TIP3   OH281823   0.523   3.545   1.024 -0.4027  0.0186  0.5182
20111TIP3    H181824   0.605   3.559   1.073  0.2361 -0.5225 -0.3677
20111TIP3    H281825   0.542   3.470   0.968  0.2258  2.8015 -3.3743
20112TIP3   OH281826   6.281   6.517   4.696  0.1723 -0.2028  0.0090
20112TIP3    H181827   6.245   6.526   4.608 -0.8000  1.8255  0.5442
20112TIP3    H281828   6.341   6.592   4.705  1.7627 -1.4715  0.4278
20113TIP3   OH281829   3.561   3.091   1.678 -0.1403 -0.0568 -0.5161
20113TIP3    H181830   3.491   3.061   1.621  0.1930  0.0139 -0.9635
20113TIP3    H281831   3.541   3.183   1.694  0.6676  0.3858 -1.8871
20114TIP3   OH281832   5.705   5.839  12.789  0.1372  0.0052  0.5281
20114TIP3    H181833   5.747   5.759  12.821  0.3602  0.1008  0.4791
20114TIP3    H281834   5.747   5.909  12.839  1.0241  0.2214 -0.4895
20115TIP3   OH281835   6.493   1.532  14.315  0.0347  0.1549  0.0202
20115TIP3    H181836   6.428   1.581  14.264 -1.6428 -0.6448  1.3208
20115TIP3    H281837   6.488   1.443  14.281  1.8053  0.4080 -1.0958
20116TIP3   OH281838   3.857   4.369   5.840 -0.3415 -0.2409  0.0016
20116TIP3    H181839   3.799   4.323   5.900  0.5422 -3.1060 -1.1612
20116TIP3    H281840   3.911   4.300   5.801 -0.1478  1.5496 -3.2823
20117TIP3   OH281841   3.049   2.676  11.355  0.3651 -0.2342  0.0291
20117TIP3    H181842   2.970   2.722  11.323  0.8563  0.3588 -0.3532
20117TIP3    H281843   3.101   2.661  11.276  1.0319  0.1479  0.3918
20118TIP3   OH281844   2.308   4.308   1.925  0.3670 -0.3446 -0.2368
20118TIP3    H181845   2.302   4.217   1.895 -0.5982  0.1193 -1.5763
20118TIP3    H281846   2.304   4.302   2.020 -0.1583 -1.6767 -0.3137
20119TIP3   OH281847   6.254   4.637  13.539  0.2090  0.3821  0.3309
20119TIP3    H181848   6.235   4.689  13.462  0.3787 -1.5656 -1.1108
20119TIP3    H281849   6.186   4.661  13.603 -1.3990  0.3195 -1.2924
20120TIP3   OH281850   2.979   0.771   2.199  0.0582  0.3184 -0.1878
20120TIP3    H181851   3.057   0.731   2.238 -0.5324  0.0172  0.7216
20120TIP3    H281852   2.908   0.749   2.260 -0.8457  0.0916 -1.2853
20121TIP3   OH281853   2.162   3.420  14.571 -0.2126 -0.4050 -0.9468
20121TIP3    H181854   2.156   3.329  14.542  0.8084 -0.0114 -2.5548
20121TIP3    H281855   2.256   3.436  14.582 -0.4294  0.2266  0.1710
20122TIP3   OH281856   2.991   2.849  16.009 -0.2208 -0.6051 -0.3537
20122TIP3    H181857   3.050   2.782  15.973 -1.6120 -2.9580  1.4808
20122TIP3    H281858   3.043   2.894  16.076  0.2583 -0.8980 -0.5262
20123TIP3   OH281859   2.573   1.201   2.864  0.1495 -0.4128 -0.1105
20123TIP3    H181860   2.580   1.135   2.795  1.6866  0.0232 -0.4190
20123TIP3    H281861   2.480   1.205   2.885 -0.0213 -2.3554 -0.3895
20124TIP3   OH281862   4.726   3.857   5.672 -0.2337 -0.4190  0.3172
20124TIP3    H181863   4.809   3.897   5.644 -1.0562  0.1945 -1.4310
20124TIP3    H281864   4.677   3.930   5.711 -0.0021 -0.7618  1.2706
20125TIP3   OH281865   2.635   0.306   4.419 -0.5100 -0.3290  0.1061
20125TIP3    H181866   2.663   0.287   4.329  1.1471 -1.1640  0.7520
20125TIP3    H281867   2.642   0.402   4.426 -0.2351 -0.2952 -0.5318
20126TIP3   OH281868   4.556   0.736  15.593 -0.1431  0.3439 -0.3628
20126TIP3    H181869   4.586   0.815  15.639 -0.8435  0.9209 -0.8575
20126TIP3    H281870   4.600   0.740  15.508 -1.4400  1.1111 -1.0313
20127TIP3   OH281871   0.018   0.072   4.954 -0.4270 -0.0583 -0.3824
20127TIP3    H181872   0.064   0.044   5.033  2.0675  0.5125 -1.5376
20127TIP3    H281873   0.009  -0.007   4.902 -2.2014 -0.4634  0.4646
20128TIP3   OH281874   0.146   4.459  13.703 -0.0928  0.3446  0.4234
20128TIP3    H181875   0.173   4.479  13.792  0.5119  0.7247  0.1607
20128TIP3    H281876   0.140   4.364  13.700  4.0646 -0.0566 -0.2801
20129TIP3   OH281877   4.180   2.348   5.592 -0.8027  0.7623 -0.0170
20129TIP3    H181878   4.198   2.424   5.537 -1.2342  0.3413 -0.7600
20129TIP3    H281879   4.249   2.349   5.658 -0.1035  1.1262 -0.7321
20130TIP3   OH281880   6.414   1.328   4.060 -0.0083  0.2149 -0.5946
20130TIP3    H181881   6.381   1.238   4.062  0.5004 -0.0945 -2.9966
20130TIP3    H281882   6.369   1.367   3.985  0.0328  1.8800  0.2218
20131TIP3   OH281883   5.103   5.695  16.311  0.2040  0.3859  0.0687
20131TIP3    H181884   5.090   5.602  16.327  0.0252  0.4334  0.2037
20131TIP3    H281885   5.197   5.709  16.327  0.5520 -0.0573 -1.4650
20132TIP3   OH281886   1.559   2.431  11.218 -0.3140  0.3663  0.3731
20132TIP3    H181887   1.497   2.360  11.198 -0.1222  0.1640  0.4871
20132TIP3    H281888   1.506   2.510  11.219 -0.8694  0.0102  2.0931
20133TIP3   OH281889   4.703   1.339   0.661  0.1598  0.2755 -0.4663
20133TIP3    H181890   4.687   1.295   0.744 -1.2682  2.1231  0.3361
20133TIP3    H281891   4.793   1.371   0.667  0.4583 -0.6062 -0.1436
20134TIP3   OH281892   0.354   5.921  15.910  0.2724 -0.2187 -0.8373
20134TIP3    H181893   0.299   5.896  15.836 -1.1190 -2.6457  0.9210
20134TIP3    H281894   0.443   5.926  15.872 -0.4529 -0.8408 -2.7422
20135TIP3   OH281895   5.934   3.784   4.137 -0.0897  0.0250 -0.5941
20135TIP3    H181896   5.868   3.722   4.168 -0.6064  0.8416 -0.0261
20135TIP3    H281897   5.974   3.819   4.217 -0.6910  1.3613 -0.8410
20136TIP3   OH281898   2.044   5.745  10.228 -0.4223  0.2493  0.7410
20136TIP3    H181899   1.967   5.795  10.255  0.1888  1.1326  0.8794
20136TIP3    H281900   2.118   5.797  10.257  0.2416 -0.2754  0.0327
20137TIP3   OH281901   3.189   5.877  14.284 -0.2471  0.2615  0.0725
20137TIP3    H181902   3.229   5.909  14.203  1.2033  1.5596  1.2339
20137TIP3    H281903   3.150   5.793  14.260  0.1262  0.6259 -1.9670
20138TIP3   OH281904   4.143   4.781   3.066  0.1079  0.2910  0.3485
20138TIP3    H181905   4.193   4.841   3.010 -0.6652  1.2131  0.6331
20138TIP3    H281906   4.188   4.784   3.151  1.0094 -0.7670 -0.0510
20139TIP3   OH281907   1.882   2.783  16.479 -0.1732  0.0698  0.9166
20139TIP3    H181908   1.931   2.719  16.531  0.5988 -1.0509 -1.1149
20139TIP3    H281909   1.848   2.734  16.405  2.1341  2.2577 -1.8574
20140TIP3   OH281910   6.696   1.826  11.043  0.2077  0.0219  0.0773
20140TIP3    H181911   6.628   1.865  11.097  1.1884  0.4311  1.0505
20140TIP3    H281912   6.719   1.744  11.088  1.3262  0.5699  0.5508
20141TIP3   OH281913   2.491   4.084   4.447  0.0952 -0.0721  0.2116
20141TIP3    H181914   2.442   4.131   4.514 -1.3073 -3.3353  1.6913
20141TIP3    H281915   2.582   4.088   4.476 -0.3548 -0.4952  1.8007
20142TIP3   OH281916   2.903   1.244   4.477 -0.5536 -0.1042 -0.0353
20142TIP3    H181917   2.918   1.155   4.444 -1.0444 -1.2027  2.4850
20142TIP3    H281918   2.988   1.287   4.469 -0.4332 -0.5636 -1.8071
20143TIP3   OH281919   0.099   6.024   4.107 -0.0883  0.4837  0.2499
20143TIP3    H181920   0.155   6.095   4.136 -1.2101  1.0332  1.1564
20143TIP3    H281921   0.010   6.059   4.113 -0.5403 -0.2486 -1.4350
20144TIP3   OH281922   1.673   2.516   0.405  0.1763 -0.6961 -0.1805
20144TIP3    H181923   1.620   2.496   0.482 -2.1638  0.1682 -1.4645
20144TIP3    H281924   1.671   2.612   0.398 -2.1869 -0.8005 -2.8492
20145TIP3   OH281925   6.386   0.962  16.956 -0.1668  0.2974 -0.1735
20145TIP3    H181926   6.406   1.014  17.034  0.0984  1.7007 -1.1335
20145TIP3    H281927   6.291   0.968  16.946 -0.1546  0.4552 -0.1929
20146TIP3   OH281928   4.617   5.716   0.521 -0.2886 -0.1871 -0.3595
20146TIP3    H181929   4.661   5.631   0.523  0.8768  0.4051  0.0214
20146TIP3    H281930   4.586   5.725   0.431  1.1899 -0.2243 -0.8919
20147TIP3   OH281931   1.624   5.760   3.921  0.0462 -0.2348 -0.1514
20147TIP3    H181932   1.690   5.694   3.904  1.6692  0.9789  1.1249
20147TIP3    H281933   1.608   5.801   3.835 -0.4897 -1.7688 -0.8149
20148TIP3   OH281934   0.835   2.887   5.301 -0.5531  0.1604  0.4759
20148TIP3    H181935   0.851   2.902   5.207 -0.3538 -1.0588  0.2975
20148TIP3    H281936   0.751   2.841   5.304 -0.3498 -0.1923  0.8604
20149TIP3   OH281937   3.917   3.309   0.672 -0.4151 -0.0697  0.5262
20149TIP3    H181938   3.827   3.292   0.642 -0.0683 -0.3431 -0.3904
20149TIP3    H281939   3.943   3.388   0.625  0.6753 -1.3500 -1.1474
20150TIP3   OH281940   3.842   5.508  14.513 -0.3605 -0.0931  0.4750
20150TIP3    H181941   3.795   5.572  14.460 -0.9753  0.7319  1.9343
20150TIP3    H281942   3.934   5.520  14.490 -0.6846 -0.5176 -1.1532
20151TIP3   OH281943   6.328   2.659  14.696 -0.0235 -0.1466 -0.7194
20151TIP3    H181944   6.355   2.571  14.669  0.2666 -0.3408  0.1778
20151TIP3    H281945   6.264   2.686  14.629  0.4240 -0.7373 -1.4030
20152TIP3   OH281946   1.623   0.477  12.486  0.0394 -0.3514  0.2467
20152TIP3    H181947   1.612   0.450  12.394 -1.4437  0.6396  0.0972
20152TIP3    H281948   1.596   0.569  12.487  2.8360  0.5577  1.1490
20153TIP3   OH281949   0.296   3.632  15.925  0.0008 -0.1297 -0.1751
20153TIP3    H181950   0.223   3.630  15.862 -0.0309  1.2606 -0.2082
20153TIP3    H281951   0.261   3.589  16.003  0.3647 -2.8627 -1.3809
20154TIP3   OH281952   3.642   0.117  12.566  0.4510 -0.2486  0.4842
20154TIP3    H181953   3.570   0.114  12.629  1.3155 -0.3686  1.4898
20154TIP3    H281954   3.684   0.031  12.574  1.0013 -0.0039  0.2543
20155TIP3   OH281955   2.768   3.146   5.903 -0.0864 -0.5990  0.0764
20155TIP3    H181956   2.712   3.074   5.875 -0.8779  0.2914 -0.6912
20155TIP3    H281957   2.832   3.105   5.962 -2.4261 -1.4068  2.2238
20156TIP3   OH281958   5.633   4.734   5.910 -0.2930  0.6950 -0.1629
20156TIP3    H181959   5.637   4.825   5.942  2.2486  0.1320  1.3985
20156TIP3    H281960   5.715   4.695   5.939 -0.0050 -1.3567 -3.2960
20157TIP3   OH281961   1.330   5.976   5.634  0.1581  0.2378 -0.1125
20157TIP3    H181962   1.414   5.994   5.676  1.4026 -0.2196 -2.2154
20157TIP3    H281963   1.300   6.061   5.603  1.1522  0.1286 -1.5127
20158TIP3   OH281964   5.936   0.351  14.041  0.1792  0.8605  0.4230
20158TIP3    H181965   5.924   0.422  14.104  0.3432  0.2776  1.1320
20158TIP3    H281966   5.869   0.366  13.975 -1.1902  0.5002  1.6644
20159TIP3   OH281967   0.582   6.511   0.895 -0.0647 -0.3791 -0.0680
20159TIP3    H181968   0.658   6.562   0.922  0.5554 -1.3318  0.0197
20159TIP3    H281969   0.514   6.533   0.959  0.3400 -0.0381  0.2482
20160TIP3   OH281970   1.811   4.879   6.760 -0.0793 -0.3760  0.3453
20160TIP3    H181971   1.868   4.943   6.717  0.1632  0.4039  1.7843
20160TIP3    H281972   1.815   4.901   6.853 -0.9854 -1.7094  0.7317
20161TIP3   OH281973   1.008   4.752   3.034 -0.1103 -0.1852 -0.4626
20161TIP3    H181974   1.046   4.683   2.979  0.3675  0.2904 -0.7424
20161TIP3    H281975   1.057   4.831   3.010 -1.4801  0.5116 -1.0581
20162TIP3   OH281976   5.873   0.695  15.933  0.0849 -0.0435 -0.4344
20162TIP3    H181977   5.798   0.671  15.878 -1.0363  1.6181  0.2809
20162TIP3    H281978   5.900   0.613  15.974 -0.4871 -0.9134 -1.7248
20163TIP3   OH281979   4.735   6.265   5.230  0.0642 -0.1413  0.2877
20163TIP3    H181980   4.659   6.267   5.288  0.3243 -1.2609  0.7001
20163TIP3    H281981   4.708   6.207   5.159  0.6187 -0.7453  0.5666
20164TIP3   OH281982   6.521   3.119  15.658  0.5796  0.7625  0.0212
20164TIP3    H181983   6.519   3.107  15.563 -1.1409  0.6136  0.0365
20164TIP3    H281984   6.482   3.205  15.672  1.7582  1.2237  0.5568
20165TIP3   OH281985   6.369   3.528   4.873 -0.0014  0.1155 -0.2424
20165TIP3    H181986   6.431   3.563   4.808  0.4784 -1.3430 -0.6053
20165TIP3    H281987   6.290   3.509   4.823 -0.3956  0.9653  0.0252
20166TIP3   OH281988   0.165   6.630   5.301  0.6187 -0.0905  0.1428
20166TIP3    H181989   0.212   6.674   5.372 -1.8247  1.5225  0.8878
20166TIP3    H281990   0.129   6.551   5.341 -0.9713  0.9444  0.8606
20167TIP3   OH281991   4.615   0.174  11.406 -0.2207  0.2859  0.7860
20167TIP3    H181992   4.538   0.208  11.452 -0.0340 -1.3115  2.3737
20167TIP3    H281993   4.662   0.252  11.377 -1.7322  1.3074  0.9686
20168TIP3   OH281994   0.742   5.361  11.593 -0.5777 -1.0755  0.4106
20168TIP3    H181995   0.648   5.370  11.605 -0.4884  1.0771 -0.0018
20168TIP3    H281996   0.780   5.406  11.669  0.0663 -0.2596 -0.3637
20169TIP3   OH281997   5.067   3.781  11.760  0.0031 -0.5100  0.0300
20169TIP3    H181998   4.980   3.741  11.764  0.2279 -0.9081  1.4242
20169TIP3    H281999   5.056   3.865  11.805  0.0941 -0.0348 -0.8035
20170TIP3   OH282000   2.574   3.833   1.834  0.1548 -0.2321 -0.6008
20170TIP3    H182001   2.539   3.918   1.809 -0.1952  0.4699  1.9926
20170TIP3    H282002   2.497   3.778   1.850  0.1609  0.4174  2.1850
20171TIP3   OH282003   1.501   5.064   5.716  0.2836  0.2856 -0.3426
20171TIP3    H182004   1.453   5.038   5.638  0.1414 -1.4178  0.2832
20171TIP3    H282005   1.575   5.114   5.683 -1.3790  2.2155 -1.3763
20172TIP3   OH282006   1.452   4.302  16.691  0.1737  0.2900 -0.5682
20172TIP3    H182007   1.536   4.331  16.656  0.3740 -0.7313 -0.9668
20172TIP3    H282008   1.444   4.211  16.662 -1.5335  0.6609 -1.3767
20173TIP3   OH282009   4.152   6.462   4.548 -0.1123 -0.4232 -0.1271
20173TIP3    H182010   4.212   6.529   4.515  1.0351 -0.8170  1.0511
20173TIP3    H282011   4.137   6.405   4.472  1.4052 -0.5703 -0.3517
20174TIP3   OH282012   5.173   4.364   0.009  0.6019  0.4419 -0.3415
20174TIP3    H182013   5.257   4.327   0.033  1.3784  1.2138 -1.7613
20174TIP3    H282014   5.115   4.288  -0.001  1.2490 -0.1261  0.1498
20175TIP3   OH282015   1.691   6.565   0.527  0.2608 -0.4670  0.4804
20175TIP3    H182016   1.615   6.620   0.543  0.4216 -0.0877 -0.0429
20175TIP3    H282017   1.758   6.625   0.495  0.7250 -0.8268  0.7631
20176TIP3   OH282018   4.934   5.448   4.387  0.2999  0.3126  0.0358
20176TIP3    H182019   5.011   5.406   4.425 -0.7102  0.2686  2.1701
20176TIP3    H282020   4.964   5.481   4.302  2.6625  0.3090  0.7992
20177TIP3   OH282021   1.470   6.689   2.082  0.4618 -0.0546  0.5297
20177TIP3    H182022   1.395   6.674   2.025  0.5310 -2.6609  1.0160
20177TIP3    H282023   1.438   6.670   2.170  1.1019  1.1491  1.0541
20178TIP3   OH282024   2.727   5.105  11.899 -0.1383  0.6071 -0.1356
20178TIP3    H182025   2.822   5.110  11.891 -0.0694 -0.8145 -0.3734
20178TIP3    H282026   2.702   5.027  11.850 -1.1697 -0.3508  1.7831
20179TIP3   OH282027   6.124   0.614   4.674  0.5781 -0.1185 -0.4127
20179TIP3    H182028   6.100   0.692   4.624 -0.2801  2.1616  3.1815
20179TIP3    H282029   6.213   0.631   4.704  1.7120 -2.1976 -2.3271
20180TIP3   OH282030   6.787   1.063   1.796 -0.2923  0.2518 -0.1098
20180TIP3    H182031   6.728   0.989   1.784  1.1148 -1.3527  2.0113
20180TIP3    H282032   6.868   1.038   1.750  0.2368  0.3950  0.7154
20181TIP3   OH282033   5.621   3.591  15.367  0.5390  0.4585 -0.2331
20181TIP3    H182034   5.677   3.519  15.396 -0.0851  0.1341  0.2027
20181TIP3    H282035   5.658   3.669  15.408 -0.5101 -0.0286  1.7872
20182TIP3   OH282036   3.462   4.305   0.584  0.1514  0.4237  0.5406
20182TIP3    H182037   3.455   4.398   0.564 -1.4469  0.0309 -0.9504
20182TIP3    H282038   3.541   4.277   0.537  0.4868  0.9737  0.7723
20183TIP3   OH282039   0.059   3.752   2.518  0.0945  0.7225 -0.8330
20183TIP3    H182040   0.003   3.730   2.443  0.7575  2.3840 -1.8588
20183TIP3    H282041   0.016   3.709   2.592 -0.9740 -0.3830 -2.0260
20184TIP3   OH282042   6.217   5.864   5.026 -0.3412  0.2482  0.0573
20184TIP3    H182043   6.231   5.938   5.085 -0.1254  0.9212 -0.8115
20184TIP3    H282044   6.141   5.890   4.974 -1.6998 -1.1357  1.2554
20185TIP3   OH282045   1.158   6.625   3.673 -0.6485  0.5519 -0.2151
20185TIP3    H182046   1.222   6.647   3.606  0.3742 -3.0586 -0.6244
20185TIP3    H282047   1.211   6.598   3.748 -1.7809  1.5962  1.0143
20186TIP3   OH282048   5.618   6.057  14.249 -0.1058  0.1921  0.6989
20186TIP3    H182049   5.676   6.070  14.324 -0.7480  0.0217  1.2471
20186TIP3    H282050   5.540   6.109  14.270 -0.9238 -1.0417  0.9007
20187TIP3   OH282051   6.780   2.889  10.975  0.0115 -0.4187  0.2678
20187TIP3    H182052   6.812   2.808  11.014 -1.6911 -0.7027  1.1570
20187TIP3    H282053   6.770   2.868  10.882  2.7001 -0.1785 -0.1603
20188TIP3   OH282054   1.262   6.659   5.651  0.3406 -0.2446 -0.5377
20188TIP3    H182055   1.268   6.604   5.573  0.1221 -0.0767 -0.6758
20188TIP3    H282056   1.285   6.747   5.620  1.2366 -0.3451 -0.2074
20189TIP3   OH282057   6.837   3.250   2.635  0.2739 -0.6077  0.0661
20189TIP3    H182058   6.770   3.302   2.678 -0.2940 -1.1956 -0.0999
20189TIP3    H282059   6.910   3.248   2.698 -0.6128 -1.6188  1.1219
20190TIP3   OH282060   3.914   3.850  11.510 -0.1200 -0.4029 -0.4689
20190TIP3    H182061   3.958   3.888  11.435 -1.0058  0.6077 -0.4923
20190TIP3    H282062   3.960   3.767  11.525 -0.4563 -1.0445 -2.6365
20191TIP3   OH282063   2.730   0.505  11.187 -0.1245  0.1545  0.8084
20191TIP3    H182064   2.642   0.531  11.160  0.0390  1.4629  1.4459
20191TIP3    H282065   2.759   0.576  11.245  0.9412 -0.7732  1.4533
20192TIP3   OH282066   0.078   2.096  13.000  0.4899  0.2106 -0.3744
20192TIP3    H182067   0.005   2.050  12.959  1.0156 -0.0915 -0.9746
20192TIP3    H282068   0.145   2.029  13.012  0.4971  0.3768  0.6269
20193TIP3   OH282069   1.880   6.341  10.376 -0.2359 -0.2098  0.3342
20193TIP3    H182070   1.916   6.391  10.450 -0.2313  0.7086 -0.2751
20193TIP3    H282071   1.937   6.264  10.369 -0.6246 -0.6486  1.6877
20194TIP3   OH282072   0.461   4.075  11.646  0.1281 -0.5781  0.4067
20194TIP3    H182073   0.494   4.140  11.709  1.0482 -1.6800  1.1099
20194TIP3    H282074   0.373   4.106  11.624 -0.1881 -0.0740  2.1499
20195TIP3   OH282075   4.909   2.749   3.142 -0.3349 -0.2736 -0.4119
20195TIP3    H182076   4.947   2.775   3.058  0.4462  3.5289  0.9021
20195TIP3    H282077   4.821   2.786   3.142 -0.2874 -0.1246  0.4593
20196TIP3   OH282078   0.592   1.504   5.142  0.3514  0.4948 -0.1082
20196TIP3    H182079   0.524   1.535   5.082  0.4796  1.4770  0.2377
20196TIP3    H282080   0.674   1.538   5.106  0.9433 -2.1674 -1.5335
20197TIP3   OH282081   0.330   5.643   4.109 -0.0068 -0.2803 -0.5765
20197TIP3    H182082   0.275   5.695   4.051  0.8418 -0.4648 -1.5858
20197TIP3    H282083   0.320   5.684   4.195  0.9851  1.8629 -1.4162
20198TIP3   OH282084   5.082   1.242  13.744  0.0107  0.0237 -0.6273
20198TIP3    H182085   5.001   1.223  13.791  0.1595 -2.6342 -1.2498
20198TIP3    H282086   5.087   1.174  13.677  2.1958  0.7966 -1.3425
20199TIP3   OH282087   0.619   0.832   4.174  0.1099 -0.1155 -0.2774
20199TIP3    H182088   0.565   0.846   4.096 -0.3690  0.8220  0.2075
20199TIP3    H282089   0.697   0.885   4.159 -1.1548  2.3147  1.0068
20200TIP3   OH282090   2.625   6.792   5.525  0.0045  0.2217 -0.1238
20200TIP3    H182091   2.616   6.701   5.495  0.8821  0.6680 -1.8865
20200TIP3    H282092   2.715   6.816   5.502 -0.5265  1.8427 -0.6365
20201TIP3   OH282093   6.317   5.737  12.147  0.0824 -0.6866 -0.2217
20201TIP3    H182094   6.302   5.780  12.062  0.0954 -0.1253  0.0609
20201TIP3    H282095   6.311   5.644  12.127  0.2438 -0.5629 -0.8762
20202TIP3   OH282096   5.947   1.821   0.455 -0.3705  0.5281  0.1480
20202TIP3    H182097   6.012   1.833   0.524  1.2545  1.4302 -1.4618
20202TIP3    H282098   5.863   1.832   0.500  0.5699 -0.0167  2.1711
20203TIP3   OH282099   5.932   6.085   2.757  0.1316  0.1091  0.2616
20203TIP3    H182100   5.841   6.092   2.727  0.3238  1.0508 -0.1381
20203TIP3    H282101   5.962   6.000   2.724 -1.0344 -0.8783  1.6372
20204TIP3   OH282102   2.751   2.404   2.966 -0.2321  0.0592  0.0051
20204TIP3    H182103   2.673   2.459   2.963  0.4809  1.0919 -0.1589
20204TIP3    H282104   2.717   2.314   2.970 -1.4217  0.4195 -1.2348
20205TIP3   OH282105   3.144   5.085  11.523 -0.3171  0.3726  0.7909
20205TIP3    H182106   3.151   5.044  11.436 -0.5198 -0.3195  1.0954
20205TIP3    H282107   3.195   5.165  11.515  0.4195 -0.1235  0.2922
20206TIP3   OH282108   6.792   6.488  14.851 -0.1656 -0.3146  0.1014
20206TIP3    H182109   6.762   6.406  14.891 -0.7319 -1.0998 -1.7694
20206TIP3    H282110   6.714   6.543  14.848 -0.0911 -0.2040  0.2453
20207TIP3   OH282111   2.685   0.863   5.054  0.0016 -0.1757 -0.5414
20207TIP3    H182112   2.679   0.800   4.982  2.3269  1.0389 -1.9510
20207TIP3    H282113   2.776   0.858   5.083 -0.2566  1.1400  0.6100
20208TIP3   OH282114   3.621   6.203   6.029 -0.2791  0.4137  0.4044
20208TIP3    H182115   3.532   6.191   5.996  0.3987 -1.7998 -0.8478
20208TIP3    H282116   3.670   6.236   5.953  0.3877 -0.4394  0.4547
20209TIP3   OH282117   0.724   1.331  10.747  0.6178  0.1142  0.4143
20209TIP3    H182118   0.707   1.267  10.816  0.3170  0.5308  0.7275
20209TIP3    H282119   0.668   1.405  10.768 -0.3488 -0.2064 -0.9255
20210TIP3   OH282120   2.091   2.833   0.451 -0.3021  0.6529 -0.0826
20210TIP3    H182121   2.092   2.749   0.405  3.1424  0.3785  0.2649
20210TIP3    H282122   2.062   2.812   0.539  0.3339 -0.1475 -0.0582
20211TIP3   OH282123   6.442   5.472   5.679 -0.1844 -0.2102  0.1085
20211TIP3    H182124   6.464   5.379   5.682  0.5847 -0.1204 -1.4815
20211TIP3    H282125   6.347   5.473   5.667 -0.1650 -0.8121 -0.1687
20212TIP3   OH282126   0.233   4.857   5.990  0.3888  0.1783 -0.2324
20212TIP3    H182127   0.242   4.938   5.940  0.8012  0.0310 -0.4011
20212TIP3    H282128   0.139   4.849   6.006 -0.0428 -0.8264 -2.7831
20213TIP3   OH282129   4.282   6.716  14.892 -0.6036 -0.2264  0.2456
20213TIP3    H182130   4.361   6.719  14.946  0.3400  0.2740 -1.1132
20213TIP3    H282131   4.256   6.624  14.894  0.7704 -0.6610 -0.3079
20214TIP3   OH282132   1.504   2.395   4.907 -0.1068  0.3722  0.1841
20214TIP3    H182133   1.579   2.376   4.964 -0.9233  0.1723  1.2284
20214TIP3    H282134   1.467   2.476   4.943 -1.6355 -0.6466  1.0450
20215TIP3   OH282135   0.075   2.915   5.973 -0.3085 -0.3330  0.0985
20215TIP3    H182136   0.109   2.913   6.063 -0.1089  0.0196  0.0338
20215TIP3    H282137  -0.008   2.868   5.978 -0.0837 -0.7032  0.3778
20216TIP3   OH282138   0.339   6.287  14.677 -0.1491 -0.4800  0.2770
20216TIP3    H182139   0.400   6.312  14.608 -0.0079 -1.7890 -0.0922
20216TIP3    H282140   0.394   6.261  14.751 -0.2723 -0.4965  0.3648
20217TIP3   OH282141   4.911   5.601   4.934 -0.1605  0.0860 -0.0550
20217TIP3    H182142   4.955   5.564   4.857 -0.7655  0.7350 -0.7305
20217TIP3    H282143   4.975   5.663   4.970  0.3667 -0.6715  0.3505
20218TIP3   OH282144   4.073   2.973   1.500 -0.2991  0.7143 -0.5887
20218TIP3    H182145   4.006   2.906   1.512  0.0542  0.5429  0.5255
20218TIP3    H282146   4.150   2.926   1.470 -0.2086  0.6973 -0.3273
20219TIP3   OH282147   4.957   5.142   1.926 -0.3559  0.0984  0.2189
20219TIP3    H182148   4.877   5.184   1.894  0.1263  0.2634 -0.7926
20219TIP3    H282149   4.946   5.050   1.903  1.1409  0.5820 -3.0042
20220TIP3   OH282150   1.462   6.348  16.083  0.3246  0.4494 -0.5762
20220TIP3    H182151   1.503   6.357  16.169  0.1456 -0.7485 -0.3407
20220TIP3    H282152   1.535   6.335  16.023  0.3511 -1.6480 -0.1625
20221TIP3   OH282153   2.796   3.465   2.184 -0.4430  0.3393 -0.1488
20221TIP3    H182154   2.879   3.436   2.146  0.1232  0.9172  0.6079
20221TIP3    H282155   2.814   3.554   2.215 -0.7891 -0.1743  1.6555
20222TIP3   OH282156   5.265   2.624   0.135  0.0429  0.5295 -0.3287
20222TIP3    H182157   5.214   2.549   0.167 -0.5538  1.0552 -0.0104
20222TIP3    H282158   5.343   2.625   0.191  0.0456  0.1617 -0.3210
20223TIP3   OH282159   2.689   0.499  15.508  0.3171 -0.5770  0.2929
20223TIP3    H182160   2.743   0.514  15.431 -0.8838  0.5921 -0.3855
20223TIP3    H282161   2.619   0.441  15.478  0.0524 -0.4209  0.5957
20224TIP3   OH282162   3.358   4.518  11.599  0.6051  0.3399  0.3332
20224TIP3    H182163   3.450   4.531  11.575  0.3405  0.4320 -0.6903
20224TIP3    H282164   3.354   4.425  11.624  1.0398  0.4114  0.6788
20225TIP3   OH282165   0.848   1.458  12.831 -0.4123  0.7048 -0.1402
20225TIP3    H182166   0.903   1.397  12.782  0.4074  0.0793  1.4737
20225TIP3    H282167   0.797   1.504  12.764 -0.0365 -0.7564 -1.4988
20226TIP3   OH282168   0.329   5.725   5.123  1.3288 -0.4625 -0.0262
20226TIP3    H182169   0.315   5.791   5.191  2.2944  0.5879 -0.7977
20226TIP3    H282170   0.393   5.664   5.162 -0.1813 -1.4607  0.9938
20227TIP3   OH282171   3.712   5.743   2.413 -0.1945  0.5524 -0.4438
20227TIP3    H182172   3.707   5.656   2.452  1.9622  0.2463 -0.7648
20227TIP3    H282173   3.635   5.789   2.448 -0.1265 -0.7327  1.5490
20228TIP3   OH282174   2.736   3.990   6.033 -0.5235  0.1953  0.0923
20228TIP3    H182175   2.751   3.979   6.127 -1.6996  1.0343  0.4063
20228TIP3    H282176   2.751   4.083   6.017 -3.1488  0.6699  0.0503
20229TIP3   OH282177   0.887   3.233   2.487 -0.7732  0.5168  0.2280
20229TIP3    H182178   0.908   3.315   2.530  0.3982  0.2694  0.1662
20229TIP3    H282179   0.915   3.165   2.549 -0.5383  0.1644 -0.2585
20230TIP3   OH282180   2.041   3.982   3.996 -0.0574 -0.0504 -0.0701
20230TIP3    H182181   2.124   3.942   4.021  1.4624  1.4815 -2.2251
20230TIP3    H282182   2.015   4.033   4.073  1.3353 -0.0658  0.4420
20231TIP3   OH282183   6.797   0.138  16.686  0.5989  0.3353  0.4220
20231TIP3    H182184   6.830   0.224  16.710 -0.0725  0.5585  0.5534
20231TIP3    H282185   6.869   0.078  16.706  0.5202  0.6702  1.8096
20232TIP3   OH282186   4.883   5.357  12.263 -0.8306 -0.5111  0.0678
20232TIP3    H182187   4.974   5.372  12.239 -0.9677 -2.2784 -1.9171
20232TIP3    H282188   4.882   5.360  12.358  1.6403 -1.9830  0.2250
20233TIP3   OH282189   2.605   1.615   2.011 -0.1126 -0.1192  0.1588
20233TIP3    H182190   2.525   1.594   1.963  0.2659  1.3200 -1.2004
20233TIP3    H282191   2.575   1.633   2.100 -1.1863 -0.4478 -0.1159
20234TIP3   OH282192   6.429   4.979   0.572 -0.0349 -0.5543  0.3202
20234TIP3    H182193   6.460   4.979   0.662  0.9746 -0.6246 -0.0094
20234TIP3    H282194   6.347   5.028   0.574 -1.0523 -2.2100  1.6005
20235TIP3   OH282195   5.696   6.262  14.731 -0.2831 -0.3883 -0.1695
20235TIP3    H182196   5.642   6.336  14.757 -1.0235 -0.6047 -1.0436
20235TIP3    H282197   5.784   6.285  14.761 -0.9889 -0.4919  2.1894
20236TIP3   OH282198   2.580   1.662   2.285  0.4246 -0.9257  0.3788
20236TIP3    H182199   2.671   1.678   2.313  1.5641 -2.1948 -2.2244
20236TIP3    H282200   2.535   1.744   2.302  1.8961 -0.4124  2.2335
20237TIP3   OH282201   3.056   6.789  16.124  0.0913  0.2301 -0.0048
20237TIP3    H182202   3.054   6.862  16.062 -1.5430 -0.1579 -0.4600
20237TIP3    H282203   3.112   6.724  16.081 -0.4121  0.2700 -0.7542
20238TIP3   OH282204   6.140   0.818  12.432 -0.2638 -0.4200  0.4212
20238TIP3    H182205   6.187   0.788  12.510  1.6205  0.6048 -0.2445
20238TIP3    H282206   6.052   0.839  12.464  0.4382 -0.0744  2.2645
20239TIP3   OH282207   4.770   3.559   3.306 -0.0579  0.0184 -0.5301
20239TIP3    H182208   4.740   3.470   3.323 -1.6044  0.9529  2.1338
20239TIP3    H282209   4.740   3.577   3.217 -0.2220 -1.8896 -0.9107
20240TIP3   OH282210   4.343   6.258  11.867 -0.1596  0.1352  0.4730
20240TIP3    H182211   4.403   6.265  11.942 -1.3069  1.9190  1.2827
20240TIP3    H282212   4.257   6.278  11.902 -0.6299  1.9311 -1.4379
20241TIP3   OH282213   5.028   5.775  11.942  0.1691  0.0105  0.2270
20241TIP3    H182214   5.006   5.773  11.849  1.2275  1.6464 -0.0962
20241TIP3    H282215   5.114   5.731  11.947 -0.5659 -1.4419  0.6862
20242TIP3   OH282216   3.020   3.719   0.464  0.5777 -0.4879  0.4498
20242TIP3    H182217   3.098   3.765   0.433  0.2882  0.7002  1.4548
20242TIP3    H282218   3.054   3.635   0.496  1.4462  0.0291  0.9153
20243TIP3   OH282219   4.309   2.988  15.429 -0.2577  0.3093  0.6402
20243TIP3    H182220   4.359   2.965  15.507 -0.4934 -1.5715  0.2974
20243TIP3    H282221   4.315   2.910  15.373 -0.2516  1.5249 -1.1425
20244TIP3   OH282222   6.647   4.836  15.972  0.0419 -0.0825  0.0369
20244TIP3    H182223   6.665   4.759  16.026 -0.0544 -0.3530 -0.3062
20244TIP3    H282224   6.733   4.864  15.941  0.0055 -0.5811 -0.5405
20245TIP3   OH282225   4.902   1.341  14.481 -0.0074  0.1960 -0.4598
20245TIP3    H182226   4.943   1.398  14.545 -0.0313  0.5478 -0.7581
20245TIP3    H282227   4.813   1.376  14.471 -0.7114 -1.0778  0.8428
20246TIP3   OH282228   4.806   4.149   5.729 -0.4623 -0.7131 -0.6989
20246TIP3    H182229   4.860   4.160   5.651  1.0650 -0.6381  0.3356
20246TIP3    H282230   4.729   4.204   5.712  0.9765  1.2728 -1.1480
20247TIP3   OH282231   0.550   4.395   5.474  0.3495 -0.2368 -0.3355
20247TIP3    H182232   0.462   4.359   5.465 -0.2391  1.2985 -1.2753
20247TIP3    H282233   0.537   4.490   5.467  1.5300  0.4633  4.0690
20248TIP3   OH282234   4.343   1.833   5.633  0.3677 -0.4368 -0.3155
20248TIP3    H182235   4.422   1.864   5.588  2.7258 -2.0683  2.4027
20248TIP3    H282236   4.286   1.911   5.637  2.3142  1.1362 -1.3307
20249TIP3   OH282237   5.813   1.588   2.037 -0.1216  0.0550  0.2799
20249TIP3    H182238   5.782   1.678   2.045 -0.6550 -0.1422  0.4964
20249TIP3    H282239   5.855   1.569   2.121  1.7045  0.7212 -0.4396
20250TIP3   OH282240   5.570   0.048   3.224 -0.2441 -0.2639 -0.2975
20250TIP3    H182241   5.620  -0.005   3.162 -1.0010 -1.0558 -0.2452
20250TIP3    H282242   5.574  -0.000   3.306 -0.6145 -0.0458 -0.1479
20251TIP3   OH282243   2.916   0.134  12.514  0.4403  0.4798 -0.3858
20251TIP3    H182244   2.887   0.131  12.422  0.8009  2.1274 -0.5722
20251TIP3    H282245   3.010   0.118  12.510  0.2623 -0.7984 -0.1423
20252TIP3   OH282246   6.585   5.482  15.929  0.1657  0.0190  0.0331
20252TIP3    H182247   6.671   5.444  15.944 -0.0962 -0.1969  1.0429
20252TIP3    H282248   6.524   5.408  15.935 -0.1761  0.3081  0.2204
20253TIP3   OH282249   3.530   5.792   0.954 -0.0606  0.0868 -0.6162
20253TIP3    H182250   3.571   5.708   0.939  0.0777 -0.0274  0.2977
20253TIP3    H282251   3.535   5.838   0.871 -0.0800 -0.7797 -1.1004
20254TIP3   OH282252   1.475   1.613   5.931 -0.1278 -0.4374 -0.2205
20254TIP3    H182253   1.512   1.672   5.866 -0.6236  0.3919  0.2337
20254TIP3    H282254   1.393   1.656   5.959  0.6595 -0.1353  1.8228
20255TIP3   OH282255   6.609   3.025   5.088  0.5153  0.0633 -0.9814
20255TIP3    H182256   6.598   3.089   5.159 -0.0283  0.3591 -1.3218
20255TIP3    H282257   6.689   3.052   5.043  1.6602 -0.9726  0.3750
20256TIP3   OH282258   6.150   4.467  12.323  0.5041  0.2679 -0.1617
20256TIP3    H182259   6.097   4.495  12.397 -1.2093 -0.5473 -1.0044
20256TIP3    H282260   6.169   4.375  12.341  0.0896  0.0681 -0.6916
20257LIG     O182261   4.907   5.018  16.659  0.3495  0.1564 -0.1756
20257LIG     O282262   5.090   4.969  16.514  0.3606 -0.3127 -0.2025
20257LIG     O382263   5.000   4.744  16.537  0.1609  0.0621  0.3649
20257LIG     O482264   5.129   5.253  16.736 -0.3098  0.1741  0.5527
20257LIG     O582265   5.123   5.075  16.943  0.3154 -0.0127 -0.6671
20257LIG     O682266   5.018   4.949  16.234  0.3045 -0.8646  0.4217
20257LIG     O782267   5.279   4.857  16.346 -0.4756 -0.4183 -0.5033
20257LIG     O882268   5.299   4.585  16.398 -0.2051 -0.0116 -0.5543
20257LIG     O982269   5.032   5.208  16.385  0.1858  0.4667 -0.5954
20257LIG    O1082270   4.870   4.778  16.803 -0.2753 -0.2054  0.0119
20257LIG    O1182271   5.224   4.475  16.652 -0.1831  0.0908  0.2728
20257LIG     C182272   5.016   5.069  16.589 -0.7139 -0.0149 -0.2171
20257LIG     C282273   5.119   5.110  16.698  0.1856  0.6108 -0.1769
20257LIG     C382274   5.074   5.029  16.819 -0.1163  0.9444  0.6523
20257LIG     C482275   4.919   5.023  16.798 -0.5062  0.2894  0.3372
20257LIG     C582276   5.001   4.867  16.459 -0.4516  0.3204  0.6675
20257LIG     C682277   5.034   4.836  16.320  0.3900  0.7028  0.2947
20257LIG     C782278   5.171   4.768  16.310  0.1148  0.5729  0.6842
20257LIG     C882279   5.172   4.645  16.400  0.5023  0.6451 -0.1271
20257LIG     C982280   5.129   4.685  16.536 -0.0066  0.1165  0.1574
20257LIG    C1082281   4.949   5.178  16.498 -0.6933  0.7526  0.3747
20257LIG    C1182282   4.852   4.904  16.865  0.5440 -0.3062 -0.3192
20257LIG    C1282283   5.112   4.562  16.630  0.6032 -0.1793 -0.4701
20257LIG     H182284   5.219   5.072  16.675  0.5984 -1.2559  3.8326
20257LIG     H282285   5.103   4.924  16.807  2.9383  1.8544 -0.6313
20257LIG     H382286   4.870   5.114  16.837  1.4486  0.3295  3.0148
20257LIG     H482287   4.896   4.903  16.459  0.1042  2.0413  0.3504
20257LIG     H582288   4.956   4.763  16.287  1.7237 -0.9258  0.6170
20257LIG     H682289   5.180   4.733  16.205 -0.9275 -0.3309  0.8756
20257LIG     H782290   5.083   4.581  16.378 -0.3435  1.1916  1.5258
20257LIG     H882291   5.206   4.744  16.592 -0.8563 -0.5120  2.0954
20257LIG     H982292   4.853   5.131  16.465  0.7443 -0.8330 -1.8312
20257LIG    H1082293   4.931   5.260  16.571  2.0966  1.2646  0.5902
20257LIG    H1182294   4.896   4.890  16.966 -0.7816  0.9051  0.4710
20257LIG    H1282295   4.743   4.927  16.867  0.3104 -1.1903 -1.6163
20257LIG    H1382296   5.075   4.593  16.730  0.5070  0.1331 -0.6032
20257LIG    H1482297   5.030   4.498  16.591  1.9243 -1.4237 -1.3049
20257LIG    H1582298   5.212   5.269  16.781  1.2084  1.8735 -2.5215
20257LIG    H1682299   5.185   5.012  16.980 -0.7989 -1.2341 -0.8082
20257LIG    H1782300   5.066   5.022  16.273 -2.8549  0.7522  1.5930
20257LIG    H1882301   5.348   4.791  16.337 -2.2321 -2.1500 -2.0858
20257LIG    H1982302   5.301   4.505  16.452 -1.1203  0.4214  0.1416
20257LIG    H2082303   5.017   5.299  16.360  1.9098  0.7638 -0.6242
20257LIG    H2182304   4.818   4.778  16.722 -1.1080  1.0929  0.5203
20257LIG    H2282305   5.199   4.406  16.714 -3.1191  0.2829 -0.5450
   6.84185   6.84185  17.14638
